                               Psi4 1.4a3.dev225

  ==> Input File <==

--------------------------------------------------------------------------
#psi4
#
memory 32 gb

molecule  {
0 1
  C       -2.1229620    -0.0000010    -0.5285820
  C       -3.0262580     0.7522420     0.4138790
  C       -3.0262580    -0.7522400     0.4138820
  C       -0.6042278    -0.0243158    -0.3051122
  C        0.0658190     1.2029900    -0.2211540
  C        0.0658190    -1.2029910    -0.2211540
  C        1.4498120     1.2013260    -0.0471800
  C        1.4498130    -1.2013260    -0.0471800
  C        2.1649180     0.0000000     0.0407490
  C        3.6537450     0.0000010     0.2729580
  H       -2.4338460    -0.0000040    -1.5729350
  H       -3.8872420     1.2699250     0.0031310
  H       -2.5562430     1.2534570     1.2541040
  H       -2.5562430    -1.2534530     1.2541090
  H       -3.8872430    -1.2699240     0.0031370
  H       -0.4732260     2.1464250    -0.2897140
  H       -0.4732250    -2.1464270    -0.2897140
  H        1.9843610     2.1482350     0.0181390
  H        1.9843620    -2.1482350     0.0181390
  H        4.1207180    -0.8853500    -0.1681390
  H        4.1207180     0.8853520    -0.1681380
  H        3.8883030     0.0000000     1.3432050
units angstrom
no_reorient  #important for SAPT in psi4, default
symmetry c1  #important for SAPT in psi4, default
}

set PROPERTIES_ORIGIN ["COM"]
properties('MP2/aug-cc-pvtz', properties = ['dipole'])
--------------------------------------------------------------------------

    Molecular point group: c1
  Charge       = 0
  Multiplicity = 1
  Basis Set: AUG-CC-PVTZ
    Blend: AUG-CC-PVTZ
  Basis Set: (AUG-CC-PVTZ AUX)
    Blend: AUG-CC-PVTZ-JKFIT

    Orbital Energies [Eh]
    ---------------------

    Doubly Occupied:

       1A    -11.237445     2A    -11.234054     3A    -11.231827
       4A    -11.229307     5A    -11.227915     6A    -11.227786
       7A    -11.224071     8A    -11.223883     9A    -11.222767
      10A    -11.222387    11A     -1.163804    12A     -1.129988
      13A     -1.041374    14A     -1.009070    15A     -0.934486
      16A     -0.834742    17A     -0.826147    18A     -0.809873
      19A     -0.767029    20A     -0.685589    21A     -0.651535
      22A     -0.635437    23A     -0.625467    24A     -0.598111
      25A     -0.580885    26A     -0.573258    27A     -0.538713
      28A     -0.526285    29A     -0.511456    30A     -0.491840
      31A     -0.486928    32A     -0.469331    33A     -0.421881
      34A     -0.413146    35A     -0.332929    36A     -0.315217

  @DF-RHF Final Energy:  -385.76765193502501

   => Energetics <=

    Nuclear Repulsion Energy =            482.8429060930532728
    One-Electron Energy =               -1477.9091881682913936
    Two-Electron Energy =                 609.2986301402131630
    Total Energy =                       -385.7676519350250146
  Basis Set: (AUG-CC-PVTZ AUX)
    Blend: AUG-CC-PVTZ-RI
    Molecular point group: c1

    Geometry (in Angstrom), charge = 0, multiplicity = 1:

       Center              X                  Y                   Z               Mass
    ------------   -----------------  -----------------  -----------------  -----------------
         C           -2.128053192596     0.002207857421    -0.518510303347    12.000000000000
         C           -3.031349192596     0.754450857421     0.423950696653    12.000000000000
         C           -3.031349192596    -0.750031142579     0.423953696653    12.000000000000
         C           -0.609318992596    -0.022106942579    -0.295040503347    12.000000000000
         C            0.060727807404     1.205198857421    -0.211082303347    12.000000000000
         C            0.060727807404    -1.200782142579    -0.211082303347    12.000000000000
         C            1.444720807404     1.203534857421    -0.037108303347    12.000000000000
         C            1.444721807404    -1.199117142579    -0.037108303347    12.000000000000
         C            2.159826807404     0.002208857421     0.050820696653    12.000000000000
         C            3.648653807404     0.002209857421     0.283029696653    12.000000000000
         H           -2.438937192596     0.002204857421    -1.562863303347     1.007825032230
         H           -3.892333192596     1.272133857421     0.013202696653     1.007825032230
         H           -2.561334192596     1.255665857421     1.264175696653     1.007825032230
         H           -2.561334192596    -1.251244142579     1.264180696653     1.007825032230
         H           -3.892334192596    -1.267715142579     0.013208696653     1.007825032230
         H           -0.478317192596     2.148633857421    -0.279642303347     1.007825032230
         H           -0.478316192596    -2.144218142579    -0.279642303347     1.007825032230
         H            1.979269807404     2.150443857421     0.028210696653     1.007825032230
         H            1.979270807404    -2.146026142579     0.028210696653     1.007825032230
         H            4.115626807404    -0.883141142579    -0.158067303347     1.007825032230
         H            4.115626807404     0.887560857421    -0.158066303347     1.007825032230
         H            3.883211807404     0.002208857421     1.353276696653     1.007825032230

  Basis Set: AUG-CC-PVTZ
    Blend: AUG-CC-PVTZ
  Basis Set: (AUG-CC-PVTZ AUX)
    Blend: AUG-CC-PVTZ-JKFIT
	 Reference Energy          =    -385.7676519350250146 [Eh]
	 Singles Energy            =      -0.0000000000000000 [Eh]
	 Same-Spin Energy          =      -0.4313381545384032 [Eh]
	 Opposite-Spin Energy      =      -1.4109596777926210 [Eh]
	 Correlation Energy        =      -1.8422978323310242 [Eh]
	 Total Energy              =    -387.6099497673560563 [Eh]

	 ================> DF-SCS-MP2 Energies <==================
	-----------------------------------------------------------
	 SCS Same-Spin Scale       =       0.3333333333333333 [-]
	 SCS Opposite-Spin Scale   =       1.2000000000000000 [-]
	 SCS Same-Spin Energy      =      -0.1437793848461344 [Eh]
	 SCS Opposite-Spin Energy  =      -1.6931516133511451 [Eh]
	 SCS Correlation Energy    =      -1.8369309981972795 [Eh]
	 SCS Total Energy          =    -387.6045829332222752 [Eh]
	-----------------------------------------------------------

  Dipole Moment: [D]
     X:     0.1749      Y:     0.0067      Z:     0.0264     Total:     0.1770

*** Psi4 exiting successfully. Buy a developer a beer!
