                               Psi4 1.4a3.dev225

  ==> Input File <==

--------------------------------------------------------------------------
#psi4
#
memory 32 gb

molecule  {
0 1
  C       -2.1229620    -0.0000010    -0.5285820
  C       -3.0262580     0.7522420     0.4138790
  C       -3.1158142    -0.7854072     0.2883801
  C       -0.6463130    -0.0000010    -0.3104390
  C        0.0658190     1.2029900    -0.2211540
  C        0.0658190    -1.2029910    -0.2211540
  C        1.4498120     1.2013260    -0.0471800
  C        1.4498130    -1.2013260    -0.0471800
  C        2.1649180     0.0000000     0.0407490
  C        3.6537450     0.0000010     0.2729580
  H       -2.4338460    -0.0000040    -1.5729350
  H       -3.8872420     1.2699250     0.0031310
  H       -2.5562430     1.2534570     1.2541040
  H       -2.5562430    -1.2534530     1.2541090
  H       -3.8872430    -1.2699240     0.0031370
  H       -0.4732260     2.1464250    -0.2897140
  H       -0.4732250    -2.1464270    -0.2897140
  H        1.9843610     2.1482350     0.0181390
  H        1.9843620    -2.1482350     0.0181390
  H        4.1207180    -0.8853500    -0.1681390
  H        4.1207180     0.8853520    -0.1681380
  H        3.8883030     0.0000000     1.3432050
units angstrom
no_reorient  #important for SAPT in psi4, default
symmetry c1  #important for SAPT in psi4, default
}

set PROPERTIES_ORIGIN ["COM"]
properties('MP2/aug-cc-pvtz', properties = ['dipole'])
--------------------------------------------------------------------------

    Molecular point group: c1
  Charge       = 0
  Multiplicity = 1
  Basis Set: AUG-CC-PVTZ
    Blend: AUG-CC-PVTZ
  Basis Set: (AUG-CC-PVTZ AUX)
    Blend: AUG-CC-PVTZ-JKFIT

    Orbital Energies [Eh]
    ---------------------

    Doubly Occupied:

       1A    -11.238878     2A    -11.237408     3A    -11.236368
       4A    -11.230956     5A    -11.229955     6A    -11.228635
       7A    -11.228037     8A    -11.227371     9A    -11.226770
      10A    -11.223025    11A     -1.161814    12A     -1.127602
      13A     -1.039917    14A     -1.007704    15A     -0.937707
      16A     -0.841489    17A     -0.832408    18A     -0.815445
      19A     -0.766818    20A     -0.682008    21A     -0.667733
      22A     -0.635006    23A     -0.628141    24A     -0.593992
      25A     -0.577961    26A     -0.573719    27A     -0.539856
      28A     -0.527601    29A     -0.509021    30A     -0.488324
      31A     -0.484618    32A     -0.477458    33A     -0.417391
      34A     -0.409886    35A     -0.332310    36A     -0.312759

  @DF-RHF Final Energy:  -385.73866900200409

   => Energetics <=

    Nuclear Repulsion Energy =            481.7200044062140591
    One-Electron Energy =               -1475.5251652335985000
    Two-Electron Energy =                 608.0664918253804672
    Total Energy =                       -385.7386690020040305
  Basis Set: (AUG-CC-PVTZ AUX)
    Blend: AUG-CC-PVTZ-RI
    Molecular point group: c1

    Geometry (in Angstrom), charge = 0, multiplicity = 1:

       Center              X                  Y                   Z               Mass
    ------------   -----------------  -----------------  -----------------  -----------------
         C           -2.116094299752     0.003012048983    -0.506625239802    12.000000000000
         C           -3.019390299752     0.755255048983     0.435835760198    12.000000000000
         C           -3.108946499752    -0.782394151017     0.310336860198    12.000000000000
         C           -0.639445299752     0.003012048983    -0.288482239802    12.000000000000
         C            0.072686700248     1.206003048983    -0.199197239802    12.000000000000
         C            0.072686700248    -1.199977951017    -0.199197239802    12.000000000000
         C            1.456679700248     1.204339048983    -0.025223239802    12.000000000000
         C            1.456680700248    -1.198312951017    -0.025223239802    12.000000000000
         C            2.171785700248     0.003013048983     0.062705760198    12.000000000000
         C            3.660612700248     0.003014048983     0.294914760198    12.000000000000
         H           -2.426978299752     0.003009048983    -1.550978239802     1.007825032230
         H           -3.880374299752     1.272938048983     0.025087760198     1.007825032230
         H           -2.549375299752     1.256470048983     1.276060760198     1.007825032230
         H           -2.549375299752    -1.250439951017     1.276065760198     1.007825032230
         H           -3.880375299752    -1.266910951017     0.025093760198     1.007825032230
         H           -0.466358299752     2.149438048983    -0.267757239802     1.007825032230
         H           -0.466357299752    -2.143413951017    -0.267757239802     1.007825032230
         H            1.991228700248     2.151248048983     0.040095760198     1.007825032230
         H            1.991229700248    -2.145221951017     0.040095760198     1.007825032230
         H            4.127585700248    -0.882336951017    -0.146182239802     1.007825032230
         H            4.127585700248     0.888365048983    -0.146181239802     1.007825032230
         H            3.895170700248     0.003013048983     1.365161760198     1.007825032230

  Basis Set: AUG-CC-PVTZ
    Blend: AUG-CC-PVTZ
  Basis Set: (AUG-CC-PVTZ AUX)
    Blend: AUG-CC-PVTZ-JKFIT
	 Reference Energy          =    -385.7386690020040874 [Eh]
	 Singles Energy            =      -0.0000000000000000 [Eh]
	 Same-Spin Energy          =      -0.4320781682409662 [Eh]
	 Opposite-Spin Energy      =      -1.4131832392388801 [Eh]
	 Correlation Energy        =      -1.8452614074798463 [Eh]
	 Total Energy              =    -387.5839304094839122 [Eh]

	 ================> DF-SCS-MP2 Energies <==================
	-----------------------------------------------------------
	 SCS Same-Spin Scale       =       0.3333333333333333 [-]
	 SCS Opposite-Spin Scale   =       1.2000000000000000 [-]
	 SCS Same-Spin Energy      =      -0.1440260560803221 [Eh]
	 SCS Opposite-Spin Energy  =      -1.6958198870866561 [Eh]
	 SCS Correlation Energy    =      -1.8398459431669782 [Eh]
	 SCS Total Energy          =    -387.5785149451710936 [Eh]
	-----------------------------------------------------------

  Dipole Moment: [D]
     X:     0.1694      Y:     0.0289      Z:    -0.0431     Total:     0.1772

*** Psi4 exiting successfully. Buy a developer a beer!
