                               Psi4 1.4a3.dev225

  ==> Input File <==

--------------------------------------------------------------------------
#psi4
#
memory 32 gb

molecule  {
0 1
  C       -2.1229620    -0.0000010    -0.5285820
  C       -3.0262580     0.7522420     0.4138790
  C       -3.0262580    -0.7522400     0.4138820
  C       -0.6463130    -0.0000010    -0.3104390
  C        0.0658190     1.2029900    -0.2211540
  C        0.0658190    -1.2029910    -0.2211540
  C        1.4463153     1.1040278    -0.0475370
  C        1.4498130    -1.2013260    -0.0471800
  C        2.1649180     0.0000000     0.0407490
  C        3.6537450     0.0000010     0.2729580
  H       -2.4338460    -0.0000040    -1.5729350
  H       -3.8872420     1.2699250     0.0031310
  H       -2.5562430     1.2534570     1.2541040
  H       -2.5562430    -1.2534530     1.2541090
  H       -3.8872430    -1.2699240     0.0031370
  H       -0.4732260     2.1464250    -0.2897140
  H       -0.4732250    -2.1464270    -0.2897140
  H        1.9843610     2.1482350     0.0181390
  H        1.9843620    -2.1482350     0.0181390
  H        4.1207180    -0.8853500    -0.1681390
  H        4.1207180     0.8853520    -0.1681380
  H        3.8883030     0.0000000     1.3432050
units angstrom
no_reorient  #important for SAPT in psi4, default
symmetry c1  #important for SAPT in psi4, default
}

set PROPERTIES_ORIGIN ["COM"]
properties('MP2/aug-cc-pvtz', properties = ['dipole'])
--------------------------------------------------------------------------

    Molecular point group: c1
  Charge       = 0
  Multiplicity = 1
  Basis Set: AUG-CC-PVTZ
    Blend: AUG-CC-PVTZ
  Basis Set: (AUG-CC-PVTZ AUX)
    Blend: AUG-CC-PVTZ-JKFIT

    Orbital Energies [Eh]
    ---------------------

    Doubly Occupied:

       1A    -11.234789     2A    -11.233147     3A    -11.229538
       4A    -11.228638     5A    -11.227907     6A    -11.227203
       7A    -11.225621     8A    -11.225097     9A    -11.224414
      10A    -11.223108    11A     -1.168550    12A     -1.136303
      13A     -1.043949    14A     -1.004514    15A     -0.939331
      16A     -0.840633    17A     -0.831904    18A     -0.809704
      19A     -0.762194    20A     -0.686575    21A     -0.654267
      22A     -0.638759    23A     -0.623004    24A     -0.596830
      25A     -0.575540    26A     -0.568733    27A     -0.535109
      28A     -0.533231    29A     -0.512713    30A     -0.495821
      31A     -0.487328    32A     -0.465497    33A     -0.425596
      34A     -0.411799    35A     -0.332002    36A     -0.318468

  @DF-RHF Final Energy:  -385.75776177554201

   => Energetics <=

    Nuclear Repulsion Energy =            484.2279231793357894
    One-Electron Energy =               -1480.6157373125640788
    Two-Electron Energy =                 610.6300523576862815
    Total Energy =                       -385.7577617755420079
  Basis Set: (AUG-CC-PVTZ AUX)
    Blend: AUG-CC-PVTZ-RI
    Molecular point group: c1

    Geometry (in Angstrom), charge = 0, multiplicity = 1:

       Center              X                  Y                   Z               Mass
    ------------   -----------------  -----------------  -----------------  -----------------
         C           -2.123912329177     0.008837995508    -0.517993961564    12.000000000000
         C           -3.027208329177     0.761080995508     0.424467038436    12.000000000000
         C           -3.027208329177    -0.743401004492     0.424470038436    12.000000000000
         C           -0.647263329177     0.008837995508    -0.299850961564    12.000000000000
         C            0.064868670823     1.211828995508    -0.210565961564    12.000000000000
         C            0.064868670823    -1.194152004492    -0.210565961564    12.000000000000
         C            1.445364970823     1.112866795508    -0.036948961564    12.000000000000
         C            1.448862670823    -1.192487004492    -0.036591961564    12.000000000000
         C            2.163967670823     0.008838995508     0.051337038436    12.000000000000
         C            3.652794670823     0.008839995508     0.283546038436    12.000000000000
         H           -2.434796329177     0.008834995508    -1.562346961564     1.007825032230
         H           -3.888192329177     1.278763995508     0.013719038436     1.007825032230
         H           -2.557193329177     1.262295995508     1.264692038436     1.007825032230
         H           -2.557193329177    -1.244614004492     1.264697038436     1.007825032230
         H           -3.888193329177    -1.261085004492     0.013725038436     1.007825032230
         H           -0.474176329177     2.155263995508    -0.279125961564     1.007825032230
         H           -0.474175329177    -2.137588004492    -0.279125961564     1.007825032230
         H            1.983410670823     2.157073995508     0.028727038436     1.007825032230
         H            1.983411670823    -2.139396004492     0.028727038436     1.007825032230
         H            4.119767670823    -0.876511004492    -0.157550961564     1.007825032230
         H            4.119767670823     0.894190995508    -0.157549961564     1.007825032230
         H            3.887352670823     0.008838995508     1.353793038436     1.007825032230

  Basis Set: AUG-CC-PVTZ
    Blend: AUG-CC-PVTZ
  Basis Set: (AUG-CC-PVTZ AUX)
    Blend: AUG-CC-PVTZ-JKFIT
	 Reference Energy          =    -385.7577617755420079 [Eh]
	 Singles Energy            =      -0.0000000000000000 [Eh]
	 Same-Spin Energy          =      -0.4319334768859788 [Eh]
	 Opposite-Spin Energy      =      -1.4117769052492917 [Eh]
	 Correlation Energy        =      -1.8437103821352705 [Eh]
	 Total Energy              =    -387.6014721576772786 [Eh]

	 ================> DF-SCS-MP2 Energies <==================
	-----------------------------------------------------------
	 SCS Same-Spin Scale       =       0.3333333333333333 [-]
	 SCS Opposite-Spin Scale   =       1.2000000000000000 [-]
	 SCS Same-Spin Energy      =      -0.1439778256286596 [Eh]
	 SCS Opposite-Spin Energy  =      -1.6941322862991499 [Eh]
	 SCS Correlation Energy    =      -1.8381101119278096 [Eh]
	 SCS Total Energy          =    -387.5958718874697979 [Eh]
	-----------------------------------------------------------

  Dipole Moment: [D]
     X:     0.0610      Y:    -0.0558      Z:     0.0167     Total:     0.0844

*** Psi4 exiting successfully. Buy a developer a beer!
