                               Psi4 1.4a3.dev225

  ==> Input File <==

--------------------------------------------------------------------------
#psi4
#
memory 32 gb

molecule  {
0 1
  C       -2.1229620    -0.0000010    -0.5285820
  C       -3.0262580     0.7522420     0.4138790
  C       -3.1461645    -0.8520947     0.5389878
  C       -0.6463130    -0.0000010    -0.3104390
  C        0.0658190     1.2029900    -0.2211540
  C        0.0658190    -1.2029910    -0.2211540
  C        1.4498120     1.2013260    -0.0471800
  C        1.4498130    -1.2013260    -0.0471800
  C        2.1649180     0.0000000     0.0407490
  C        3.6537450     0.0000010     0.2729580
  H       -2.4338460    -0.0000040    -1.5729350
  H       -3.8872420     1.2699250     0.0031310
  H       -2.5562430     1.2534570     1.2541040
  H       -2.5562430    -1.2534530     1.2541090
  H       -3.8872430    -1.2699240     0.0031370
  H       -0.4732260     2.1464250    -0.2897140
  H       -0.4732250    -2.1464270    -0.2897140
  H        1.9843610     2.1482350     0.0181390
  H        1.9843620    -2.1482350     0.0181390
  H        4.1207180    -0.8853500    -0.1681390
  H        4.1207180     0.8853520    -0.1681380
  H        3.8883030     0.0000000     1.3432050
units angstrom
no_reorient  #important for SAPT in psi4, default
symmetry c1  #important for SAPT in psi4, default
}

set PROPERTIES_ORIGIN ["COM"]
properties('MP2/aug-cc-pvtz', properties = ['dipole'])
--------------------------------------------------------------------------

    Molecular point group: c1
  Charge       = 0
  Multiplicity = 1
  Basis Set: AUG-CC-PVTZ
    Blend: AUG-CC-PVTZ
  Basis Set: (AUG-CC-PVTZ AUX)
    Blend: AUG-CC-PVTZ-JKFIT

    Orbital Energies [Eh]
    ---------------------

    Doubly Occupied:

       1A    -11.242346     2A    -11.238642     3A    -11.237710
       4A    -11.235425     5A    -11.230446     6A    -11.229200
       7A    -11.228341     8A    -11.227696     9A    -11.225159
      10A    -11.222931    11A     -1.154873    12A     -1.102260
      13A     -1.035057    14A     -1.007353    15A     -0.936970
      16A     -0.849736    17A     -0.829508    18A     -0.815622
      19A     -0.764564    20A     -0.686968    21A     -0.648567
      22A     -0.634499    23A     -0.622124    24A     -0.591976
      25A     -0.577725    26A     -0.573758    27A     -0.558544
      28A     -0.538442    29A     -0.525551    30A     -0.488727
      31A     -0.483566    32A     -0.477738    33A     -0.428958
      34A     -0.368403    35A     -0.332180    36A     -0.311104

  @DF-RHF Final Energy:  -385.73730754445916

   => Energetics <=

    Nuclear Repulsion Energy =            479.0955944062183107
    One-Electron Energy =               -1470.3404653029112978
    Two-Electron Energy =                 605.5075633522338876
    Total Energy =                       -385.7373075444590995
  Basis Set: (AUG-CC-PVTZ AUX)
    Blend: AUG-CC-PVTZ-RI
    Molecular point group: c1

    Geometry (in Angstrom), charge = 0, multiplicity = 1:

       Center              X                  Y                   Z               Mass
    ------------   -----------------  -----------------  -----------------  -----------------
         C           -2.113337142920     0.009070239389    -0.529391562783    12.000000000000
         C           -3.016633142920     0.761313239389     0.413069437217    12.000000000000
         C           -3.136539642920    -0.843023460611     0.538178237217    12.000000000000
         C           -0.636688142920     0.009070239389    -0.311248562783    12.000000000000
         C            0.075443857080     1.212061239389    -0.221963562783    12.000000000000
         C            0.075443857080    -1.193919760611    -0.221963562783    12.000000000000
         C            1.459436857080     1.210397239389    -0.047989562783    12.000000000000
         C            1.459437857080    -1.192254760611    -0.047989562783    12.000000000000
         C            2.174542857080     0.009071239389     0.039939437217    12.000000000000
         C            3.663369857080     0.009072239389     0.272148437217    12.000000000000
         H           -2.424221142920     0.009067239389    -1.573744562783     1.007825032230
         H           -3.877617142920     1.278996239389     0.002321437217     1.007825032230
         H           -2.546618142920     1.262528239389     1.253294437217     1.007825032230
         H           -2.546618142920    -1.244381760611     1.253299437217     1.007825032230
         H           -3.877618142920    -1.260852760611     0.002327437217     1.007825032230
         H           -0.463601142920     2.155496239389    -0.290523562783     1.007825032230
         H           -0.463600142920    -2.137355760611    -0.290523562783     1.007825032230
         H            1.993985857080     2.157306239389     0.017329437217     1.007825032230
         H            1.993986857080    -2.139163760611     0.017329437217     1.007825032230
         H            4.130342857080    -0.876278760611    -0.168948562783     1.007825032230
         H            4.130342857080     0.894423239389    -0.168947562783     1.007825032230
         H            3.897927857080     0.009071239389     1.342395437217     1.007825032230

  Basis Set: AUG-CC-PVTZ
    Blend: AUG-CC-PVTZ
  Basis Set: (AUG-CC-PVTZ AUX)
    Blend: AUG-CC-PVTZ-JKFIT
	 Reference Energy          =    -385.7373075444591564 [Eh]
	 Singles Energy            =      -0.0000000000000000 [Eh]
	 Same-Spin Energy          =      -0.4321775244127102 [Eh]
	 Opposite-Spin Energy      =      -1.4149887048980865 [Eh]
	 Correlation Energy        =      -1.8471662293107967 [Eh]
	 Total Energy              =    -387.5844737737699575 [Eh]

	 ================> DF-SCS-MP2 Energies <==================
	-----------------------------------------------------------
	 SCS Same-Spin Scale       =       0.3333333333333333 [-]
	 SCS Opposite-Spin Scale   =       1.2000000000000000 [-]
	 SCS Same-Spin Energy      =      -0.1440591748042367 [Eh]
	 SCS Opposite-Spin Energy  =      -1.6979864458777036 [Eh]
	 SCS Correlation Energy    =      -1.8420456206819404 [Eh]
	 SCS Total Energy          =    -387.5793531651410717 [Eh]
	-----------------------------------------------------------

  Dipole Moment: [D]
     X:     0.2759      Y:     0.1558      Z:    -0.0671     Total:     0.3239

*** Psi4 exiting successfully. Buy a developer a beer!
