                               Psi4 1.4a3.dev225

  ==> Input File <==

--------------------------------------------------------------------------
#psi4
#
memory 32 gb

molecule  {
0 1
  C       -2.1221621     0.0520881    -0.5277746
  C       -3.0262580     0.7522420     0.4138790
  C       -3.0262580    -0.7522400     0.4138820
  C       -0.6463130    -0.0000010    -0.3104390
  C        0.0658190     1.2029900    -0.2211540
  C        0.0658190    -1.2029910    -0.2211540
  C        1.4498120     1.2013260    -0.0471800
  C        1.4498130    -1.2013260    -0.0471800
  C        2.1649180     0.0000000     0.0407490
  C        3.6537450     0.0000010     0.2729580
  H       -2.4338460    -0.0000040    -1.5729350
  H       -3.8872420     1.2699250     0.0031310
  H       -2.5562430     1.2534570     1.2541040
  H       -2.5562430    -1.2534530     1.2541090
  H       -3.8872430    -1.2699240     0.0031370
  H       -0.4732260     2.1464250    -0.2897140
  H       -0.4732250    -2.1464270    -0.2897140
  H        1.9843610     2.1482350     0.0181390
  H        1.9843620    -2.1482350     0.0181390
  H        4.1207180    -0.8853500    -0.1681390
  H        4.1207180     0.8853520    -0.1681380
  H        3.8883030     0.0000000     1.3432050
units angstrom
no_reorient  #important for SAPT in psi4, default
symmetry c1  #important for SAPT in psi4, default
}

set PROPERTIES_ORIGIN ["COM"]
properties('MP2/aug-cc-pvtz', properties = ['dipole'])
--------------------------------------------------------------------------

    Molecular point group: c1
  Charge       = 0
  Multiplicity = 1
  Basis Set: AUG-CC-PVTZ
    Blend: AUG-CC-PVTZ
  Basis Set: (AUG-CC-PVTZ AUX)
    Blend: AUG-CC-PVTZ-JKFIT

    Orbital Energies [Eh]
    ---------------------

    Doubly Occupied:

       1A    -11.237952     2A    -11.234322     3A    -11.233444
       4A    -11.229771     5A    -11.228518     6A    -11.227812
       7A    -11.227086     8A    -11.225550     9A    -11.223194
      10A    -11.222478    11A     -1.163494    12A     -1.130246
      13A     -1.039207    14A     -1.006792    15A     -0.936717
      16A     -0.834843    17A     -0.830892    18A     -0.808910
      19A     -0.765680    20A     -0.686967    21A     -0.652483
      22A     -0.633847    23A     -0.626375    24A     -0.599244
      25A     -0.577081    26A     -0.573170    27A     -0.538532
      28A     -0.528214    29A     -0.512307    30A     -0.489959
      31A     -0.483722    32A     -0.475957    33A     -0.431679
      34A     -0.405256    35A     -0.331539    36A     -0.312165

  @DF-RHF Final Energy:  -385.76800563167723

   => Energetics <=

    Nuclear Repulsion Energy =            482.6181379828358899
    One-Electron Energy =               -1477.4414777640488410
    Two-Electron Energy =                 609.0553341495357245
    Total Energy =                       -385.7680056316772834
  Basis Set: (AUG-CC-PVTZ AUX)
    Blend: AUG-CC-PVTZ-RI
    Molecular point group: c1

    Geometry (in Angstrom), charge = 0, multiplicity = 1:

       Center              X                  Y                   Z               Mass
    ------------   -----------------  -----------------  -----------------  -----------------
         C           -2.123502751514     0.047356085834    -0.517292340862    12.000000000000
         C           -3.027598651514     0.747509985834     0.424361259138    12.000000000000
         C           -3.027598651514    -0.756972014166     0.424364259138    12.000000000000
         C           -0.647653651514    -0.004733014166    -0.299956740862    12.000000000000
         C            0.064478348486     1.198257985834    -0.210671740862    12.000000000000
         C            0.064478348486    -1.207723014166    -0.210671740862    12.000000000000
         C            1.448471348486     1.196593985834    -0.036697740862    12.000000000000
         C            1.448472348486    -1.206058014166    -0.036697740862    12.000000000000
         C            2.163577348486    -0.004732014166     0.051231259138    12.000000000000
         C            3.652404348486    -0.004731014166     0.283440259138    12.000000000000
         H           -2.435186651514    -0.004736014166    -1.562452740862     1.007825032230
         H           -3.888582651514     1.265192985834     0.013613259138     1.007825032230
         H           -2.557583651514     1.248724985834     1.264586259138     1.007825032230
         H           -2.557583651514    -1.258185014166     1.264591259138     1.007825032230
         H           -3.888583651514    -1.274656014166     0.013619259138     1.007825032230
         H           -0.474566651514     2.141692985834    -0.279231740862     1.007825032230
         H           -0.474565651514    -2.151159014166    -0.279231740862     1.007825032230
         H            1.983020348486     2.143502985834     0.028621259138     1.007825032230
         H            1.983021348486    -2.152967014166     0.028621259138     1.007825032230
         H            4.119377348486    -0.890082014166    -0.157656740862     1.007825032230
         H            4.119377348486     0.880619985834    -0.157655740862     1.007825032230
         H            3.886962348486    -0.004732014166     1.353687259138     1.007825032230

  Basis Set: AUG-CC-PVTZ
    Blend: AUG-CC-PVTZ
  Basis Set: (AUG-CC-PVTZ AUX)
    Blend: AUG-CC-PVTZ-JKFIT
	 Reference Energy          =    -385.7680056316772266 [Eh]
	 Singles Energy            =      -0.0000000000000000 [Eh]
	 Same-Spin Energy          =      -0.4318029297610619 [Eh]
	 Opposite-Spin Energy      =      -1.4116740289295304 [Eh]
	 Correlation Energy        =      -1.8434769586905924 [Eh]
	 Total Energy              =    -387.6114825903678138 [Eh]

	 ================> DF-SCS-MP2 Energies <==================
	-----------------------------------------------------------
	 SCS Same-Spin Scale       =       0.3333333333333333 [-]
	 SCS Opposite-Spin Scale   =       1.2000000000000000 [-]
	 SCS Same-Spin Energy      =      -0.1439343099203540 [Eh]
	 SCS Opposite-Spin Energy  =      -1.6940088347154365 [Eh]
	 SCS Correlation Energy    =      -1.8379431446357906 [Eh]
	 SCS Total Energy          =    -387.6059487763130278 [Eh]
	-----------------------------------------------------------

  Dipole Moment: [D]
     X:     0.1189      Y:     0.0334      Z:     0.0297     Total:     0.1270

*** Psi4 exiting successfully. Buy a developer a beer!
