                               Psi4 1.4a3.dev225

  ==> Input File <==

--------------------------------------------------------------------------
#psi4
#
memory 32 gb

molecule  {
0 1
  C       -2.1229620    -0.0000010    -0.5285820
  C       -3.0262580     0.7522420     0.4138790
  C       -2.9663047    -0.7023126     0.3513291
  C       -0.6463130    -0.0000010    -0.3104390
  C        0.0658190     1.2029900    -0.2211540
  C        0.0658190    -1.2029910    -0.2211540
  C        1.4498120     1.2013260    -0.0471800
  C        1.4498130    -1.2013260    -0.0471800
  C        2.1649180     0.0000000     0.0407490
  C        3.6537450     0.0000010     0.2729580
  H       -2.4338460    -0.0000040    -1.5729350
  H       -3.8872420     1.2699250     0.0031310
  H       -2.5562430     1.2534570     1.2541040
  H       -2.5562430    -1.2534530     1.2541090
  H       -3.8872430    -1.2699240     0.0031370
  H       -0.4732260     2.1464250    -0.2897140
  H       -0.4732250    -2.1464270    -0.2897140
  H        1.9843610     2.1482350     0.0181390
  H        1.9843620    -2.1482350     0.0181390
  H        4.1207180    -0.8853500    -0.1681390
  H        4.1207180     0.8853520    -0.1681380
  H        3.8883030     0.0000000     1.3432050
units angstrom
no_reorient  #important for SAPT in psi4, default
symmetry c1  #important for SAPT in psi4, default
}

set PROPERTIES_ORIGIN ["COM"]
properties('MP2/aug-cc-pvtz', properties = ['dipole'])
--------------------------------------------------------------------------

    Molecular point group: c1
  Charge       = 0
  Multiplicity = 1
  Basis Set: AUG-CC-PVTZ
    Blend: AUG-CC-PVTZ
  Basis Set: (AUG-CC-PVTZ AUX)
    Blend: AUG-CC-PVTZ-JKFIT

    Orbital Energies [Eh]
    ---------------------

    Doubly Occupied:

       1A    -11.238052     2A    -11.234166     3A    -11.229642
       4A    -11.229009     5A    -11.228782     6A    -11.227754
       7A    -11.227408     8A    -11.225790     9A    -11.222535
      10A    -11.218505    11A     -1.180577    12A     -1.139952
      13A     -1.040883    14A     -1.006942    15A     -0.937116
      16A     -0.836710    17A     -0.828331    18A     -0.802573
      19A     -0.766114    20A     -0.689951    21A     -0.659319
      22A     -0.633905    23A     -0.628775    24A     -0.600798
      25A     -0.577205    26A     -0.573193    27A     -0.538781
      28A     -0.526511    29A     -0.494993    30A     -0.488590
      31A     -0.484460    32A     -0.471452    33A     -0.445551
      34A     -0.410660    35A     -0.331592    36A     -0.312676

  @DF-RHF Final Energy:  -385.75830869567596

   => Energetics <=

    Nuclear Repulsion Energy =            484.5246832255107847
    One-Electron Energy =               -1481.1874824379654001
    Two-Electron Energy =                 610.9044905167786510
    Total Energy =                       -385.7583086956759644
  Basis Set: (AUG-CC-PVTZ AUX)
    Blend: AUG-CC-PVTZ-RI
    Molecular point group: c1

    Geometry (in Angstrom), charge = 0, multiplicity = 1:

       Center              X                  Y                   Z               Mass
    ------------   -----------------  -----------------  -----------------  -----------------
         C           -2.129676410620    -0.004536635681    -0.512343808167    12.000000000000
         C           -3.032972410620     0.747706364319     0.430117191833    12.000000000000
         C           -2.973019110620    -0.706848235681     0.367567291833    12.000000000000
         C           -0.653027410620    -0.004536635681    -0.294200808167    12.000000000000
         C            0.059104589380     1.198454364319    -0.204915808167    12.000000000000
         C            0.059104589380    -1.207526635681    -0.204915808167    12.000000000000
         C            1.443097589380     1.196790364319    -0.030941808167    12.000000000000
         C            1.443098589380    -1.205861635681    -0.030941808167    12.000000000000
         C            2.158203589380    -0.004535635681     0.056987191833    12.000000000000
         C            3.647030589380    -0.004534635681     0.289196191833    12.000000000000
         H           -2.440560410620    -0.004539635681    -1.556696808167     1.007825032230
         H           -3.893956410620     1.265389364319     0.019369191833     1.007825032230
         H           -2.562957410620     1.248921364319     1.270342191833     1.007825032230
         H           -2.562957410620    -1.257988635681     1.270347191833     1.007825032230
         H           -3.893957410620    -1.274459635681     0.019375191833     1.007825032230
         H           -0.479940410620     2.141889364319    -0.273475808167     1.007825032230
         H           -0.479939410620    -2.150962635681    -0.273475808167     1.007825032230
         H            1.977646589380     2.143699364319     0.034377191833     1.007825032230
         H            1.977647589380    -2.152770635681     0.034377191833     1.007825032230
         H            4.114003589380    -0.889885635681    -0.151900808167     1.007825032230
         H            4.114003589380     0.880816364319    -0.151899808167     1.007825032230
         H            3.881588589380    -0.004535635681     1.359443191833     1.007825032230

  Basis Set: AUG-CC-PVTZ
    Blend: AUG-CC-PVTZ
  Basis Set: (AUG-CC-PVTZ AUX)
    Blend: AUG-CC-PVTZ-JKFIT
	 Reference Energy          =    -385.7583086956759644 [Eh]
	 Singles Energy            =      -0.0000000000000000 [Eh]
	 Same-Spin Energy          =      -0.4323179055896629 [Eh]
	 Opposite-Spin Energy      =      -1.4115348364056484 [Eh]
	 Correlation Energy        =      -1.8438527419953112 [Eh]
	 Total Energy              =    -387.6021614376712705 [Eh]

	 ================> DF-SCS-MP2 Energies <==================
	-----------------------------------------------------------
	 SCS Same-Spin Scale       =       0.3333333333333333 [-]
	 SCS Opposite-Spin Scale   =       1.2000000000000000 [-]
	 SCS Same-Spin Energy      =      -0.1441059685298876 [Eh]
	 SCS Opposite-Spin Energy  =      -1.6938418036867779 [Eh]
	 SCS Correlation Energy    =      -1.8379477722166655 [Eh]
	 SCS Total Energy          =    -387.5962564678926583 [Eh]
	-----------------------------------------------------------

  Dipole Moment: [D]
     X:     0.1109      Y:    -0.0497      Z:     0.0372     Total:     0.1271

*** Psi4 exiting successfully. Buy a developer a beer!
