                               Psi4 1.4a3.dev225

  ==> Input File <==

--------------------------------------------------------------------------
#psi4
#
memory 32 gb

molecule  {
0 1
  C       -2.1229620    -0.0000010    -0.5285820
  C       -3.0262580     0.7522420     0.4138790
  C       -3.0262580    -0.7522400     0.4138820
  C       -0.6463130    -0.0000010    -0.3104390
  C        0.0658190     1.2029900    -0.2211540
  C        0.0658190    -1.2029910    -0.2211540
  C        1.4498120     1.2013260    -0.0471800
  C        1.4498130    -1.2013260    -0.0471800
  C        2.1691974     0.0000000     0.0148008
  C        3.6537450     0.0000010     0.2729580
  H       -2.4338460    -0.0000040    -1.5729350
  H       -3.8872420     1.2699250     0.0031310
  H       -2.5562430     1.2534570     1.2541040
  H       -2.5562430    -1.2534530     1.2541090
  H       -3.8872430    -1.2699240     0.0031370
  H       -0.4732260     2.1464250    -0.2897140
  H       -0.4732250    -2.1464270    -0.2897140
  H        1.9843610     2.1482350     0.0181390
  H        1.9843620    -2.1482350     0.0181390
  H        4.1207180    -0.8853500    -0.1681390
  H        4.1207180     0.8853520    -0.1681380
  H        3.8883030     0.0000000     1.3432050
units angstrom
no_reorient  #important for SAPT in psi4, default
symmetry c1  #important for SAPT in psi4, default
}

set PROPERTIES_ORIGIN ["COM"]
properties('MP2/aug-cc-pvtz', properties = ['dipole'])
--------------------------------------------------------------------------

    Molecular point group: c1
  Charge       = 0
  Multiplicity = 1
  Basis Set: AUG-CC-PVTZ
    Blend: AUG-CC-PVTZ
  Basis Set: (AUG-CC-PVTZ AUX)
    Blend: AUG-CC-PVTZ-JKFIT

    Orbital Energies [Eh]
    ---------------------

    Doubly Occupied:

       1A    -11.237961     2A    -11.234308     3A    -11.233086
       4A    -11.229206     5A    -11.229053     6A    -11.227618
       7A    -11.227548     8A    -11.224720     9A    -11.224067
      10A    -11.222410    11A     -1.163379    12A     -1.130101
      13A     -1.039112    14A     -1.006724    15A     -0.936586
      16A     -0.833946    17A     -0.831759    18A     -0.808766
      19A     -0.765820    20A     -0.687048    21A     -0.652539
      22A     -0.633749    23A     -0.626365    24A     -0.599459
      25A     -0.576979    26A     -0.572945    27A     -0.538352
      28A     -0.528167    29A     -0.512366    30A     -0.490756
      31A     -0.483442    32A     -0.475429    33A     -0.424283
      34A     -0.412867    35A     -0.331491    36A     -0.312370

  @DF-RHF Final Energy:  -385.76913489824852

   => Energetics <=

    Nuclear Repulsion Energy =            482.5823175875159450
    One-Electron Energy =               -1477.3733513252172997
    Two-Electron Energy =                 609.0218988394527742
    Total Energy =                       -385.7691348982485806
  Basis Set: (AUG-CC-PVTZ AUX)
    Blend: AUG-CC-PVTZ-RI
    Molecular point group: c1

    Geometry (in Angstrom), charge = 0, multiplicity = 1:

       Center              X                  Y                   Z               Mass
    ------------   -----------------  -----------------  -----------------  -----------------
         C           -2.124618744838    -0.000001007630    -0.515669142636    12.000000000000
         C           -3.027914744838     0.752241992370     0.426791857364    12.000000000000
         C           -3.027914744838    -0.752240007630     0.426794857364    12.000000000000
         C           -0.647969744838    -0.000001007630    -0.297526142636    12.000000000000
         C            0.064162255162     1.202989992370    -0.208241142636    12.000000000000
         C            0.064162255162    -1.202991007630    -0.208241142636    12.000000000000
         C            1.448155255162     1.201325992370    -0.034267142636    12.000000000000
         C            1.448156255162    -1.201326007630    -0.034267142636    12.000000000000
         C            2.167540655162    -0.000000007630     0.027713657364    12.000000000000
         C            3.652088255162     0.000000992370     0.285870857364    12.000000000000
         H           -2.435502744838    -0.000004007630    -1.560022142636     1.007825032230
         H           -3.888898744838     1.269924992370     0.016043857364     1.007825032230
         H           -2.557899744838     1.253456992370     1.267016857364     1.007825032230
         H           -2.557899744838    -1.253453007630     1.267021857364     1.007825032230
         H           -3.888899744838    -1.269924007630     0.016049857364     1.007825032230
         H           -0.474882744838     2.146424992370    -0.276801142636     1.007825032230
         H           -0.474881744838    -2.146427007630    -0.276801142636     1.007825032230
         H            1.982704255162     2.148234992370     0.031051857364     1.007825032230
         H            1.982705255162    -2.148235007630     0.031051857364     1.007825032230
         H            4.119061255162    -0.885350007630    -0.155226142636     1.007825032230
         H            4.119061255162     0.885351992370    -0.155225142636     1.007825032230
         H            3.886646255162    -0.000000007630     1.356117857364     1.007825032230

  Basis Set: AUG-CC-PVTZ
    Blend: AUG-CC-PVTZ
  Basis Set: (AUG-CC-PVTZ AUX)
    Blend: AUG-CC-PVTZ-JKFIT
	 Reference Energy          =    -385.7691348982485238 [Eh]
	 Singles Energy            =      -0.0000000000000000 [Eh]
	 Same-Spin Energy          =      -0.4317361366200509 [Eh]
	 Opposite-Spin Energy      =      -1.4115544682962902 [Eh]
	 Correlation Energy        =      -1.8432906049163411 [Eh]
	 Total Energy              =    -387.6124255031648431 [Eh]

	 ================> DF-SCS-MP2 Energies <==================
	-----------------------------------------------------------
	 SCS Same-Spin Scale       =       0.3333333333333333 [-]
	 SCS Opposite-Spin Scale   =       1.2000000000000000 [-]
	 SCS Same-Spin Energy      =      -0.1439120455400170 [Eh]
	 SCS Opposite-Spin Energy  =      -1.6938653619555482 [Eh]
	 SCS Correlation Energy    =      -1.8377774074955651 [Eh]
	 SCS Total Energy          =    -387.6069123057440606 [Eh]
	-----------------------------------------------------------

  Dipole Moment: [D]
     X:     0.1027      Y:    -0.0000      Z:     0.0404     Total:     0.1104

*** Psi4 exiting successfully. Buy a developer a beer!
