                               Psi4 1.4a3.dev225

  ==> Input File <==

--------------------------------------------------------------------------
#psi4
#
memory 32 gb

molecule  {
0 1
  C       -2.1229620    -0.0000010    -0.5285820
  C       -3.0262580     0.7522420     0.4138790
  C       -3.0262580    -0.7522400     0.4138820
  C       -0.6463130    -0.0000010    -0.3104390
  C        0.0658190     1.2029900    -0.2211540
  C        0.0658190    -1.2029910    -0.2211540
  C        1.4498120     1.2013260    -0.0471800
  C        1.4498130    -1.2013260    -0.0471800
  C        2.1649180     0.0000000     0.0407490
  C        3.6043423     0.0000010     0.2652528
  H       -2.4338460    -0.0000040    -1.5729350
  H       -3.8872420     1.2699250     0.0031310
  H       -2.5562430     1.2534570     1.2541040
  H       -2.5562430    -1.2534530     1.2541090
  H       -3.8872430    -1.2699240     0.0031370
  H       -0.4732260     2.1464250    -0.2897140
  H       -0.4732250    -2.1464270    -0.2897140
  H        1.9843610     2.1482350     0.0181390
  H        1.9843620    -2.1482350     0.0181390
  H        4.1207180    -0.8853500    -0.1681390
  H        4.1207180     0.8853520    -0.1681380
  H        3.8883030     0.0000000     1.3432050
units angstrom
no_reorient  #important for SAPT in psi4, default
symmetry c1  #important for SAPT in psi4, default
}

set PROPERTIES_ORIGIN ["COM"]
properties('MP2/aug-cc-pvtz', properties = ['dipole'])
--------------------------------------------------------------------------

    Molecular point group: c1
  Charge       = 0
  Multiplicity = 1
  Basis Set: AUG-CC-PVTZ
    Blend: AUG-CC-PVTZ
  Basis Set: (AUG-CC-PVTZ AUX)
    Blend: AUG-CC-PVTZ-JKFIT

    Orbital Energies [Eh]
    ---------------------

    Doubly Occupied:

       1A    -11.235511     2A    -11.234350     3A    -11.233148
       4A    -11.229337     5A    -11.229175     6A    -11.227600
       7A    -11.227513     8A    -11.224784     9A    -11.224389
      10A    -11.224131    11A     -1.164195    12A     -1.131997
      13A     -1.044377    14A     -1.007118    15A     -0.935644
      16A     -0.834543    17A     -0.830492    18A     -0.809359
      19A     -0.766127    20A     -0.687630    21A     -0.654238
      22A     -0.634820    23A     -0.629542    24A     -0.600841
      25A     -0.577157    26A     -0.568273    27A     -0.535543
      28A     -0.529676    29A     -0.512347    30A     -0.490210
      31A     -0.481593    32A     -0.477782    33A     -0.423972
      34A     -0.412942    35A     -0.331777    36A     -0.311193

  @DF-RHF Final Energy:  -385.76622609474100

   => Energetics <=

    Nuclear Repulsion Energy =            483.4734652477964119
    One-Electron Energy =               -1479.1327303477062287
    Two-Electron Energy =                 609.8930390051688164
    Total Energy =                       -385.7662260947410005
  Basis Set: (AUG-CC-PVTZ AUX)
    Blend: AUG-CC-PVTZ-RI
    Molecular point group: c1

    Geometry (in Angstrom), charge = 0, multiplicity = 1:

       Center              X                  Y                   Z               Mass
    ------------   -----------------  -----------------  -----------------  -----------------
         C           -2.119742023066    -0.000001007630    -0.517326418251    12.000000000000
         C           -3.023038023066     0.752241992370     0.425134581749    12.000000000000
         C           -3.023038023066    -0.752240007630     0.425137581749    12.000000000000
         C           -0.643093023066    -0.000001007630    -0.299183418251    12.000000000000
         C            0.069038976934     1.202989992370    -0.209898418251    12.000000000000
         C            0.069038976934    -1.202991007630    -0.209898418251    12.000000000000
         C            1.453031976934     1.201325992370    -0.035924418251    12.000000000000
         C            1.453032976934    -1.201326007630    -0.035924418251    12.000000000000
         C            2.168137976934    -0.000000007630     0.052004581749    12.000000000000
         C            3.607562276934     0.000000992370     0.276508381749    12.000000000000
         H           -2.430626023066    -0.000004007630    -1.561679418251     1.007825032230
         H           -3.884022023066     1.269924992370     0.014386581749     1.007825032230
         H           -2.553023023066     1.253456992370     1.265359581749     1.007825032230
         H           -2.553023023066    -1.253453007630     1.265364581749     1.007825032230
         H           -3.884023023066    -1.269924007630     0.014392581749     1.007825032230
         H           -0.470006023066     2.146424992370    -0.278458418251     1.007825032230
         H           -0.470005023066    -2.146427007630    -0.278458418251     1.007825032230
         H            1.987580976934     2.148234992370     0.029394581749     1.007825032230
         H            1.987581976934    -2.148235007630     0.029394581749     1.007825032230
         H            4.123937976934    -0.885350007630    -0.156883418251     1.007825032230
         H            4.123937976934     0.885351992370    -0.156882418251     1.007825032230
         H            3.891522976934    -0.000000007630     1.354460581749     1.007825032230

  Basis Set: AUG-CC-PVTZ
    Blend: AUG-CC-PVTZ
  Basis Set: (AUG-CC-PVTZ AUX)
    Blend: AUG-CC-PVTZ-JKFIT
	 Reference Energy          =    -385.7662260947410005 [Eh]
	 Singles Energy            =      -0.0000000000000000 [Eh]
	 Same-Spin Energy          =      -0.4322341734692871 [Eh]
	 Opposite-Spin Energy      =      -1.4120275837726399 [Eh]
	 Correlation Energy        =      -1.8442617572419271 [Eh]
	 Total Energy              =    -387.6104878519829526 [Eh]

	 ================> DF-SCS-MP2 Energies <==================
	-----------------------------------------------------------
	 SCS Same-Spin Scale       =       0.3333333333333333 [-]
	 SCS Opposite-Spin Scale   =       1.2000000000000000 [-]
	 SCS Same-Spin Energy      =      -0.1440780578230957 [Eh]
	 SCS Opposite-Spin Energy  =      -1.6944331005271678 [Eh]
	 SCS Correlation Energy    =      -1.8385111583502636 [Eh]
	 SCS Total Energy          =    -387.6047372530912867 [Eh]
	-----------------------------------------------------------

  Dipole Moment: [D]
     X:     0.1138      Y:    -0.0000      Z:     0.0306     Total:     0.1178

*** Psi4 exiting successfully. Buy a developer a beer!
