                               Psi4 1.4a3.dev225

  ==> Input File <==

--------------------------------------------------------------------------
#psi4
#
memory 32 gb

molecule  {
0 1
  C       -2.1229620    -0.0000010    -0.5285820
  C       -3.0736472     0.7513255     0.3912713
  C       -3.0262580    -0.7522400     0.4138820
  C       -0.6463130    -0.0000010    -0.3104390
  C        0.0658190     1.2029900    -0.2211540
  C        0.0658190    -1.2029910    -0.2211540
  C        1.4498120     1.2013260    -0.0471800
  C        1.4498130    -1.2013260    -0.0471800
  C        2.1649180     0.0000000     0.0407490
  C        3.6537450     0.0000010     0.2729580
  H       -2.4338460    -0.0000040    -1.5729350
  H       -3.8872420     1.2699250     0.0031310
  H       -2.5562430     1.2534570     1.2541040
  H       -2.5562430    -1.2534530     1.2541090
  H       -3.8872430    -1.2699240     0.0031370
  H       -0.4732260     2.1464250    -0.2897140
  H       -0.4732250    -2.1464270    -0.2897140
  H        1.9843610     2.1482350     0.0181390
  H        1.9843620    -2.1482350     0.0181390
  H        4.1207180    -0.8853500    -0.1681390
  H        4.1207180     0.8853520    -0.1681380
  H        3.8883030     0.0000000     1.3432050
units angstrom
no_reorient  #important for SAPT in psi4, default
symmetry c1  #important for SAPT in psi4, default
}

set PROPERTIES_ORIGIN ["COM"]
properties('MP2/aug-cc-pvtz', properties = ['dipole'])
--------------------------------------------------------------------------

    Molecular point group: c1
  Charge       = 0
  Multiplicity = 1
  Basis Set: AUG-CC-PVTZ
    Blend: AUG-CC-PVTZ
  Basis Set: (AUG-CC-PVTZ AUX)
    Blend: AUG-CC-PVTZ-JKFIT

    Orbital Energies [Eh]
    ---------------------

    Doubly Occupied:

       1A    -11.238083     2A    -11.234696     3A    -11.233424
       4A    -11.229511     5A    -11.229115     6A    -11.227665
       7A    -11.227428     8A    -11.225404     9A    -11.224498
      10A    -11.222538    11A     -1.162098    12A     -1.129000
      13A     -1.039413    14A     -1.006864    15A     -0.937029
      16A     -0.834410    17A     -0.831946    18A     -0.810090
      19A     -0.765398    20A     -0.685235    21A     -0.656659
      22A     -0.633967    23A     -0.626435    24A     -0.596893
      25A     -0.577173    26A     -0.573251    27A     -0.538708
      28A     -0.528454    29A     -0.512763    30A     -0.490071
      31A     -0.483652    32A     -0.476487    33A     -0.425485
      34A     -0.408943    35A     -0.331599    36A     -0.312423

  @DF-RHF Final Energy:  -385.76619038924230

   => Energetics <=

    Nuclear Repulsion Energy =            482.1445165553581660
    One-Electron Energy =               -1476.4877936670170584
    Two-Electron Energy =                 608.5770867224165386
    Total Energy =                       -385.7661903892422970
  Basis Set: (AUG-CC-PVTZ AUX)
    Blend: AUG-CC-PVTZ-RI
    Molecular point group: c1

    Geometry (in Angstrom), charge = 0, multiplicity = 1:

       Center              X                  Y                   Z               Mass
    ------------   -----------------  -----------------  -----------------  -----------------
         C           -2.119924938401     0.000082251325    -0.515972608578    12.000000000000
         C           -3.070610138401     0.751408751325     0.403880691422    12.000000000000
         C           -3.023220938401    -0.752156748675     0.426491391422    12.000000000000
         C           -0.643275938401     0.000082251325    -0.297829608578    12.000000000000
         C            0.068856061599     1.203073251325    -0.208544608578    12.000000000000
         C            0.068856061599    -1.202907748675    -0.208544608578    12.000000000000
         C            1.452849061599     1.201409251325    -0.034570608578    12.000000000000
         C            1.452850061599    -1.201242748675    -0.034570608578    12.000000000000
         C            2.167955061599     0.000083251325     0.053358391422    12.000000000000
         C            3.656782061599     0.000084251325     0.285567391422    12.000000000000
         H           -2.430808938401     0.000079251325    -1.560325608578     1.007825032230
         H           -3.884204938401     1.270008251325     0.015740391422     1.007825032230
         H           -2.553205938401     1.253540251325     1.266713391422     1.007825032230
         H           -2.553205938401    -1.253369748675     1.266718391422     1.007825032230
         H           -3.884205938401    -1.269840748675     0.015746391422     1.007825032230
         H           -0.470188938401     2.146508251325    -0.277104608578     1.007825032230
         H           -0.470187938401    -2.146343748675    -0.277104608578     1.007825032230
         H            1.987398061599     2.148318251325     0.030748391422     1.007825032230
         H            1.987399061599    -2.148151748675     0.030748391422     1.007825032230
         H            4.123755061599    -0.885266748675    -0.155529608578     1.007825032230
         H            4.123755061599     0.885435251325    -0.155528608578     1.007825032230
         H            3.891340061599     0.000083251325     1.355814391422     1.007825032230

  Basis Set: AUG-CC-PVTZ
    Blend: AUG-CC-PVTZ
  Basis Set: (AUG-CC-PVTZ AUX)
    Blend: AUG-CC-PVTZ-JKFIT
	 Reference Energy          =    -385.7661903892422970 [Eh]
	 Singles Energy            =      -0.0000000000000000 [Eh]
	 Same-Spin Energy          =      -0.4317262817822254 [Eh]
	 Opposite-Spin Energy      =      -1.4116891358417440 [Eh]
	 Correlation Energy        =      -1.8434154176239694 [Eh]
	 Total Energy              =    -387.6096058068662842 [Eh]

	 ================> DF-SCS-MP2 Energies <==================
	-----------------------------------------------------------
	 SCS Same-Spin Scale       =       0.3333333333333333 [-]
	 SCS Opposite-Spin Scale   =       1.2000000000000000 [-]
	 SCS Same-Spin Energy      =      -0.1439087605940751 [Eh]
	 SCS Opposite-Spin Energy  =      -1.6940269630100928 [Eh]
	 SCS Correlation Energy    =      -1.8379357236041680 [Eh]
	 SCS Total Energy          =    -387.6041261128464726 [Eh]
	-----------------------------------------------------------

  Dipole Moment: [D]
     X:     0.1181      Y:    -0.0035      Z:     0.0161     Total:     0.1193

*** Psi4 exiting successfully. Buy a developer a beer!
