                               Psi4 1.4a3.dev225

  ==> Input File <==

--------------------------------------------------------------------------
#psi4
#
memory 32 gb

molecule  {
0 1
  C       -2.1229620    -0.0000010    -0.5285820
  C       -3.0262580     0.7522420     0.4138790
  C       -3.0262580    -0.7522400     0.4138820
  C       -0.6463130    -0.0000010    -0.3104390
  C        0.0658190     1.2029900    -0.2211540
  C        0.0658190    -1.2029910    -0.2211540
  C        1.4498120     1.2013260    -0.0471800
  C        1.4465671    -1.2986323    -0.0476706
  C        2.1649180     0.0000000     0.0407490
  C        3.6537450     0.0000010     0.2729580
  H       -2.4338460    -0.0000040    -1.5729350
  H       -3.8872420     1.2699250     0.0031310
  H       -2.5562430     1.2534570     1.2541040
  H       -2.5562430    -1.2534530     1.2541090
  H       -3.8872430    -1.2699240     0.0031370
  H       -0.4732260     2.1464250    -0.2897140
  H       -0.4732250    -2.1464270    -0.2897140
  H        1.9843610     2.1482350     0.0181390
  H        1.9843620    -2.1482350     0.0181390
  H        4.1207180    -0.8853500    -0.1681390
  H        4.1207180     0.8853520    -0.1681380
  H        3.8883030     0.0000000     1.3432050
units angstrom
no_reorient  #important for SAPT in psi4, default
symmetry c1  #important for SAPT in psi4, default
}

set PROPERTIES_ORIGIN ["COM"]
properties('MP2/aug-cc-pvtz', properties = ['dipole'])
--------------------------------------------------------------------------

    Molecular point group: c1
  Charge       = 0
  Multiplicity = 1
  Basis Set: AUG-CC-PVTZ
    Blend: AUG-CC-PVTZ
  Basis Set: (AUG-CC-PVTZ AUX)
    Blend: AUG-CC-PVTZ-JKFIT

    Orbital Energies [Eh]
    ---------------------

    Doubly Occupied:

       1A    -11.247445     2A    -11.234034     3A    -11.233081
       4A    -11.231024     5A    -11.230724     6A    -11.229610
       7A    -11.226767     8A    -11.224438     9A    -11.223748
      10A    -11.222198    11A     -1.160540    12A     -1.124658
      13A     -1.035531    14A     -1.009333    15A     -0.935376
      16A     -0.836360    17A     -0.826721    18A     -0.809558
      19A     -0.766726    20A     -0.689360    21A     -0.651796
      22A     -0.638165    23A     -0.626183    24A     -0.603599
      25A     -0.582154    26A     -0.571541    27A     -0.541381
      28A     -0.524651    29A     -0.512136    30A     -0.492416
      31A     -0.481351    32A     -0.466849    33A     -0.423129
      34A     -0.413294    35A     -0.333797    36A     -0.305342

  @DF-RHF Final Energy:  -385.75646520884294

   => Energetics <=

    Nuclear Repulsion Energy =            481.1305871215068919
    One-Electron Energy =               -1474.4440704717590052
    Two-Electron Energy =                 607.5570181414092303
    Total Energy =                       -385.7564652088428829
  Basis Set: (AUG-CC-PVTZ AUX)
    Blend: AUG-CC-PVTZ-RI
    Molecular point group: c1

    Geometry (in Angstrom), charge = 0, multiplicity = 1:

       Center              X                  Y                   Z               Mass
    ------------   -----------------  -----------------  -----------------  -----------------
         C           -2.123935112969     0.008838731348    -0.517981824744    12.000000000000
         C           -3.027231112969     0.761081731348     0.424479175256    12.000000000000
         C           -3.027231112969    -0.743400268652     0.424482175256    12.000000000000
         C           -0.647286112969     0.008838731348    -0.299838824744    12.000000000000
         C            0.064845887031     1.211829731348    -0.210553824744    12.000000000000
         C            0.064845887031    -1.194151268652    -0.210553824744    12.000000000000
         C            1.448838887031     1.210165731348    -0.036579824744    12.000000000000
         C            1.445593987031    -1.289792568652    -0.037070424744    12.000000000000
         C            2.163944887031     0.008839731348     0.051349175256    12.000000000000
         C            3.652771887031     0.008840731348     0.283558175256    12.000000000000
         H           -2.434819112969     0.008835731348    -1.562334824744     1.007825032230
         H           -3.888215112969     1.278764731348     0.013731175256     1.007825032230
         H           -2.557216112969     1.262296731348     1.264704175256     1.007825032230
         H           -2.557216112969    -1.244613268652     1.264709175256     1.007825032230
         H           -3.888216112969    -1.261084268652     0.013737175256     1.007825032230
         H           -0.474199112969     2.155264731348    -0.279113824744     1.007825032230
         H           -0.474198112969    -2.137587268652    -0.279113824744     1.007825032230
         H            1.983387887031     2.157074731348     0.028739175256     1.007825032230
         H            1.983388887031    -2.139395268652     0.028739175256     1.007825032230
         H            4.119744887031    -0.876510268652    -0.157538824744     1.007825032230
         H            4.119744887031     0.894191731348    -0.157537824744     1.007825032230
         H            3.887329887031     0.008839731348     1.353805175256     1.007825032230

  Basis Set: AUG-CC-PVTZ
    Blend: AUG-CC-PVTZ
  Basis Set: (AUG-CC-PVTZ AUX)
    Blend: AUG-CC-PVTZ-JKFIT
	 Reference Energy          =    -385.7564652088429398 [Eh]
	 Singles Energy            =      -0.0000000000000000 [Eh]
	 Same-Spin Energy          =      -0.4317205188594527 [Eh]
	 Opposite-Spin Energy      =      -1.4125348422033634 [Eh]
	 Correlation Energy        =      -1.8442553610628161 [Eh]
	 Total Energy              =    -387.6007205699057749 [Eh]

	 ================> DF-SCS-MP2 Energies <==================
	-----------------------------------------------------------
	 SCS Same-Spin Scale       =       0.3333333333333333 [-]
	 SCS Opposite-Spin Scale   =       1.2000000000000000 [-]
	 SCS Same-Spin Energy      =      -0.1439068396198175 [Eh]
	 SCS Opposite-Spin Energy  =      -1.6950418106440361 [Eh]
	 SCS Correlation Energy    =      -1.8389486502638537 [Eh]
	 SCS Total Energy          =    -387.5954138591067704 [Eh]
	-----------------------------------------------------------

  Dipole Moment: [D]
     X:     0.1377      Y:    -0.0126      Z:     0.0397     Total:     0.1439

*** Psi4 exiting successfully. Buy a developer a beer!
