                               Psi4 1.4a3.dev225

  ==> Input File <==

--------------------------------------------------------------------------
#psi4
#
memory 32 gb

molecule  {
0 1
  C       -2.1229620    -0.0000010    -0.5285820
  C       -3.0262580     0.7522420     0.4138790
  C       -3.0103416    -0.7458997     0.4338306
  C       -0.6463130    -0.0000010    -0.3104390
  C        0.0658190     1.2029900    -0.2211540
  C        0.0658190    -1.2029910    -0.2211540
  C        1.4498120     1.2013260    -0.0471800
  C        1.4498130    -1.2013260    -0.0471800
  C        2.1649180     0.0000000     0.0407490
  C        3.6537450     0.0000010     0.2729580
  H       -2.4338460    -0.0000040    -1.5729350
  H       -3.8872420     1.2699250     0.0031310
  H       -2.5562430     1.2534570     1.2541040
  H       -2.5562430    -1.2534530     1.2541090
  H       -3.8872430    -1.2699240     0.0031370
  H       -0.4732260     2.1464250    -0.2897140
  H       -0.4732250    -2.1464270    -0.2897140
  H        1.9843610     2.1482350     0.0181390
  H        1.9843620    -2.1482350     0.0181390
  H        4.1207180    -0.8853500    -0.1681390
  H        4.1207180     0.8853520    -0.1681380
  H        3.8883030     0.0000000     1.3432050
units angstrom
no_reorient  #important for SAPT in psi4, default
symmetry c1  #important for SAPT in psi4, default
}

set PROPERTIES_ORIGIN ["COM"]
properties('MP2/aug-cc-pvtz', properties = ['dipole'])
--------------------------------------------------------------------------

    Molecular point group: c1
  Charge       = 0
  Multiplicity = 1
  Basis Set: AUG-CC-PVTZ
    Blend: AUG-CC-PVTZ
  Basis Set: (AUG-CC-PVTZ AUX)
    Blend: AUG-CC-PVTZ-JKFIT

    Orbital Energies [Eh]
    ---------------------

    Doubly Occupied:

       1A    -11.237829     2A    -11.233824     3A    -11.232729
       4A    -11.229047     5A    -11.228832     6A    -11.227390
       7A    -11.227271     8A    -11.224695     9A    -11.224008
      10A    -11.222405    11A     -1.163854    12A     -1.130663
      13A     -1.039083    14A     -1.006649    15A     -0.936593
      16A     -0.833897    17A     -0.831896    18A     -0.808488
      19A     -0.766092    20A     -0.687586    21A     -0.650660
      22A     -0.633569    23A     -0.626571    24A     -0.601105
      25A     -0.576944    26A     -0.573085    27A     -0.538297
      28A     -0.528575    29A     -0.511489    30A     -0.489652
      31A     -0.483577    32A     -0.476039    33A     -0.426008
      34A     -0.411529    35A     -0.331422    36A     -0.312245

  @DF-RHF Final Energy:  -385.76869830953854

   => Energetics <=

    Nuclear Repulsion Energy =            482.7836194639122596
    One-Electron Energy =               -1477.7774402847026067
    Two-Electron Energy =                 609.2251225112518114
    Total Energy =                       -385.7686983095385358
  Basis Set: (AUG-CC-PVTZ AUX)
    Blend: AUG-CC-PVTZ-RI
    Molecular point group: c1

    Geometry (in Angstrom), charge = 0, multiplicity = 1:

       Center              X                  Y                   Z               Mass
    ------------   -----------------  -----------------  -----------------  -----------------
         C           -2.125675901903    -0.000576988805    -0.519838612977    12.000000000000
         C           -3.028971901903     0.751666011195     0.422622387023    12.000000000000
         C           -3.013055501903    -0.746475688805     0.442573987023    12.000000000000
         C           -0.649026901903    -0.000576988805    -0.301695612977    12.000000000000
         C            0.063105098097     1.202414011195    -0.212410612977    12.000000000000
         C            0.063105098097    -1.203566988805    -0.212410612977    12.000000000000
         C            1.447098098097     1.200750011195    -0.038436612977    12.000000000000
         C            1.447099098097    -1.201901988805    -0.038436612977    12.000000000000
         C            2.162204098097    -0.000575988805     0.049492387023    12.000000000000
         C            3.651031098097    -0.000574988805     0.281701387023    12.000000000000
         H           -2.436559901903    -0.000579988805    -1.564191612977     1.007825032230
         H           -3.889955901903     1.269349011195     0.011874387023     1.007825032230
         H           -2.558956901903     1.252881011195     1.262847387023     1.007825032230
         H           -2.558956901903    -1.254028988805     1.262852387023     1.007825032230
         H           -3.889956901903    -1.270499988805     0.011880387023     1.007825032230
         H           -0.475939901903     2.145849011195    -0.280970612977     1.007825032230
         H           -0.475938901903    -2.147002988805    -0.280970612977     1.007825032230
         H            1.981647098097     2.147659011195     0.026882387023     1.007825032230
         H            1.981648098097    -2.148810988805     0.026882387023     1.007825032230
         H            4.118004098097    -0.885925988805    -0.159395612977     1.007825032230
         H            4.118004098097     0.884776011195    -0.159394612977     1.007825032230
         H            3.885589098097    -0.000575988805     1.351948387023     1.007825032230

  Basis Set: AUG-CC-PVTZ
    Blend: AUG-CC-PVTZ
  Basis Set: (AUG-CC-PVTZ AUX)
    Blend: AUG-CC-PVTZ-JKFIT
	 Reference Energy          =    -385.7686983095385358 [Eh]
	 Singles Energy            =      -0.0000000000000000 [Eh]
	 Same-Spin Energy          =      -0.4317329978706637 [Eh]
	 Opposite-Spin Energy      =      -1.4115088049114726 [Eh]
	 Correlation Energy        =      -1.8432418027821362 [Eh]
	 Total Energy              =    -387.6119401123206671 [Eh]

	 ================> DF-SCS-MP2 Energies <==================
	-----------------------------------------------------------
	 SCS Same-Spin Scale       =       0.3333333333333333 [-]
	 SCS Opposite-Spin Scale   =       1.2000000000000000 [-]
	 SCS Same-Spin Energy      =      -0.1439109992902212 [Eh]
	 SCS Opposite-Spin Energy  =      -1.6938105658937670 [Eh]
	 SCS Correlation Energy    =      -1.8377215651839882 [Eh]
	 SCS Total Energy          =    -387.6064198747225191 [Eh]
	-----------------------------------------------------------

  Dipole Moment: [D]
     X:     0.1157      Y:     0.0061      Z:     0.0375     Total:     0.1217

*** Psi4 exiting successfully. Buy a developer a beer!
