                               Psi4 1.4a3.dev225

  ==> Input File <==

--------------------------------------------------------------------------
#psi4
#
memory 32 gb

molecule  {
0 1
  C       -2.1229620    -0.0000010    -0.5285820
  C       -3.0262580     0.7522420     0.4138790
  C       -3.0262580    -0.7522400     0.4138820
  C       -0.6463130    -0.0000010    -0.3104390
  C        0.0658190     1.2029900    -0.2211540
  C        0.0658190    -1.2029910    -0.2211540
  C        1.4498120     1.2013260    -0.0471800
  C        1.4498130    -1.2013260    -0.0471800
  C        2.1649180     0.0000000     0.0407490
  C        3.6537450     0.0000010     0.2729580
  H       -2.4338460    -0.0000040    -1.5729350
  H       -3.8872420     1.2699250     0.0031310
  H       -2.5562430     1.2534570     1.2541040
  H       -2.5562430    -1.2534530     1.2541090
  H       -3.8872430    -1.2699240     0.0031370
  H       -0.4732260     2.1464250    -0.2897140
  H       -0.4732250    -2.1464270    -0.2897140
  H        1.9843610     2.1482350     0.0181390
  H        2.0334332    -2.2351606     0.0241352
  H        4.1207180    -0.8853500    -0.1681390
  H        4.1207180     0.8853520    -0.1681380
  H        3.8883030     0.0000000     1.3432050
units angstrom
no_reorient  #important for SAPT in psi4, default
symmetry c1  #important for SAPT in psi4, default
}

set PROPERTIES_ORIGIN ["COM"]
properties('MP2/aug-cc-pvtz', properties = ['dipole'])
--------------------------------------------------------------------------

    Molecular point group: c1
  Charge       = 0
  Multiplicity = 1
  Basis Set: AUG-CC-PVTZ
    Blend: AUG-CC-PVTZ
  Basis Set: (AUG-CC-PVTZ AUX)
    Blend: AUG-CC-PVTZ-JKFIT

    Orbital Energies [Eh]
    ---------------------

    Doubly Occupied:

       1A    -11.239772     2A    -11.238582     3A    -11.234938
       4A    -11.233501     5A    -11.229942     6A    -11.229677
       7A    -11.228266     8A    -11.225010     9A    -11.224356
      10A    -11.222405    11A     -1.163803    12A     -1.130319
      13A     -1.039447    14A     -1.005080    15A     -0.936321
      16A     -0.832465    17A     -0.832275    18A     -0.807343
      19A     -0.763151    20A     -0.684887    21A     -0.652698
      22A     -0.634405    23A     -0.623267    24A     -0.596006
      25A     -0.573322    26A     -0.571089    27A     -0.535910
      28A     -0.528947    29A     -0.512595    30A     -0.490311
      31A     -0.481209    32A     -0.475410    33A     -0.424619
      34A     -0.413023    35A     -0.332218    36A     -0.312975

  @DF-RHF Final Energy:  -385.76219809305741

   => Energetics <=

    Nuclear Repulsion Energy =            482.1313188978559197
    One-Electron Energy =               -1476.4679486504878696
    Two-Electron Energy =                 608.5744316595746568
    Total Energy =                       -385.7621980930573500
  Basis Set: (AUG-CC-PVTZ AUX)
    Blend: AUG-CC-PVTZ-RI
    Molecular point group: c1

    Geometry (in Angstrom), charge = 0, multiplicity = 1:

       Center              X                  Y                   Z               Mass
    ------------   -----------------  -----------------  -----------------  -----------------
         C           -2.124604379176     0.000662200856    -0.518072141711    12.000000000000
         C           -3.027900379176     0.752905200856     0.424388858289    12.000000000000
         C           -3.027900379176    -0.751576799144     0.424391858289    12.000000000000
         C           -0.647955379176     0.000662200856    -0.299929141711    12.000000000000
         C            0.064176620824     1.203653200856    -0.210644141711    12.000000000000
         C            0.064176620824    -1.202327799144    -0.210644141711    12.000000000000
         C            1.448169620824     1.201989200856    -0.036670141711    12.000000000000
         C            1.448170620824    -1.200662799144    -0.036670141711    12.000000000000
         C            2.163275620824     0.000663200856     0.051258858289    12.000000000000
         C            3.652102620824     0.000664200856     0.283467858289    12.000000000000
         H           -2.435488379176     0.000659200856    -1.562425141711     1.007825032230
         H           -3.888884379176     1.270588200856     0.013640858289     1.007825032230
         H           -2.557885379176     1.254120200856     1.264613858289     1.007825032230
         H           -2.557885379176    -1.252789799144     1.264618858289     1.007825032230
         H           -3.888885379176    -1.269260799144     0.013646858289     1.007825032230
         H           -0.474868379176     2.147088200856    -0.279204141711     1.007825032230
         H           -0.474867379176    -2.145763799144    -0.279204141711     1.007825032230
         H            1.982718620824     2.148898200856     0.028648858289     1.007825032230
         H            2.031790820824    -2.234497399144     0.034645058289     1.007825032230
         H            4.119075620824    -0.884686799144    -0.157629141711     1.007825032230
         H            4.119075620824     0.886015200856    -0.157628141711     1.007825032230
         H            3.886660620824     0.000663200856     1.353714858289     1.007825032230

  Basis Set: AUG-CC-PVTZ
    Blend: AUG-CC-PVTZ
  Basis Set: (AUG-CC-PVTZ AUX)
    Blend: AUG-CC-PVTZ-JKFIT
	 Reference Energy          =    -385.7621980930574068 [Eh]
	 Singles Energy            =      -0.0000000000000000 [Eh]
	 Same-Spin Energy          =      -0.4319583243592535 [Eh]
	 Opposite-Spin Energy      =      -1.4124551923791202 [Eh]
	 Correlation Energy        =      -1.8444135167383737 [Eh]
	 Total Energy              =    -387.6066116097957774 [Eh]

	 ================> DF-SCS-MP2 Energies <==================
	-----------------------------------------------------------
	 SCS Same-Spin Scale       =       0.3333333333333333 [-]
	 SCS Opposite-Spin Scale   =       1.2000000000000000 [-]
	 SCS Same-Spin Energy      =      -0.1439861081197512 [Eh]
	 SCS Opposite-Spin Energy  =      -1.6949462308549441 [Eh]
	 SCS Correlation Energy    =      -1.8389323389746952 [Eh]
	 SCS Total Energy          =    -387.6011304320321074 [Eh]
	-----------------------------------------------------------

  Dipole Moment: [D]
     X:     0.0770      Y:     0.0471      Z:     0.0276     Total:     0.0944

*** Psi4 exiting successfully. Buy a developer a beer!
