                               Psi4 1.4a3.dev225

  ==> Input File <==

--------------------------------------------------------------------------
#psi4
#
memory 32 gb

molecule  {
0 1
  C       -2.1229620    -0.0000010    -0.5285820
  C       -3.0262580     0.7522420     0.4138790
  C       -3.0262580    -0.7522400     0.4138820
  C       -0.6463130    -0.0000010    -0.3104390
  C        0.0658190     1.2029900    -0.2211540
  C        0.0658190    -1.2029910    -0.2211540
  C        1.4498120     1.2013260    -0.0471800
  C        1.4498130    -1.2013260    -0.0471800
  C        2.1649180     0.0000000     0.0407490
  C        3.6537450     0.0000010     0.2729580
  H       -2.4338460    -0.0000040    -1.5729350
  H       -3.8713766     1.2603856     0.0106999
  H       -2.5562430     1.2534570     1.2541040
  H       -2.5562430    -1.2534530     1.2541090
  H       -3.8872430    -1.2699240     0.0031370
  H       -0.4732260     2.1464250    -0.2897140
  H       -0.4732250    -2.1464270    -0.2897140
  H        1.9843610     2.1482350     0.0181390
  H        1.9843620    -2.1482350     0.0181390
  H        4.1207180    -0.8853500    -0.1681390
  H        4.1207180     0.8853520    -0.1681380
  H        3.8883030     0.0000000     1.3432050
units angstrom
no_reorient  #important for SAPT in psi4, default
symmetry c1  #important for SAPT in psi4, default
}

set PROPERTIES_ORIGIN ["COM"]
properties('MP2/aug-cc-pvtz', properties = ['dipole'])
--------------------------------------------------------------------------

    Molecular point group: c1
  Charge       = 0
  Multiplicity = 1
  Basis Set: AUG-CC-PVTZ
    Blend: AUG-CC-PVTZ
  Basis Set: (AUG-CC-PVTZ AUX)
    Blend: AUG-CC-PVTZ-JKFIT

    Orbital Energies [Eh]
    ---------------------

    Doubly Occupied:

       1A    -11.237857     2A    -11.234028     3A    -11.232859
       4A    -11.229090     5A    -11.228931     6A    -11.227393
       7A    -11.227323     8A    -11.224230     9A    -11.222412
      10A    -11.221932    11A     -1.163371    12A     -1.130239
      13A     -1.039137    14A     -1.006673    15A     -0.936684
      16A     -0.834804    17A     -0.831891    18A     -0.809799
      19A     -0.765832    20A     -0.687188    21A     -0.654046
      22A     -0.633737    23A     -0.626436    24A     -0.599275
      25A     -0.576979    26A     -0.573108    27A     -0.538442
      28A     -0.528727    29A     -0.513766    30A     -0.489779
      31A     -0.483641    32A     -0.476199    33A     -0.424166
      34A     -0.412842    35A     -0.331434    36A     -0.312193

  @DF-RHF Final Energy:  -385.76960377713607

   => Energetics <=

    Nuclear Repulsion Energy =            482.7187025603759025
    One-Electron Energy =               -1477.6437197180966905
    Two-Electron Energy =                 609.1554133805846050
    Total Energy =                       -385.7696037771361262
  Basis Set: (AUG-CC-PVTZ AUX)
    Blend: AUG-CC-PVTZ-RI
    Molecular point group: c1

    Geometry (in Angstrom), charge = 0, multiplicity = 1:

       Center              X                  Y                   Z               Mass
    ------------   -----------------  -----------------  -----------------  -----------------
         C           -2.124351031850     0.000071774278    -0.518084140799    12.000000000000
         C           -3.027647031850     0.752314774278     0.424376859201    12.000000000000
         C           -3.027647031850    -0.752167225722     0.424379859201    12.000000000000
         C           -0.647702031850     0.000071774278    -0.299941140799    12.000000000000
         C            0.064429968150     1.203062774278    -0.210656140799    12.000000000000
         C            0.064429968150    -1.202918225722    -0.210656140799    12.000000000000
         C            1.448422968150     1.201398774278    -0.036682140799    12.000000000000
         C            1.448423968150    -1.201253225722    -0.036682140799    12.000000000000
         C            2.163528968150     0.000072774278     0.051246859201    12.000000000000
         C            3.652355968150     0.000073774278     0.283455859201    12.000000000000
         H           -2.435235031850     0.000068774278    -1.562437140799     1.007825032230
         H           -3.872765631850     1.260458374278     0.021197759201     1.007825032230
         H           -2.557632031850     1.253529774278     1.264601859201     1.007825032230
         H           -2.557632031850    -1.253380225722     1.264606859201     1.007825032230
         H           -3.888632031850    -1.269851225722     0.013634859201     1.007825032230
         H           -0.474615031850     2.146497774278    -0.279216140799     1.007825032230
         H           -0.474614031850    -2.146354225722    -0.279216140799     1.007825032230
         H            1.982971968150     2.148307774278     0.028636859201     1.007825032230
         H            1.982972968150    -2.148162225722     0.028636859201     1.007825032230
         H            4.119328968150    -0.885277225722    -0.157641140799     1.007825032230
         H            4.119328968150     0.885424774278    -0.157640140799     1.007825032230
         H            3.886913968150     0.000072774278     1.353702859201     1.007825032230

  Basis Set: AUG-CC-PVTZ
    Blend: AUG-CC-PVTZ
  Basis Set: (AUG-CC-PVTZ AUX)
    Blend: AUG-CC-PVTZ-JKFIT
	 Reference Energy          =    -385.7696037771360693 [Eh]
	 Singles Energy            =      -0.0000000000000000 [Eh]
	 Same-Spin Energy          =      -0.4317081722167801 [Eh]
	 Opposite-Spin Energy      =      -1.4113796391490050 [Eh]
	 Correlation Energy        =      -1.8430878113657851 [Eh]
	 Total Energy              =    -387.6126915885018320 [Eh]

	 ================> DF-SCS-MP2 Energies <==================
	-----------------------------------------------------------
	 SCS Same-Spin Scale       =       0.3333333333333333 [-]
	 SCS Opposite-Spin Scale   =       1.2000000000000000 [-]
	 SCS Same-Spin Energy      =      -0.1439027240722600 [Eh]
	 SCS Opposite-Spin Energy  =      -1.6936555669788060 [Eh]
	 SCS Correlation Energy    =      -1.8375582910510662 [Eh]
	 SCS Total Energy          =    -387.6071620681871082 [Eh]
	-----------------------------------------------------------

  Dipole Moment: [D]
     X:     0.1073      Y:     0.0060      Z:     0.0292     Total:     0.1114

*** Psi4 exiting successfully. Buy a developer a beer!
