                               Psi4 1.4a3.dev225

  ==> Input File <==

--------------------------------------------------------------------------
#psi4
#
memory 32 gb

molecule  {
0 1
  C       -2.1229620    -0.0000010    -0.5285820
  C       -3.0262580     0.7522420     0.4138790
  C       -3.0262580    -0.7522400     0.4138820
  C       -0.6670354     0.0127079    -0.3130464
  C        0.0658190     1.2029900    -0.2211540
  C        0.0658190    -1.2029910    -0.2211540
  C        1.4498120     1.2013260    -0.0471800
  C        1.4498130    -1.2013260    -0.0471800
  C        2.1649180     0.0000000     0.0407490
  C        3.6537450     0.0000010     0.2729580
  H       -2.4338460    -0.0000040    -1.5729350
  H       -3.8872420     1.2699250     0.0031310
  H       -2.5562430     1.2534570     1.2541040
  H       -2.5562430    -1.2534530     1.2541090
  H       -3.8872430    -1.2699240     0.0031370
  H       -0.4732260     2.1464250    -0.2897140
  H       -0.4732250    -2.1464270    -0.2897140
  H        1.9843610     2.1482350     0.0181390
  H        1.9843620    -2.1482350     0.0181390
  H        4.1207180    -0.8853500    -0.1681390
  H        4.1207180     0.8853520    -0.1681380
  H        3.8883030     0.0000000     1.3432050
units angstrom
no_reorient  #important for SAPT in psi4, default
symmetry c1  #important for SAPT in psi4, default
}

set PROPERTIES_ORIGIN ["COM"]
properties('MP2/aug-cc-pvtz', properties = ['dipole'])
--------------------------------------------------------------------------

    Molecular point group: c1
  Charge       = 0
  Multiplicity = 1
  Basis Set: AUG-CC-PVTZ
    Blend: AUG-CC-PVTZ
  Basis Set: (AUG-CC-PVTZ AUX)
    Blend: AUG-CC-PVTZ-JKFIT

    Orbital Energies [Eh]
    ---------------------

    Doubly Occupied:

       1A    -11.238156     2A    -11.235146     3A    -11.232499
       4A    -11.231119     5A    -11.229017     6A    -11.227522
       7A    -11.227252     8A    -11.225255     9A    -11.224450
      10A    -11.222491    11A     -1.163684    12A     -1.130059
      13A     -1.038212    14A     -1.005557    15A     -0.937879
      16A     -0.834606    17A     -0.833676    18A     -0.808156
      19A     -0.765072    20A     -0.687822    21A     -0.653029
      22A     -0.633040    23A     -0.626889    24A     -0.599874
      25A     -0.575203    26A     -0.573101    27A     -0.538276
      28A     -0.529708    29A     -0.512749    30A     -0.489606
      31A     -0.482368    32A     -0.478114    33A     -0.425355
      34A     -0.412097    35A     -0.331199    36A     -0.310446

  @DF-RHF Final Energy:  -385.76819655233930

   => Energetics <=

    Nuclear Repulsion Energy =            482.5234939301799386
    One-Electron Energy =               -1477.2460160117880150
    Two-Electron Energy =                 608.9543255292687718
    Total Energy =                       -385.7681965523393046
  Basis Set: (AUG-CC-PVTZ AUX)
    Blend: AUG-CC-PVTZ-RI
    Molecular point group: c1

    Geometry (in Angstrom), charge = 0, multiplicity = 1:

       Center              X                  Y                   Z               Mass
    ------------   -----------------  -----------------  -----------------  -----------------
         C           -2.122347469638    -0.001155540879    -0.517789525175    12.000000000000
         C           -3.025643469638     0.751087459121     0.424671474825    12.000000000000
         C           -3.025643469638    -0.753394540879     0.424674474825    12.000000000000
         C           -0.666420869638     0.011553359121    -0.302253925175    12.000000000000
         C            0.066433530362     1.201835459121    -0.210361525175    12.000000000000
         C            0.066433530362    -1.204145540879    -0.210361525175    12.000000000000
         C            1.450426530362     1.200171459121    -0.036387525175    12.000000000000
         C            1.450427530362    -1.202480540879    -0.036387525175    12.000000000000
         C            2.165532530362    -0.001154540879     0.051541474825    12.000000000000
         C            3.654359530362    -0.001153540879     0.283750474825    12.000000000000
         H           -2.433231469638    -0.001158540879    -1.562142525175     1.007825032230
         H           -3.886627469638     1.268770459121     0.013923474825     1.007825032230
         H           -2.555628469638     1.252302459121     1.264896474825     1.007825032230
         H           -2.555628469638    -1.254607540879     1.264901474825     1.007825032230
         H           -3.886628469638    -1.271078540879     0.013929474825     1.007825032230
         H           -0.472611469638     2.145270459121    -0.278921525175     1.007825032230
         H           -0.472610469638    -2.147581540879    -0.278921525175     1.007825032230
         H            1.984975530362     2.147080459121     0.028931474825     1.007825032230
         H            1.984976530362    -2.149389540879     0.028931474825     1.007825032230
         H            4.121332530362    -0.886504540879    -0.157346525175     1.007825032230
         H            4.121332530362     0.884197459121    -0.157345525175     1.007825032230
         H            3.888917530362    -0.001154540879     1.353997474825     1.007825032230

  Basis Set: AUG-CC-PVTZ
    Blend: AUG-CC-PVTZ
  Basis Set: (AUG-CC-PVTZ AUX)
    Blend: AUG-CC-PVTZ-JKFIT
	 Reference Energy          =    -385.7681965523393046 [Eh]
	 Singles Energy            =      -0.0000000000000000 [Eh]
	 Same-Spin Energy          =      -0.4319585493372047 [Eh]
	 Opposite-Spin Energy      =      -1.4119044780345402 [Eh]
	 Correlation Energy        =      -1.8438630273717449 [Eh]
	 Total Energy              =    -387.6120595797110582 [Eh]

	 ================> DF-SCS-MP2 Energies <==================
	-----------------------------------------------------------
	 SCS Same-Spin Scale       =       0.3333333333333333 [-]
	 SCS Opposite-Spin Scale   =       1.2000000000000000 [-]
	 SCS Same-Spin Energy      =      -0.1439861831124016 [Eh]
	 SCS Opposite-Spin Energy  =      -1.6942853736414483 [Eh]
	 SCS Correlation Energy    =      -1.8382715567538499 [Eh]
	 SCS Total Energy          =    -387.6064681090931572 [Eh]
	-----------------------------------------------------------

  Dipole Moment: [D]
     X:     0.0849      Y:    -0.0033      Z:     0.0307     Total:     0.0903

*** Psi4 exiting successfully. Buy a developer a beer!
