                               Psi4 1.4a3.dev225

  ==> Input File <==

--------------------------------------------------------------------------
#psi4
#
memory 32 gb

molecule  {
0 1
  C       -2.1229620    -0.0000010    -0.5285820
  C       -3.0262580     0.7522420     0.4138790
  C       -2.9941550    -0.7393322     0.4534861
  C       -0.6463130    -0.0000010    -0.3104390
  C        0.0658190     1.2029900    -0.2211540
  C        0.0658190    -1.2029910    -0.2211540
  C        1.4498120     1.2013260    -0.0471800
  C        1.4498130    -1.2013260    -0.0471800
  C        2.1649180     0.0000000     0.0407490
  C        3.6537450     0.0000010     0.2729580
  H       -2.4338460    -0.0000040    -1.5729350
  H       -3.8872420     1.2699250     0.0031310
  H       -2.5562430     1.2534570     1.2541040
  H       -2.5562430    -1.2534530     1.2541090
  H       -3.8872430    -1.2699240     0.0031370
  H       -0.4732260     2.1464250    -0.2897140
  H       -0.4732250    -2.1464270    -0.2897140
  H        1.9843610     2.1482350     0.0181390
  H        1.9843620    -2.1482350     0.0181390
  H        4.1207180    -0.8853500    -0.1681390
  H        4.1207180     0.8853520    -0.1681380
  H        3.8883030     0.0000000     1.3432050
units angstrom
no_reorient  #important for SAPT in psi4, default
symmetry c1  #important for SAPT in psi4, default
}

set PROPERTIES_ORIGIN ["COM"]
properties('MP2/aug-cc-pvtz', properties = ['dipole'])
--------------------------------------------------------------------------

    Molecular point group: c1
  Charge       = 0
  Multiplicity = 1
  Basis Set: AUG-CC-PVTZ
    Blend: AUG-CC-PVTZ
  Basis Set: (AUG-CC-PVTZ AUX)
    Blend: AUG-CC-PVTZ-JKFIT

    Orbital Energies [Eh]
    ---------------------

    Doubly Occupied:

       1A    -11.237760     2A    -11.233577     3A    -11.232573
       4A    -11.228983     5A    -11.228662     6A    -11.227362
       7A    -11.227159     8A    -11.224903     9A    -11.224125
      10A    -11.222370    11A     -1.164408    12A     -1.131190
      13A     -1.039064    14A     -1.006582    15A     -0.936564
      16A     -0.834060    17A     -0.832173    18A     -0.808535
      19A     -0.766469    20A     -0.688092    21A     -0.649229
      22A     -0.633406    23A     -0.627052    24A     -0.602767
      25A     -0.576872    26A     -0.573041    27A     -0.538212
      28A     -0.528618    29A     -0.510537    30A     -0.489294
      31A     -0.483453    32A     -0.475921    33A     -0.427576
      34A     -0.410105    35A     -0.331369    36A     -0.312245

  @DF-RHF Final Energy:  -385.76623819422355

   => Energetics <=

    Nuclear Repulsion Energy =            482.9508725129570053
    One-Electron Energy =               -1478.1056107760803116
    Two-Electron Energy =                 609.3885000688998161
    Total Energy =                       -385.7662381942235470
  Basis Set: (AUG-CC-PVTZ AUX)
    Blend: AUG-CC-PVTZ-RI
    Molecular point group: c1

    Geometry (in Angstrom), charge = 0, multiplicity = 1:

       Center              X                  Y                   Z               Mass
    ------------   -----------------  -----------------  -----------------  -----------------
         C           -2.127146364955    -0.001173609843    -0.521624206402    12.000000000000
         C           -3.030442364955     0.751069390157     0.420836793598    12.000000000000
         C           -2.998339364955    -0.740504809843     0.460443893598    12.000000000000
         C           -0.650497364955    -0.001173609843    -0.303481206402    12.000000000000
         C            0.061634635045     1.201817390157    -0.214196206402    12.000000000000
         C            0.061634635045    -1.204163609843    -0.214196206402    12.000000000000
         C            1.445627635045     1.200153390157    -0.040222206402    12.000000000000
         C            1.445628635045    -1.202498609843    -0.040222206402    12.000000000000
         C            2.160733635045    -0.001172609843     0.047706793598    12.000000000000
         C            3.649560635045    -0.001171609843     0.279915793598    12.000000000000
         H           -2.438030364955    -0.001176609843    -1.565977206402     1.007825032230
         H           -3.891426364955     1.268752390157     0.010088793598     1.007825032230
         H           -2.560427364955     1.252284390157     1.261061793598     1.007825032230
         H           -2.560427364955    -1.254625609843     1.261066793598     1.007825032230
         H           -3.891427364955    -1.271096609843     0.010094793598     1.007825032230
         H           -0.477410364955     2.145252390157    -0.282756206402     1.007825032230
         H           -0.477409364955    -2.147599609843    -0.282756206402     1.007825032230
         H            1.980176635045     2.147062390157     0.025096793598     1.007825032230
         H            1.980177635045    -2.149407609843     0.025096793598     1.007825032230
         H            4.116533635045    -0.886522609843    -0.161181206402     1.007825032230
         H            4.116533635045     0.884179390157    -0.161180206402     1.007825032230
         H            3.884118635045    -0.001172609843     1.350162793598     1.007825032230

  Basis Set: AUG-CC-PVTZ
    Blend: AUG-CC-PVTZ
  Basis Set: (AUG-CC-PVTZ AUX)
    Blend: AUG-CC-PVTZ-JKFIT
	 Reference Energy          =    -385.7662381942235470 [Eh]
	 Singles Energy            =      -0.0000000000000000 [Eh]
	 Same-Spin Energy          =      -0.4317774828232719 [Eh]
	 Opposite-Spin Energy      =      -1.4116151503252290 [Eh]
	 Correlation Energy        =      -1.8433926331485009 [Eh]
	 Total Energy              =    -387.6096308273720297 [Eh]

	 ================> DF-SCS-MP2 Energies <==================
	-----------------------------------------------------------
	 SCS Same-Spin Scale       =       0.3333333333333333 [-]
	 SCS Opposite-Spin Scale   =       1.2000000000000000 [-]
	 SCS Same-Spin Energy      =      -0.1439258276077573 [Eh]
	 SCS Opposite-Spin Energy  =      -1.6939381803902747 [Eh]
	 SCS Correlation Energy    =      -1.8378640079980320 [Eh]
	 SCS Total Energy          =    -387.6041022022215543 [Eh]
	-----------------------------------------------------------

  Dipole Moment: [D]
     X:     0.1186      Y:     0.0153      Z:     0.0448     Total:     0.1277

*** Psi4 exiting successfully. Buy a developer a beer!
