                               Psi4 1.4a3.dev225

  ==> Input File <==

--------------------------------------------------------------------------
#psi4
#
memory 32 gb

molecule  {
0 1
  C       -2.1229620    -0.0000010    -0.5285820
  C       -3.0051924     0.7597412     0.4277167
  C       -3.0262580    -0.7522400     0.4138820
  C       -0.6463130    -0.0000010    -0.3104390
  C        0.0658190     1.2029900    -0.2211540
  C        0.0658190    -1.2029910    -0.2211540
  C        1.4498120     1.2013260    -0.0471800
  C        1.4498130    -1.2013260    -0.0471800
  C        2.1649180     0.0000000     0.0407490
  C        3.6537450     0.0000010     0.2729580
  H       -2.4338460    -0.0000040    -1.5729350
  H       -3.8872420     1.2699250     0.0031310
  H       -2.5562430     1.2534570     1.2541040
  H       -2.5562430    -1.2534530     1.2541090
  H       -3.8872430    -1.2699240     0.0031370
  H       -0.4732260     2.1464250    -0.2897140
  H       -0.4732250    -2.1464270    -0.2897140
  H        1.9843610     2.1482350     0.0181390
  H        1.9843620    -2.1482350     0.0181390
  H        4.1207180    -0.8853500    -0.1681390
  H        4.1207180     0.8853520    -0.1681380
  H        3.8883030     0.0000000     1.3432050
units angstrom
no_reorient  #important for SAPT in psi4, default
symmetry c1  #important for SAPT in psi4, default
}

set PROPERTIES_ORIGIN ["COM"]
properties('MP2/aug-cc-pvtz', properties = ['dipole'])
--------------------------------------------------------------------------

    Molecular point group: c1
  Charge       = 0
  Multiplicity = 1
  Basis Set: AUG-CC-PVTZ
    Blend: AUG-CC-PVTZ
  Basis Set: (AUG-CC-PVTZ AUX)
    Blend: AUG-CC-PVTZ-JKFIT

    Orbital Energies [Eh]
    ---------------------

    Doubly Occupied:

       1A    -11.237888     2A    -11.234051     3A    -11.233341
       4A    -11.229127     5A    -11.228921     6A    -11.227461
       7A    -11.227350     8A    -11.224789     9A    -11.224112
      10A    -11.222446    11A     -1.163127    12A     -1.129473
      13A     -1.038813    14A     -1.006725    15A     -0.936454
      16A     -0.834591    17A     -0.831682    18A     -0.809158
      19A     -0.766117    20A     -0.687618    21A     -0.650265
      22A     -0.633700    23A     -0.626373    24A     -0.600619
      25A     -0.577016    26A     -0.573125    27A     -0.538398
      28A     -0.528729    29A     -0.513684    30A     -0.489203
      31A     -0.483726    32A     -0.476200    33A     -0.422035
      34A     -0.413928    35A     -0.331496    36A     -0.312160

  @DF-RHF Final Energy:  -385.76872278900686

   => Energetics <=

    Nuclear Repulsion Energy =            482.7098398206583738
    One-Electron Energy =               -1477.6293245231472611
    Two-Electron Energy =                 609.1507619134820288
    Total Energy =                       -385.7687227890069153
  Basis Set: (AUG-CC-PVTZ AUX)
    Blend: AUG-CC-PVTZ-RI
    Molecular point group: c1

    Geometry (in Angstrom), charge = 0, multiplicity = 1:

       Center              X                  Y                   Z               Mass
    ------------   -----------------  -----------------  -----------------  -----------------
         C           -2.126143678233    -0.000682268458    -0.519283471523    12.000000000000
         C           -3.008374078233     0.759059931542     0.437015228477    12.000000000000
         C           -3.029439678233    -0.752921268458     0.423180528477    12.000000000000
         C           -0.649494678233    -0.000682268458    -0.301140471523    12.000000000000
         C            0.062637321767     1.202308731542    -0.211855471523    12.000000000000
         C            0.062637321767    -1.203672268458    -0.211855471523    12.000000000000
         C            1.446630321767     1.200644731542    -0.037881471523    12.000000000000
         C            1.446631321767    -1.202007268458    -0.037881471523    12.000000000000
         C            2.161736321767    -0.000681268458     0.050047528477    12.000000000000
         C            3.650563321767    -0.000680268458     0.282256528477    12.000000000000
         H           -2.437027678233    -0.000685268458    -1.563636471523     1.007825032230
         H           -3.890423678233     1.269243731542     0.012429528477     1.007825032230
         H           -2.559424678233     1.252775731542     1.263402528477     1.007825032230
         H           -2.559424678233    -1.254134268458     1.263407528477     1.007825032230
         H           -3.890424678233    -1.270605268458     0.012435528477     1.007825032230
         H           -0.476407678233     2.145743731542    -0.280415471523     1.007825032230
         H           -0.476406678233    -2.147108268458    -0.280415471523     1.007825032230
         H            1.981179321767     2.147553731542     0.027437528477     1.007825032230
         H            1.981180321767    -2.148916268458     0.027437528477     1.007825032230
         H            4.117536321767    -0.886031268458    -0.158840471523     1.007825032230
         H            4.117536321767     0.884670731542    -0.158839471523     1.007825032230
         H            3.885121321767    -0.000681268458     1.352503528477     1.007825032230

  Basis Set: AUG-CC-PVTZ
    Blend: AUG-CC-PVTZ
  Basis Set: (AUG-CC-PVTZ AUX)
    Blend: AUG-CC-PVTZ-JKFIT
	 Reference Energy          =    -385.7687227890068584 [Eh]
	 Singles Energy            =      -0.0000000000000000 [Eh]
	 Same-Spin Energy          =      -0.4317149743157229 [Eh]
	 Opposite-Spin Energy      =      -1.4115851947923679 [Eh]
	 Correlation Energy        =      -1.8433001691080908 [Eh]
	 Total Energy              =    -387.6120229581149488 [Eh]

	 ================> DF-SCS-MP2 Energies <==================
	-----------------------------------------------------------
	 SCS Same-Spin Scale       =       0.3333333333333333 [-]
	 SCS Opposite-Spin Scale   =       1.2000000000000000 [-]
	 SCS Same-Spin Energy      =      -0.1439049914385743 [Eh]
	 SCS Opposite-Spin Energy  =      -1.6939022337508414 [Eh]
	 SCS Correlation Energy    =      -1.8378072251894157 [Eh]
	 SCS Total Energy          =    -387.6065300141962666 [Eh]
	-----------------------------------------------------------

  Dipole Moment: [D]
     X:     0.1223      Y:    -0.0078      Z:     0.0306     Total:     0.1263

*** Psi4 exiting successfully. Buy a developer a beer!
