                               Psi4 1.4a3.dev225

  ==> Input File <==

--------------------------------------------------------------------------
#psi4
#
memory 32 gb

molecule  {
0 1
  C       -2.1229620    -0.0000010    -0.5285820
  C       -3.0262580     0.7522420     0.4138790
  C       -3.0262580    -0.7522400     0.4138820
  C       -0.7278382     0.0529942    -0.3206973
  C        0.0658190     1.2029900    -0.2211540
  C        0.0658190    -1.2029910    -0.2211540
  C        1.4498120     1.2013260    -0.0471800
  C        1.4498130    -1.2013260    -0.0471800
  C        2.1649180     0.0000000     0.0407490
  C        3.6537450     0.0000010     0.2729580
  H       -2.4338460    -0.0000040    -1.5729350
  H       -3.8872420     1.2699250     0.0031310
  H       -2.5562430     1.2534570     1.2541040
  H       -2.5562430    -1.2534530     1.2541090
  H       -3.8872430    -1.2699240     0.0031370
  H       -0.4732260     2.1464250    -0.2897140
  H       -0.4732250    -2.1464270    -0.2897140
  H        1.9843610     2.1482350     0.0181390
  H        1.9843620    -2.1482350     0.0181390
  H        4.1207180    -0.8853500    -0.1681390
  H        4.1207180     0.8853520    -0.1681380
  H        3.8883030     0.0000000     1.3432050
units angstrom
no_reorient  #important for SAPT in psi4, default
symmetry c1  #important for SAPT in psi4, default
}

set PROPERTIES_ORIGIN ["COM"]
properties('MP2/aug-cc-pvtz', properties = ['dipole'])
--------------------------------------------------------------------------

    Molecular point group: c1
  Charge       = 0
  Multiplicity = 1
  Basis Set: AUG-CC-PVTZ
    Blend: AUG-CC-PVTZ
  Basis Set: (AUG-CC-PVTZ AUX)
    Blend: AUG-CC-PVTZ-JKFIT

    Orbital Energies [Eh]
    ---------------------

    Doubly Occupied:

       1A    -11.238823     2A    -11.238396     3A    -11.236859
       4A    -11.230598     5A    -11.229078     6A    -11.227561
       7A    -11.227361     8A    -11.226802     9A    -11.225508
      10A    -11.222583    11A     -1.166563    12A     -1.129206
      13A     -1.036205    14A     -1.002049    15A     -0.942143
      16A     -0.843161    17A     -0.833482    18A     -0.806214
      19A     -0.762453    20A     -0.690726    21A     -0.654896
      22A     -0.632369    23A     -0.627839    24A     -0.600528
      25A     -0.572985    26A     -0.570298    27A     -0.537832
      28A     -0.533991    29A     -0.514132    30A     -0.493565
      31A     -0.480527    32A     -0.476259    33A     -0.428425
      34A     -0.407572    35A     -0.331325    36A     -0.304267

  @DF-RHF Final Energy:  -385.75540626563026

   => Energetics <=

    Nuclear Repulsion Energy =            482.2909643550000283
    One-Electron Energy =               -1476.7275848155315998
    Two-Electron Energy =                 608.6812141949012585
    Total Energy =                       -385.7554062656303131
  Basis Set: (AUG-CC-PVTZ AUX)
    Blend: AUG-CC-PVTZ-RI
    Molecular point group: c1

    Geometry (in Angstrom), charge = 0, multiplicity = 1:

       Center              X                  Y                   Z               Mass
    ------------   -----------------  -----------------  -----------------  -----------------
         C           -2.116823871668    -0.004815328337    -0.517094483241    12.000000000000
         C           -3.020119871668     0.747427671663     0.425366516759    12.000000000000
         C           -3.020119871668    -0.757054328337     0.425369516759    12.000000000000
         C           -0.721700071668     0.048179871663    -0.309209783241    12.000000000000
         C            0.071957128332     1.198175671663    -0.209666483241    12.000000000000
         C            0.071957128332    -1.207805328337    -0.209666483241    12.000000000000
         C            1.455950128332     1.196511671663    -0.035692483241    12.000000000000
         C            1.455951128332    -1.206140328337    -0.035692483241    12.000000000000
         C            2.171056128332    -0.004814328337     0.052236516759    12.000000000000
         C            3.659883128332    -0.004813328337     0.284445516759    12.000000000000
         H           -2.427707871668    -0.004818328337    -1.561447483241     1.007825032230
         H           -3.881103871668     1.265110671663     0.014618516759     1.007825032230
         H           -2.550104871668     1.248642671663     1.265591516759     1.007825032230
         H           -2.550104871668    -1.258267328337     1.265596516759     1.007825032230
         H           -3.881104871668    -1.274738328337     0.014624516759     1.007825032230
         H           -0.467087871668     2.141610671663    -0.278226483241     1.007825032230
         H           -0.467086871668    -2.151241328337    -0.278226483241     1.007825032230
         H            1.990499128332     2.143420671663     0.029626516759     1.007825032230
         H            1.990500128332    -2.153049328337     0.029626516759     1.007825032230
         H            4.126856128332    -0.890164328337    -0.156651483241     1.007825032230
         H            4.126856128332     0.880537671663    -0.156650483241     1.007825032230
         H            3.894441128332    -0.004814328337     1.354692516759     1.007825032230

  Basis Set: AUG-CC-PVTZ
    Blend: AUG-CC-PVTZ
  Basis Set: (AUG-CC-PVTZ AUX)
    Blend: AUG-CC-PVTZ-JKFIT
	 Reference Energy          =    -385.7554062656302563 [Eh]
	 Singles Energy            =      -0.0000000000000000 [Eh]
	 Same-Spin Energy          =      -0.4329295420976267 [Eh]
	 Opposite-Spin Energy      =      -1.4137547884692721 [Eh]
	 Correlation Energy        =      -1.8466843305668987 [Eh]
	 Total Energy              =    -387.6020905961971721 [Eh]

	 ================> DF-SCS-MP2 Energies <==================
	-----------------------------------------------------------
	 SCS Same-Spin Scale       =       0.3333333333333333 [-]
	 SCS Opposite-Spin Scale   =       1.2000000000000000 [-]
	 SCS Same-Spin Energy      =      -0.1443098473658756 [Eh]
	 SCS Opposite-Spin Energy  =      -1.6965057461631263 [Eh]
	 SCS Correlation Energy    =      -1.8408155935290018 [Eh]
	 SCS Total Energy          =    -387.5962218591592432 [Eh]
	-----------------------------------------------------------

  Dipole Moment: [D]
     X:    -0.0157      Y:    -0.0124      Z:     0.0349     Total:     0.0402

*** Psi4 exiting successfully. Buy a developer a beer!
