                               Psi4 1.4a3.dev225

  ==> Input File <==

--------------------------------------------------------------------------
#psi4
#
memory 32 gb

molecule  {
0 1
  C       -2.1229620    -0.0000010    -0.5285820
  C       -3.1466546     0.7025199     0.3249775
  C       -3.0262580    -0.7522400     0.4138820
  C       -0.6463130    -0.0000010    -0.3104390
  C        0.0658190     1.2029900    -0.2211540
  C        0.0658190    -1.2029910    -0.2211540
  C        1.4498120     1.2013260    -0.0471800
  C        1.4498130    -1.2013260    -0.0471800
  C        2.1649180     0.0000000     0.0407490
  C        3.6537450     0.0000010     0.2729580
  H       -2.4338460    -0.0000040    -1.5729350
  H       -3.8872420     1.2699250     0.0031310
  H       -2.5562430     1.2534570     1.2541040
  H       -2.5562430    -1.2534530     1.2541090
  H       -3.8872430    -1.2699240     0.0031370
  H       -0.4732260     2.1464250    -0.2897140
  H       -0.4732250    -2.1464270    -0.2897140
  H        1.9843610     2.1482350     0.0181390
  H        1.9843620    -2.1482350     0.0181390
  H        4.1207180    -0.8853500    -0.1681390
  H        4.1207180     0.8853520    -0.1681380
  H        3.8883030     0.0000000     1.3432050
units angstrom
no_reorient  #important for SAPT in psi4, default
symmetry c1  #important for SAPT in psi4, default
}

set PROPERTIES_ORIGIN ["COM"]
properties('MP2/aug-cc-pvtz', properties = ['dipole'])
--------------------------------------------------------------------------

    Molecular point group: c1
  Charge       = 0
  Multiplicity = 1
  Basis Set: AUG-CC-PVTZ
    Blend: AUG-CC-PVTZ
  Basis Set: (AUG-CC-PVTZ AUX)
    Blend: AUG-CC-PVTZ-JKFIT

    Orbital Energies [Eh]
    ---------------------

    Doubly Occupied:

       1A    -11.238444     2A    -11.235930     3A    -11.232535
       4A    -11.230269     5A    -11.229380     6A    -11.228065
       7A    -11.228034     8A    -11.227523     9A    -11.225188
      10A    -11.222713    11A     -1.166207    12A     -1.134877
      13A     -1.041319    14A     -1.007153    15A     -0.938279
      16A     -0.835025    17A     -0.833797    18A     -0.812305
      19A     -0.766271    20A     -0.682252    21A     -0.668693
      22A     -0.634339    23A     -0.628392    24A     -0.598568
      25A     -0.577444    26A     -0.573408    27A     -0.538971
      28A     -0.528671    29A     -0.500421    30A     -0.487739
      31A     -0.483559    32A     -0.475519    33A     -0.433121
      34A     -0.402476    35A     -0.331758    36A     -0.313169

  @DF-RHF Final Energy:  -385.74236257765710

   => Energetics <=

    Nuclear Repulsion Energy =            482.1684188349180431
    One-Electron Energy =               -1476.4379397725679155
    Two-Electron Energy =                 608.5271583599927681
    Total Energy =                       -385.7423625776571043
  Basis Set: (AUG-CC-PVTZ AUX)
    Blend: AUG-CC-PVTZ-RI
    Molecular point group: c1

    Geometry (in Angstrom), charge = 0, multiplicity = 1:

       Center              X                  Y                   Z               Mass
    ------------   -----------------  -----------------  -----------------  -----------------
         C           -2.113292620046     0.004515970053    -0.509950183639    12.000000000000
         C           -3.136985220046     0.707036870053     0.343609316361    12.000000000000
         C           -3.016588620046    -0.747723029947     0.432513816361    12.000000000000
         C           -0.636643620046     0.004515970053    -0.291807183639    12.000000000000
         C            0.075488379954     1.207506970053    -0.202522183639    12.000000000000
         C            0.075488379954    -1.198474029947    -0.202522183639    12.000000000000
         C            1.459481379954     1.205842970053    -0.028548183639    12.000000000000
         C            1.459482379954    -1.196809029947    -0.028548183639    12.000000000000
         C            2.174587379954     0.004516970053     0.059380816361    12.000000000000
         C            3.663414379954     0.004517970053     0.291589816361    12.000000000000
         H           -2.424176620046     0.004512970053    -1.554303183639     1.007825032230
         H           -3.877572620046     1.274441970053     0.021762816361     1.007825032230
         H           -2.546573620046     1.257973970053     1.272735816361     1.007825032230
         H           -2.546573620046    -1.248936029947     1.272740816361     1.007825032230
         H           -3.877573620046    -1.265407029947     0.021768816361     1.007825032230
         H           -0.463556620046     2.150941970053    -0.271082183639     1.007825032230
         H           -0.463555620046    -2.141910029947    -0.271082183639     1.007825032230
         H            1.994030379954     2.152751970053     0.036770816361     1.007825032230
         H            1.994031379954    -2.143718029947     0.036770816361     1.007825032230
         H            4.130387379954    -0.880833029947    -0.149507183639     1.007825032230
         H            4.130387379954     0.889868970053    -0.149506183639     1.007825032230
         H            3.897972379954     0.004516970053     1.361836816361     1.007825032230

  Basis Set: AUG-CC-PVTZ
    Blend: AUG-CC-PVTZ
  Basis Set: (AUG-CC-PVTZ AUX)
    Blend: AUG-CC-PVTZ-JKFIT
	 Reference Energy          =    -385.7423625776571043 [Eh]
	 Singles Energy            =      -0.0000000000000000 [Eh]
	 Same-Spin Energy          =      -0.4322010929039337 [Eh]
	 Opposite-Spin Energy      =      -1.4126415771360663 [Eh]
	 Correlation Energy        =      -1.8448426700400000 [Eh]
	 Total Energy              =    -387.5872052476971135 [Eh]

	 ================> DF-SCS-MP2 Energies <==================
	-----------------------------------------------------------
	 SCS Same-Spin Scale       =       0.3333333333333333 [-]
	 SCS Opposite-Spin Scale   =       1.2000000000000000 [-]
	 SCS Same-Spin Energy      =      -0.1440670309679779 [Eh]
	 SCS Opposite-Spin Energy  =      -1.6951698925632794 [Eh]
	 SCS Correlation Energy    =      -1.8392369235312573 [Eh]
	 SCS Total Energy          =    -387.5815995011883501 [Eh]
	-----------------------------------------------------------

  Dipole Moment: [D]
     X:     0.1070      Y:    -0.0127      Z:    -0.0130     Total:     0.1085

*** Psi4 exiting successfully. Buy a developer a beer!
