                               Psi4 1.4a3.dev225

  ==> Input File <==

--------------------------------------------------------------------------
#psi4
#
memory 32 gb

molecule  {
0 1
  C       -2.1229620    -0.0000010    -0.5285820
  C       -3.0262580     0.7522420     0.4138790
  C       -3.0262580    -0.7522400     0.4138820
  C       -0.6463130    -0.0000010    -0.3104390
  C        0.0658190     1.2029900    -0.2211540
  C        0.0658190    -1.2029910    -0.2211540
  C        1.4498120     1.2013260    -0.0471800
  C        1.4498130    -1.2013260    -0.0471800
  C        2.1649180     0.0000000     0.0407490
  C        3.6537450     0.0000010     0.2729580
  H       -2.4338460    -0.0000040    -1.5729350
  H       -3.8872420     1.2699250     0.0031310
  H       -2.5129399     1.2996346     1.3315150
  H       -2.5562430    -1.2534530     1.2541090
  H       -3.8872430    -1.2699240     0.0031370
  H       -0.4732260     2.1464250    -0.2897140
  H       -0.4732250    -2.1464270    -0.2897140
  H        1.9843610     2.1482350     0.0181390
  H        1.9843620    -2.1482350     0.0181390
  H        4.1207180    -0.8853500    -0.1681390
  H        4.1207180     0.8853520    -0.1681380
  H        3.8883030     0.0000000     1.3432050
units angstrom
no_reorient  #important for SAPT in psi4, default
symmetry c1  #important for SAPT in psi4, default
}

set PROPERTIES_ORIGIN ["COM"]
properties('MP2/aug-cc-pvtz', properties = ['dipole'])
--------------------------------------------------------------------------

    Molecular point group: c1
  Charge       = 0
  Multiplicity = 1
  Basis Set: AUG-CC-PVTZ
    Blend: AUG-CC-PVTZ
  Basis Set: (AUG-CC-PVTZ AUX)
    Blend: AUG-CC-PVTZ-JKFIT

    Orbital Energies [Eh]
    ---------------------

    Doubly Occupied:

       1A    -11.237892     2A    -11.235692     3A    -11.234434
       4A    -11.233758     5A    -11.229170     6A    -11.228977
       7A    -11.227408     8A    -11.227327     9A    -11.225272
      10A    -11.222426    11A     -1.163217    12A     -1.129850
      13A     -1.039021    14A     -1.006695    15A     -0.936538
      16A     -0.832992    17A     -0.829342    18A     -0.804199
      19A     -0.764268    20A     -0.683701    21A     -0.653300
      22A     -0.633708    23A     -0.625590    24A     -0.595433
      25A     -0.576999    26A     -0.573094    27A     -0.538435
      28A     -0.527350    29A     -0.502688    30A     -0.489836
      31A     -0.483652    32A     -0.475971    33A     -0.424899
      34A     -0.412722    35A     -0.331410    36A     -0.312254

  @DF-RHF Final Energy:  -385.76249783087133

   => Energetics <=

    Nuclear Repulsion Energy =            482.2293886301615657
    One-Electron Energy =               -1476.6847314051269677
    Two-Electron Energy =                 608.6928449440940767
    Total Energy =                       -385.7624978308713253
  Basis Set: (AUG-CC-PVTZ AUX)
    Blend: AUG-CC-PVTZ-RI
    Molecular point group: c1

    Geometry (in Angstrom), charge = 0, multiplicity = 1:

       Center              X                  Y                   Z               Mass
    ------------   -----------------  -----------------  -----------------  -----------------
         C           -2.124560370819    -0.000353324739    -0.518617008831    12.000000000000
         C           -3.027856370819     0.751889675261     0.423843991169    12.000000000000
         C           -3.027856370819    -0.752592324739     0.423846991169    12.000000000000
         C           -0.647911370819    -0.000353324739    -0.300474008831    12.000000000000
         C            0.064220629181     1.202637675261    -0.211189008831    12.000000000000
         C            0.064220629181    -1.203343324739    -0.211189008831    12.000000000000
         C            1.448213629181     1.200973675261    -0.037215008831    12.000000000000
         C            1.448214629181    -1.201678324739    -0.037215008831    12.000000000000
         C            2.163319629181    -0.000352324739     0.050713991169    12.000000000000
         C            3.652146629181    -0.000351324739     0.282922991169    12.000000000000
         H           -2.435444370819    -0.000356324739    -1.562970008831     1.007825032230
         H           -3.888840370819     1.269572675261     0.013095991169     1.007825032230
         H           -2.514538270819     1.299282275261     1.341479991169     1.007825032230
         H           -2.557841370819    -1.253805324739     1.264073991169     1.007825032230
         H           -3.888841370819    -1.270276324739     0.013101991169     1.007825032230
         H           -0.474824370819     2.146072675261    -0.279749008831     1.007825032230
         H           -0.474823370819    -2.146779324739    -0.279749008831     1.007825032230
         H            1.982762629181     2.147882675261     0.028103991169     1.007825032230
         H            1.982763629181    -2.148587324739     0.028103991169     1.007825032230
         H            4.119119629181    -0.885702324739    -0.158174008831     1.007825032230
         H            4.119119629181     0.884999675261    -0.158173008831     1.007825032230
         H            3.886704629181    -0.000352324739     1.353169991169     1.007825032230

  Basis Set: AUG-CC-PVTZ
    Blend: AUG-CC-PVTZ
  Basis Set: (AUG-CC-PVTZ AUX)
    Blend: AUG-CC-PVTZ-JKFIT
	 Reference Energy          =    -385.7624978308713253 [Eh]
	 Singles Energy            =      -0.0000000000000000 [Eh]
	 Same-Spin Energy          =      -0.4318026886874657 [Eh]
	 Opposite-Spin Energy      =      -1.4122286014300474 [Eh]
	 Correlation Energy        =      -1.8440312901175131 [Eh]
	 Total Energy              =    -387.6065291209888528 [Eh]

	 ================> DF-SCS-MP2 Energies <==================
	-----------------------------------------------------------
	 SCS Same-Spin Scale       =       0.3333333333333333 [-]
	 SCS Opposite-Spin Scale   =       1.2000000000000000 [-]
	 SCS Same-Spin Energy      =      -0.1439342295624886 [Eh]
	 SCS Opposite-Spin Energy  =      -1.6946743217160567 [Eh]
	 SCS Correlation Energy    =      -1.8386085512785453 [Eh]
	 SCS Total Energy          =    -387.6011063821498510 [Eh]
	-----------------------------------------------------------

  Dipole Moment: [D]
     X:     0.1079      Y:    -0.0282      Z:     0.0030     Total:     0.1116

*** Psi4 exiting successfully. Buy a developer a beer!
