                               Psi4 1.4a3.dev225

  ==> Input File <==

--------------------------------------------------------------------------
#psi4
#
memory 32 gb

molecule  {
0 1
  C       -2.1229620    -0.0000010    -0.5285820
  C       -3.0262580     0.7522420     0.4138790
  C       -3.0262580    -0.7522400     0.4138820
  C       -0.6875306     0.0257794    -0.3156570
  C        0.0658190     1.2029900    -0.2211540
  C        0.0658190    -1.2029910    -0.2211540
  C        1.4498120     1.2013260    -0.0471800
  C        1.4498130    -1.2013260    -0.0471800
  C        2.1649180     0.0000000     0.0407490
  C        3.6537450     0.0000010     0.2729580
  H       -2.4338460    -0.0000040    -1.5729350
  H       -3.8872420     1.2699250     0.0031310
  H       -2.5562430     1.2534570     1.2541040
  H       -2.5562430    -1.2534530     1.2541090
  H       -3.8872430    -1.2699240     0.0031370
  H       -0.4732260     2.1464250    -0.2897140
  H       -0.4732250    -2.1464270    -0.2897140
  H        1.9843610     2.1482350     0.0181390
  H        1.9843620    -2.1482350     0.0181390
  H        4.1207180    -0.8853500    -0.1681390
  H        4.1207180     0.8853520    -0.1681380
  H        3.8883030     0.0000000     1.3432050
units angstrom
no_reorient  #important for SAPT in psi4, default
symmetry c1  #important for SAPT in psi4, default
}

set PROPERTIES_ORIGIN ["COM"]
properties('MP2/aug-cc-pvtz', properties = ['dipole'])
--------------------------------------------------------------------------

    Molecular point group: c1
  Charge       = 0
  Multiplicity = 1
  Basis Set: AUG-CC-PVTZ
    Blend: AUG-CC-PVTZ
  Basis Set: (AUG-CC-PVTZ AUX)
    Blend: AUG-CC-PVTZ-JKFIT

    Orbital Energies [Eh]
    ---------------------

    Doubly Occupied:

       1A    -11.238386     2A    -11.236224     3A    -11.233161
       4A    -11.231897     5A    -11.228995     6A    -11.227499
       7A    -11.227098     8A    -11.225972     9A    -11.224812
      10A    -11.222525    11A     -1.164334    12A     -1.129859
      13A     -1.037425    14A     -1.004377    15A     -0.939202
      16A     -0.837456    17A     -0.833529    18A     -0.807511
      19A     -0.764272    20A     -0.688723    21A     -0.653610
      22A     -0.632494    23A     -0.627381    24A     -0.600244
      25A     -0.573461    26A     -0.573060    27A     -0.538103
      28A     -0.531074    29A     -0.513196    30A     -0.490354
      31A     -0.481590    32A     -0.478385    33A     -0.426419
      34A     -0.411016    35A     -0.331106    36A     -0.308474

  @DF-RHF Final Energy:  -385.76537124440779

   => Energetics <=

    Nuclear Repulsion Energy =            482.4366319602759177
    One-Electron Energy =               -1477.0575562561598417
    Two-Electron Energy =                 608.8555530514761358
    Total Energy =                       -385.7653712444077883
  Basis Set: (AUG-CC-PVTZ AUX)
    Blend: AUG-CC-PVTZ-RI
    Molecular point group: c1

    Geometry (in Angstrom), charge = 0, multiplicity = 1:

       Center              X                  Y                   Z               Mass
    ------------   -----------------  -----------------  -----------------  -----------------
         C           -2.120485594114    -0.002343014332    -0.517552366609    12.000000000000
         C           -3.023781594114     0.749899985668     0.424908633391    12.000000000000
         C           -3.023781594114    -0.754582014332     0.424911633391    12.000000000000
         C           -0.685054194114     0.023437385668    -0.304627366609    12.000000000000
         C            0.068295405886     1.200647985668    -0.210124366609    12.000000000000
         C            0.068295405886    -1.205333014332    -0.210124366609    12.000000000000
         C            1.452288405886     1.198983985668    -0.036150366609    12.000000000000
         C            1.452289405886    -1.203668014332    -0.036150366609    12.000000000000
         C            2.167394405886    -0.002342014332     0.051778633391    12.000000000000
         C            3.656221405886    -0.002341014332     0.283987633391    12.000000000000
         H           -2.431369594114    -0.002346014332    -1.561905366609     1.007825032230
         H           -3.884765594114     1.267582985668     0.014160633391     1.007825032230
         H           -2.553766594114     1.251114985668     1.265133633391     1.007825032230
         H           -2.553766594114    -1.255795014332     1.265138633391     1.007825032230
         H           -3.884766594114    -1.272266014332     0.014166633391     1.007825032230
         H           -0.470749594114     2.144082985668    -0.278684366609     1.007825032230
         H           -0.470748594114    -2.148769014332    -0.278684366609     1.007825032230
         H            1.986837405886     2.145892985668     0.029168633391     1.007825032230
         H            1.986838405886    -2.150577014332     0.029168633391     1.007825032230
         H            4.123194405886    -0.887692014332    -0.157109366609     1.007825032230
         H            4.123194405886     0.883009985668    -0.157108366609     1.007825032230
         H            3.890779405886    -0.002342014332     1.354234633391     1.007825032230

  Basis Set: AUG-CC-PVTZ
    Blend: AUG-CC-PVTZ
  Basis Set: (AUG-CC-PVTZ AUX)
    Blend: AUG-CC-PVTZ-JKFIT
	 Reference Energy          =    -385.7653712444077883 [Eh]
	 Singles Energy            =      -0.0000000000000000 [Eh]
	 Same-Spin Energy          =      -0.4322440385714765 [Eh]
	 Opposite-Spin Energy      =      -1.4124223409452132 [Eh]
	 Correlation Energy        =      -1.8446663795166898 [Eh]
	 Total Energy              =    -387.6100376239244838 [Eh]

	 ================> DF-SCS-MP2 Energies <==================
	-----------------------------------------------------------
	 SCS Same-Spin Scale       =       0.3333333333333333 [-]
	 SCS Opposite-Spin Scale   =       1.2000000000000000 [-]
	 SCS Same-Spin Energy      =      -0.1440813461904922 [Eh]
	 SCS Opposite-Spin Energy  =      -1.6949068091342558 [Eh]
	 SCS Correlation Energy    =      -1.8389881553247480 [Eh]
	 SCS Total Energy          =    -387.6043593997325161 [Eh]
	-----------------------------------------------------------

  Dipole Moment: [D]
     X:     0.0530      Y:    -0.0065      Z:     0.0321     Total:     0.0623

*** Psi4 exiting successfully. Buy a developer a beer!
