                               Psi4 1.4a3.dev225

  ==> Input File <==

--------------------------------------------------------------------------
#psi4
#
memory 32 gb

molecule  {
0 1
  C       -2.1229620    -0.0000010    -0.5285820
  C       -3.0262580     0.7522420     0.4138790
  C       -3.0262580    -0.7522400     0.4138820
  C       -0.6463130    -0.0000010    -0.3104390
  C        0.0658190     1.2029900    -0.2211540
  C        0.0658190    -1.2029910    -0.2211540
  C        1.4498120     1.2013260    -0.0471800
  C        1.4498130    -1.2013260    -0.0471800
  C        2.1488015    -0.0000002     0.1976459
  C        3.6537450     0.0000010     0.2729580
  H       -2.4338460    -0.0000040    -1.5729350
  H       -3.8872420     1.2699250     0.0031310
  H       -2.5562430     1.2534570     1.2541040
  H       -2.5562430    -1.2534530     1.2541090
  H       -3.8872430    -1.2699240     0.0031370
  H       -0.4732260     2.1464250    -0.2897140
  H       -0.4732250    -2.1464270    -0.2897140
  H        1.9843610     2.1482350     0.0181390
  H        1.9843620    -2.1482350     0.0181390
  H        4.1207180    -0.8853500    -0.1681390
  H        4.1207180     0.8853520    -0.1681380
  H        3.8883030     0.0000000     1.3432050
units angstrom
no_reorient  #important for SAPT in psi4, default
symmetry c1  #important for SAPT in psi4, default
}

set PROPERTIES_ORIGIN ["COM"]
properties('MP2/aug-cc-pvtz', properties = ['dipole'])
--------------------------------------------------------------------------

    Molecular point group: c1
  Charge       = 0
  Multiplicity = 1
  Basis Set: AUG-CC-PVTZ
    Blend: AUG-CC-PVTZ
  Basis Set: (AUG-CC-PVTZ AUX)
    Blend: AUG-CC-PVTZ-JKFIT

    Orbital Energies [Eh]
    ---------------------

    Doubly Occupied:

       1A    -11.240404     2A    -11.234451     3A    -11.233112
       4A    -11.229885     5A    -11.229788     6A    -11.228196
       7A    -11.228094     8A    -11.224742     9A    -11.224090
      10A    -11.222479    11A     -1.162896    12A     -1.129234
      13A     -1.038888    14A     -1.006128    15A     -0.936280
      16A     -0.833094    17A     -0.831188    18A     -0.807882
      19A     -0.765705    20A     -0.686765    21A     -0.652480
      22A     -0.631982    23A     -0.627653    24A     -0.598646
      25A     -0.576315    26A     -0.573936    27A     -0.538678
      28A     -0.529305    29A     -0.512395    30A     -0.482694
      31A     -0.482447    32A     -0.479239    33A     -0.423895
      34A     -0.412861    35A     -0.330222    36A     -0.311025

  @DF-RHF Final Energy:  -385.76071167002078

   => Energetics <=

    Nuclear Repulsion Energy =            482.3798530166511114
    One-Electron Energy =               -1476.9669807770940224
    Two-Electron Energy =                 608.8264160904220716
    Total Energy =                       -385.7607116700207825
  Basis Set: (AUG-CC-PVTZ AUX)
    Blend: AUG-CC-PVTZ-RI
    Molecular point group: c1

    Geometry (in Angstrom), charge = 0, multiplicity = 1:

       Center              X                  Y                   Z               Mass
    ------------   -----------------  -----------------  -----------------  -----------------
         C           -2.122765890170    -0.000000989461    -0.532279608324    12.000000000000
         C           -3.026061890170     0.752242010539     0.410181391676    12.000000000000
         C           -3.026061890170    -0.752239989461     0.410184391676    12.000000000000
         C           -0.646116890170    -0.000000989461    -0.314136608324    12.000000000000
         C            0.066015109830     1.202990010539    -0.224851608324    12.000000000000
         C            0.066015109830    -1.202990989461    -0.224851608324    12.000000000000
         C            1.450008109830     1.201326010539    -0.050877608324    12.000000000000
         C            1.450009109830    -1.201325989461    -0.050877608324    12.000000000000
         C            2.148997609830    -0.000000189461     0.193948291676    12.000000000000
         C            3.653941109830     0.000001010539     0.269260391676    12.000000000000
         H           -2.433649890170    -0.000003989461    -1.576632608324     1.007825032230
         H           -3.887045890170     1.269925010539    -0.000566608324     1.007825032230
         H           -2.556046890170     1.253457010539     1.250406391676     1.007825032230
         H           -2.556046890170    -1.253452989461     1.250411391676     1.007825032230
         H           -3.887046890170    -1.269923989461    -0.000560608324     1.007825032230
         H           -0.473029890170     2.146425010539    -0.293411608324     1.007825032230
         H           -0.473028890170    -2.146426989461    -0.293411608324     1.007825032230
         H            1.984557109830     2.148235010539     0.014441391676     1.007825032230
         H            1.984558109830    -2.148234989461     0.014441391676     1.007825032230
         H            4.120914109830    -0.885349989461    -0.171836608324     1.007825032230
         H            4.120914109830     0.885352010539    -0.171835608324     1.007825032230
         H            3.888499109830     0.000000010539     1.339507391676     1.007825032230

  Basis Set: AUG-CC-PVTZ
    Blend: AUG-CC-PVTZ
  Basis Set: (AUG-CC-PVTZ AUX)
    Blend: AUG-CC-PVTZ-JKFIT
	 Reference Energy          =    -385.7607116700207825 [Eh]
	 Singles Energy            =      -0.0000000000000000 [Eh]
	 Same-Spin Energy          =      -0.4321164091721993 [Eh]
	 Opposite-Spin Energy      =      -1.4126454618896536 [Eh]
	 Correlation Energy        =      -1.8447618710618530 [Eh]
	 Total Energy              =    -387.6054735410826311 [Eh]

	 ================> DF-SCS-MP2 Energies <==================
	-----------------------------------------------------------
	 SCS Same-Spin Scale       =       0.3333333333333333 [-]
	 SCS Opposite-Spin Scale   =       1.2000000000000000 [-]
	 SCS Same-Spin Energy      =      -0.1440388030573998 [Eh]
	 SCS Opposite-Spin Energy  =      -1.6951745542675842 [Eh]
	 SCS Correlation Energy    =      -1.8392133573249840 [Eh]
	 SCS Total Energy          =    -387.5999250273457619 [Eh]
	-----------------------------------------------------------

  Dipole Moment: [D]
     X:     0.1236      Y:    -0.0000      Z:    -0.0426     Total:     0.1308

*** Psi4 exiting successfully. Buy a developer a beer!
