                               Psi4 1.4a3.dev225

  ==> Input File <==

--------------------------------------------------------------------------
#psi4
#
memory 32 gb

molecule  {
0 1
  C       -2.1229620    -0.0000010    -0.5285820
  C       -3.0262580     0.7522420     0.4138790
  C       -3.0262580    -0.7522400     0.4138820
  C       -0.6463130    -0.0000010    -0.3104390
  C        0.0658190     1.2029900    -0.2211540
  C        0.0658190    -1.2029910    -0.2211540
  C        1.4498120     1.2013260    -0.0471800
  C        1.4498130    -1.2013260    -0.0471800
  C        2.1649180     0.0000000     0.0407490
  C        3.6537450     0.0000010     0.2729580
  H       -2.4338460    -0.0000040    -1.5729350
  H       -3.8872420     1.2699250     0.0031310
  H       -2.5995461     1.2072794     1.1766930
  H       -2.5562430    -1.2534530     1.2541090
  H       -3.8872430    -1.2699240     0.0031370
  H       -0.4732260     2.1464250    -0.2897140
  H       -0.4732250    -2.1464270    -0.2897140
  H        1.9843610     2.1482350     0.0181390
  H        1.9843620    -2.1482350     0.0181390
  H        4.1207180    -0.8853500    -0.1681390
  H        4.1207180     0.8853520    -0.1681380
  H        3.8883030     0.0000000     1.3432050
units angstrom
no_reorient  #important for SAPT in psi4, default
symmetry c1  #important for SAPT in psi4, default
}

set PROPERTIES_ORIGIN ["COM"]
properties('MP2/aug-cc-pvtz', properties = ['dipole'])
--------------------------------------------------------------------------

    Molecular point group: c1
  Charge       = 0
  Multiplicity = 1
  Basis Set: AUG-CC-PVTZ
    Blend: AUG-CC-PVTZ
  Basis Set: (AUG-CC-PVTZ AUX)
    Blend: AUG-CC-PVTZ-JKFIT

    Orbital Energies [Eh]
    ---------------------

    Doubly Occupied:

       1A    -11.237974     2A    -11.234009     3A    -11.232304
       4A    -11.229216     5A    -11.229033     6A    -11.227524
       7A    -11.227449     8A    -11.223688     9A    -11.222495
      10A    -11.212454    11A     -1.163919    12A     -1.130968
      13A     -1.039403    14A     -1.006801    15A     -0.936960
      16A     -0.841549    17A     -0.832010    18A     -0.813449
      19A     -0.767328    20A     -0.690860    21A     -0.651921
      22A     -0.633872    23A     -0.627561    24A     -0.603629
      25A     -0.577091    26A     -0.573205    27A     -0.538468
      28A     -0.531470    29A     -0.518540    30A     -0.489725
      31A     -0.483742    32A     -0.476255    33A     -0.423882
      34A     -0.412848    35A     -0.331584    36A     -0.312313

  @DF-RHF Final Energy:  -385.76337520405997

   => Energetics <=

    Nuclear Repulsion Energy =            483.0633125616676580
    One-Electron Energy =               -1478.2823746668666445
    Two-Electron Energy =                 609.4556869011390745
    Total Energy =                       -385.7633752040599120
  Basis Set: (AUG-CC-PVTZ AUX)
    Blend: AUG-CC-PVTZ-RI
    Molecular point group: c1

    Geometry (in Angstrom), charge = 0, multiplicity = 1:

       Center              X                  Y                   Z               Mass
    ------------   -----------------  -----------------  -----------------  -----------------
         C           -2.123899599231     0.000351309480    -0.517435777247    12.000000000000
         C           -3.027195599231     0.752594309480     0.425025222753    12.000000000000
         C           -3.027195599231    -0.751887690520     0.425028222753    12.000000000000
         C           -0.647250599231     0.000351309480    -0.299292777247    12.000000000000
         C            0.064881400769     1.203342309480    -0.210007777247    12.000000000000
         C            0.064881400769    -1.202638690520    -0.210007777247    12.000000000000
         C            1.448874400769     1.201678309480    -0.036033777247    12.000000000000
         C            1.448875400769    -1.200973690520    -0.036033777247    12.000000000000
         C            2.163980400769     0.000352309480     0.051895222753    12.000000000000
         C            3.652807400769     0.000353309480     0.284104222753    12.000000000000
         H           -2.434783599231     0.000348309480    -1.561788777247     1.007825032230
         H           -3.888179599231     1.270277309480     0.014277222753     1.007825032230
         H           -2.600483699231     1.207631709480     1.187839222753     1.007825032230
         H           -2.557180599231    -1.253100690520     1.265255222753     1.007825032230
         H           -3.888180599231    -1.269571690520     0.014283222753     1.007825032230
         H           -0.474163599231     2.146777309480    -0.278567777247     1.007825032230
         H           -0.474162599231    -2.146074690520    -0.278567777247     1.007825032230
         H            1.983423400769     2.148587309480     0.029285222753     1.007825032230
         H            1.983424400769    -2.147882690520     0.029285222753     1.007825032230
         H            4.119780400769    -0.884997690520    -0.156992777247     1.007825032230
         H            4.119780400769     0.885704309480    -0.156991777247     1.007825032230
         H            3.887365400769     0.000352309480     1.354351222753     1.007825032230

  Basis Set: AUG-CC-PVTZ
    Blend: AUG-CC-PVTZ
  Basis Set: (AUG-CC-PVTZ AUX)
    Blend: AUG-CC-PVTZ-JKFIT
	 Reference Energy          =    -385.7633752040599688 [Eh]
	 Singles Energy            =      -0.0000000000000000 [Eh]
	 Same-Spin Energy          =      -0.4316595552389852 [Eh]
	 Opposite-Spin Energy      =      -1.4111003204637758 [Eh]
	 Correlation Energy        =      -1.8427598757027610 [Eh]
	 Total Energy              =    -387.6061350797627370 [Eh]

	 ================> DF-SCS-MP2 Energies <==================
	-----------------------------------------------------------
	 SCS Same-Spin Scale       =       0.3333333333333333 [-]
	 SCS Opposite-Spin Scale   =       1.2000000000000000 [-]
	 SCS Same-Spin Energy      =      -0.1438865184129950 [Eh]
	 SCS Opposite-Spin Energy  =      -1.6933203845565308 [Eh]
	 SCS Correlation Energy    =      -1.8372069029695259 [Eh]
	 SCS Total Energy          =    -387.6005821070294814 [Eh]
	-----------------------------------------------------------

  Dipole Moment: [D]
     X:     0.1218      Y:     0.0185      Z:     0.0447     Total:     0.1310

*** Psi4 exiting successfully. Buy a developer a beer!
