                               Psi4 1.4a3.dev225

  ==> Input File <==

--------------------------------------------------------------------------
#psi4
#
memory 32 gb

molecule  {
0 1
  C       -2.1229620    -0.0000010    -0.5285820
  C       -3.0262580     0.7522420     0.4138790
  C       -3.0262580    -0.7522400     0.4138820
  C       -0.6463130    -0.0000010    -0.3104390
  C        0.0658190     1.2029900    -0.2211540
  C        0.0658190    -1.2029910    -0.2211540
  C        1.4498120     1.2013260    -0.0471800
  C        1.4498130    -1.2013260    -0.0471800
  C        2.1649180     0.0000000     0.0407490
  C        3.4561341     0.0000009     0.2421371
  H       -2.4338460    -0.0000040    -1.5729350
  H       -3.8872420     1.2699250     0.0031310
  H       -2.5562430     1.2534570     1.2541040
  H       -2.5562430    -1.2534530     1.2541090
  H       -3.8872430    -1.2699240     0.0031370
  H       -0.4732260     2.1464250    -0.2897140
  H       -0.4732250    -2.1464270    -0.2897140
  H        1.9843610     2.1482350     0.0181390
  H        1.9843620    -2.1482350     0.0181390
  H        4.1207180    -0.8853500    -0.1681390
  H        4.1207180     0.8853520    -0.1681380
  H        3.8883030     0.0000000     1.3432050
units angstrom
no_reorient  #important for SAPT in psi4, default
symmetry c1  #important for SAPT in psi4, default
}

set PROPERTIES_ORIGIN ["COM"]
properties('MP2/aug-cc-pvtz', properties = ['dipole'])
--------------------------------------------------------------------------

    Molecular point group: c1
  Charge       = 0
  Multiplicity = 1
  Basis Set: AUG-CC-PVTZ
    Blend: AUG-CC-PVTZ
  Basis Set: (AUG-CC-PVTZ AUX)
    Blend: AUG-CC-PVTZ-JKFIT

    Orbital Energies [Eh]
    ---------------------

    Doubly Occupied:

       1A    -11.235532     2A    -11.233875     3A    -11.233344
       4A    -11.230195     5A    -11.230100     6A    -11.228799
       7A    -11.228654     8A    -11.225380     9A    -11.225313
      10A    -11.224727    11A     -1.169519    12A     -1.140571
      13A     -1.063739    14A     -1.008785    15A     -0.934745
      16A     -0.837170    17A     -0.824917    18A     -0.811627
      19A     -0.766852    20A     -0.690827    21A     -0.663935
      22A     -0.640148    23A     -0.638685    24A     -0.604651
      25A     -0.577989    26A     -0.561287    27A     -0.553021
      28A     -0.514492    29A     -0.510499    30A     -0.492549
      31A     -0.472929    32A     -0.463527    33A     -0.422387
      34A     -0.413626    35A     -0.333015    36A     -0.305476

  @DF-RHF Final Energy:  -385.71706746676216

   => Energetics <=

    Nuclear Repulsion Energy =            486.2719485702551196
    One-Electron Energy =               -1484.5522570367352273
    Two-Electron Energy =                 612.5632409997180048
    Total Energy =                       -385.7170674667621597
  Basis Set: (AUG-CC-PVTZ AUX)
    Blend: AUG-CC-PVTZ-RI
    Molecular point group: c1

    Geometry (in Angstrom), charge = 0, multiplicity = 1:

       Center              X                  Y                   Z               Mass
    ------------   -----------------  -----------------  -----------------  -----------------
         C           -2.106278128103    -0.000000998545    -0.515226484800    12.000000000000
         C           -3.009574128103     0.752242001455     0.427234515200    12.000000000000
         C           -3.009574128103    -0.752239998545     0.427237515200    12.000000000000
         C           -0.629629128103    -0.000000998545    -0.297083484800    12.000000000000
         C            0.082502871897     1.202990001455    -0.207798484800    12.000000000000
         C            0.082502871897    -1.202990998545    -0.207798484800    12.000000000000
         C            1.466495871897     1.201326001455    -0.033824484800    12.000000000000
         C            1.466496871897    -1.201325998545    -0.033824484800    12.000000000000
         C            2.181601871897     0.000000001455     0.054104515200    12.000000000000
         C            3.472817971897     0.000000901455     0.255492615200    12.000000000000
         H           -2.417162128103    -0.000003998545    -1.559579484800     1.007825032230
         H           -3.870558128103     1.269925001455     0.016486515200     1.007825032230
         H           -2.539559128103     1.253457001455     1.267459515200     1.007825032230
         H           -2.539559128103    -1.253452998545     1.267464515200     1.007825032230
         H           -3.870559128103    -1.269923998545     0.016492515200     1.007825032230
         H           -0.456542128103     2.146425001455    -0.276358484800     1.007825032230
         H           -0.456541128103    -2.146426998545    -0.276358484800     1.007825032230
         H            2.001044871897     2.148235001455     0.031494515200     1.007825032230
         H            2.001045871897    -2.148234998545     0.031494515200     1.007825032230
         H            4.137401871897    -0.885349998545    -0.154783484800     1.007825032230
         H            4.137401871897     0.885352001455    -0.154782484800     1.007825032230
         H            3.904986871897     0.000000001455     1.356560515200     1.007825032230

  Basis Set: AUG-CC-PVTZ
    Blend: AUG-CC-PVTZ
  Basis Set: (AUG-CC-PVTZ AUX)
    Blend: AUG-CC-PVTZ-JKFIT
	 Reference Energy          =    -385.7170674667621597 [Eh]
	 Singles Energy            =      -0.0000000000000000 [Eh]
	 Same-Spin Energy          =      -0.4352430139604023 [Eh]
	 Opposite-Spin Energy      =      -1.4160967265863857 [Eh]
	 Correlation Energy        =      -1.8513397405467880 [Eh]
	 Total Energy              =    -387.5684072073089510 [Eh]

	 ================> DF-SCS-MP2 Energies <==================
	-----------------------------------------------------------
	 SCS Same-Spin Scale       =       0.3333333333333333 [-]
	 SCS Opposite-Spin Scale   =       1.2000000000000000 [-]
	 SCS Same-Spin Energy      =      -0.1450810046534674 [Eh]
	 SCS Opposite-Spin Energy  =      -1.6993160719036629 [Eh]
	 SCS Correlation Energy    =      -1.8443970765571303 [Eh]
	 SCS Total Energy          =    -387.5614645433192891 [Eh]
	-----------------------------------------------------------

  Dipole Moment: [D]
     X:     0.0504      Y:    -0.0000      Z:     0.0302     Total:     0.0588

*** Psi4 exiting successfully. Buy a developer a beer!
