                               Psi4 1.4a3.dev225

  ==> Input File <==

--------------------------------------------------------------------------
#psi4
#
memory 32 gb

molecule  {
0 1
  C       -2.1229620    -0.0000010    -0.5285820
  C       -3.0262580     0.7522420     0.4138790
  C       -3.0262580    -0.7522400     0.4138820
  C       -0.6463130    -0.0000010    -0.3104390
  C        0.0658190     1.2029900    -0.2211540
  C        0.0658190    -1.2029910    -0.2211540
  C        1.4498120     1.2013260    -0.0471800
  C        1.4498130    -1.2013260    -0.0471800
  C        2.1649180     0.0000000     0.0407490
  C        3.6537450     0.0000010     0.2729580
  H       -2.4338460    -0.0000040    -1.5729350
  H       -3.8872420     1.2699250     0.0031310
  H       -2.5778946     1.2303682     1.2153985
  H       -2.5562430    -1.2534530     1.2541090
  H       -3.8872430    -1.2699240     0.0031370
  H       -0.4732260     2.1464250    -0.2897140
  H       -0.4732250    -2.1464270    -0.2897140
  H        1.9843610     2.1482350     0.0181390
  H        1.9843620    -2.1482350     0.0181390
  H        4.1207180    -0.8853500    -0.1681390
  H        4.1207180     0.8853520    -0.1681380
  H        3.8883030     0.0000000     1.3432050
units angstrom
no_reorient  #important for SAPT in psi4, default
symmetry c1  #important for SAPT in psi4, default
}

set PROPERTIES_ORIGIN ["COM"]
properties('MP2/aug-cc-pvtz', properties = ['dipole'])
--------------------------------------------------------------------------

    Molecular point group: c1
  Charge       = 0
  Multiplicity = 1
  Basis Set: AUG-CC-PVTZ
    Blend: AUG-CC-PVTZ
  Basis Set: (AUG-CC-PVTZ AUX)
    Blend: AUG-CC-PVTZ-JKFIT

    Orbital Energies [Eh]
    ---------------------

    Doubly Occupied:

       1A    -11.237944     2A    -11.234047     3A    -11.232616
       4A    -11.229183     5A    -11.229016     6A    -11.227487
       7A    -11.227416     8A    -11.223988     9A    -11.222473
      10A    -11.218430    11A     -1.163588    12A     -1.130491
      13A     -1.039243    14A     -1.006767    15A     -0.936778
      16A     -0.836879    17A     -0.832001    18A     -0.811224
      19A     -0.766576    20A     -0.688876    21A     -0.652175
      22A     -0.633797    23A     -0.626919    24A     -0.601503
      25A     -0.577062    26A     -0.573174    27A     -0.538451
      28A     -0.529664    29A     -0.515941    30A     -0.489737
      31A     -0.483718    32A     -0.476224    33A     -0.424029
      34A     -0.412816    35A     -0.331540    36A     -0.312284

  @DF-RHF Final Energy:  -385.76860312936191

   => Energetics <=

    Nuclear Repulsion Energy =            482.8341384960775144
    One-Electron Energy =               -1477.8573667067923907
    Two-Electron Energy =                 609.2546250813530833
    Total Energy =                       -385.7686031293618498
  Basis Set: (AUG-CC-PVTZ AUX)
    Blend: AUG-CC-PVTZ-RI
    Molecular point group: c1

    Geometry (in Angstrom), charge = 0, multiplicity = 1:

       Center              X                  Y                   Z               Mass
    ------------   -----------------  -----------------  -----------------  -----------------
         C           -2.124064791747     0.000175150925    -0.517731085143    12.000000000000
         C           -3.027360791747     0.752418150925     0.424729914857    12.000000000000
         C           -3.027360791747    -0.752063849075     0.424732914857    12.000000000000
         C           -0.647415791747     0.000175150925    -0.299588085143    12.000000000000
         C            0.064716208253     1.203166150925    -0.210303085143    12.000000000000
         C            0.064716208253    -1.202814849075    -0.210303085143    12.000000000000
         C            1.448709208253     1.201502150925    -0.036329085143    12.000000000000
         C            1.448710208253    -1.201149849075    -0.036329085143    12.000000000000
         C            2.163815208253     0.000176150925     0.051599914857    12.000000000000
         C            3.652642208253     0.000177150925     0.283808914857    12.000000000000
         H           -2.434948791747     0.000172150925    -1.562084085143     1.007825032230
         H           -3.888344791747     1.270101150925     0.013981914857     1.007825032230
         H           -2.578997391747     1.230544350925     1.226249414857     1.007825032230
         H           -2.557345791747    -1.253276849075     1.264959914857     1.007825032230
         H           -3.888345791747    -1.269747849075     0.013987914857     1.007825032230
         H           -0.474328791747     2.146601150925    -0.278863085143     1.007825032230
         H           -0.474327791747    -2.146250849075    -0.278863085143     1.007825032230
         H            1.983258208253     2.148411150925     0.028989914857     1.007825032230
         H            1.983259208253    -2.148058849075     0.028989914857     1.007825032230
         H            4.119615208253    -0.885173849075    -0.157288085143     1.007825032230
         H            4.119615208253     0.885528150925    -0.157287085143     1.007825032230
         H            3.887200208253     0.000176150925     1.354055914857     1.007825032230

  Basis Set: AUG-CC-PVTZ
    Blend: AUG-CC-PVTZ
  Basis Set: (AUG-CC-PVTZ AUX)
    Blend: AUG-CC-PVTZ-JKFIT
	 Reference Energy          =    -385.7686031293619067 [Eh]
	 Singles Energy            =      -0.0000000000000000 [Eh]
	 Same-Spin Energy          =      -0.4316786411508428 [Eh]
	 Opposite-Spin Energy      =      -1.4112445898306571 [Eh]
	 Correlation Energy        =      -1.8429232309815000 [Eh]
	 Total Energy              =    -387.6115263603434187 [Eh]

	 ================> DF-SCS-MP2 Energies <==================
	-----------------------------------------------------------
	 SCS Same-Spin Scale       =       0.3333333333333333 [-]
	 SCS Opposite-Spin Scale   =       1.2000000000000000 [-]
	 SCS Same-Spin Energy      =      -0.1438928803836143 [Eh]
	 SCS Opposite-Spin Energy  =      -1.6934935077967885 [Eh]
	 SCS Correlation Energy    =      -1.8373863881804029 [Eh]
	 SCS Total Energy          =    -387.6059895175422980 [Eh]
	-----------------------------------------------------------

  Dipole Moment: [D]
     X:     0.1188      Y:     0.0104      Z:     0.0383     Total:     0.1253

*** Psi4 exiting successfully. Buy a developer a beer!
