                               Psi4 1.4a3.dev225

  ==> Input File <==

--------------------------------------------------------------------------
#psi4
#
memory 32 gb

molecule  {
0 1
  C       -2.1229620    -0.0000010    -0.5285820
  C       -3.0262580     0.7522420     0.4138790
  C       -3.0262580    -0.7522400     0.4138820
  C       -0.6463130    -0.0000010    -0.3104390
  C        0.0658190     1.2029900    -0.2211540
  C        0.0658190    -1.2029910    -0.2211540
  C        1.4498120     1.2013260    -0.0471800
  C        1.4498130    -1.2013260    -0.0471800
  C        2.1649180     0.0000000     0.0407490
  C        3.6537450     0.0000010     0.2729580
  H       -2.4338460    -0.0000040    -1.5729350
  H       -3.8872420     1.2699250     0.0031310
  H       -2.5562430     1.2534570     1.2541040
  H       -2.5562430    -1.2534530     1.2541090
  H       -3.9031084    -1.2794634    -0.0044318
  H       -0.4732260     2.1464250    -0.2897140
  H       -0.4732250    -2.1464270    -0.2897140
  H        1.9843610     2.1482350     0.0181390
  H        1.9843620    -2.1482350     0.0181390
  H        4.1207180    -0.8853500    -0.1681390
  H        4.1207180     0.8853520    -0.1681380
  H        3.8883030     0.0000000     1.3432050
units angstrom
no_reorient  #important for SAPT in psi4, default
symmetry c1  #important for SAPT in psi4, default
}

set PROPERTIES_ORIGIN ["COM"]
properties('MP2/aug-cc-pvtz', properties = ['dipole'])
--------------------------------------------------------------------------

    Molecular point group: c1
  Charge       = 0
  Multiplicity = 1
  Basis Set: AUG-CC-PVTZ
    Blend: AUG-CC-PVTZ
  Basis Set: (AUG-CC-PVTZ AUX)
    Blend: AUG-CC-PVTZ-JKFIT

    Orbital Energies [Eh]
    ---------------------

    Doubly Occupied:

       1A    -11.237987     2A    -11.234214     3A    -11.233142
       4A    -11.229238     5A    -11.229079     6A    -11.227522
       7A    -11.227452     8A    -11.226704     9A    -11.224446
      10A    -11.222501    11A     -1.163385    12A     -1.130090
      13A     -1.039131    14A     -1.006806    15A     -0.936638
      16A     -0.833449    17A     -0.831419    18A     -0.807748
      19A     -0.765770    20A     -0.686836    21A     -0.650970
      22A     -0.633755    23A     -0.626313    24A     -0.599482
      25A     -0.577099    26A     -0.573185    27A     -0.538449
      28A     -0.528227    29A     -0.510771    30A     -0.489729
      31A     -0.483754    32A     -0.476154    33A     -0.424343
      34A     -0.412750    35A     -0.331562    36A     -0.312341

  @DF-RHF Final Energy:  -385.76895973078376

   => Energetics <=

    Nuclear Repulsion Energy =            482.5235877766131694
    One-Electron Energy =               -1477.2602149997776451
    Two-Electron Energy =                 608.9676674923807695
    Total Energy =                       -385.7689597307837630
  Basis Set: (AUG-CC-PVTZ AUX)
    Blend: AUG-CC-PVTZ-RI
    Molecular point group: c1

    Geometry (in Angstrom), charge = 0, multiplicity = 1:

       Center              X                  Y                   Z               Mass
    ------------   -----------------  -----------------  -----------------  -----------------
         C           -2.124108938200     0.000071774278    -0.517968646042    12.000000000000
         C           -3.027404938200     0.752314774278     0.424492353958    12.000000000000
         C           -3.027404938200    -0.752167225722     0.424495353958    12.000000000000
         C           -0.647459938200     0.000071774278    -0.299825646042    12.000000000000
         C            0.064672061800     1.203062774278    -0.210540646042    12.000000000000
         C            0.064672061800    -1.202918225722    -0.210540646042    12.000000000000
         C            1.448665061800     1.201398774278    -0.036566646042    12.000000000000
         C            1.448666061800    -1.201253225722    -0.036566646042    12.000000000000
         C            2.163771061800     0.000072774278     0.051362353958    12.000000000000
         C            3.652598061800     0.000073774278     0.283571353958    12.000000000000
         H           -2.434992938200     0.000068774278    -1.562321646042     1.007825032230
         H           -3.888388938200     1.269997774278     0.013744353958     1.007825032230
         H           -2.557389938200     1.253529774278     1.264717353958     1.007825032230
         H           -2.557389938200    -1.253380225722     1.264722353958     1.007825032230
         H           -3.904255338200    -1.279390625722     0.006181553958     1.007825032230
         H           -0.474372938200     2.146497774278    -0.279100646042     1.007825032230
         H           -0.474371938200    -2.146354225722    -0.279100646042     1.007825032230
         H            1.983214061800     2.148307774278     0.028752353958     1.007825032230
         H            1.983215061800    -2.148162225722     0.028752353958     1.007825032230
         H            4.119571061800    -0.885277225722    -0.157525646042     1.007825032230
         H            4.119571061800     0.885424774278    -0.157524646042     1.007825032230
         H            3.887156061800     0.000072774278     1.353818353958     1.007825032230

  Basis Set: AUG-CC-PVTZ
    Blend: AUG-CC-PVTZ
  Basis Set: (AUG-CC-PVTZ AUX)
    Blend: AUG-CC-PVTZ-JKFIT
	 Reference Energy          =    -385.7689597307837630 [Eh]
	 Singles Energy            =      -0.0000000000000000 [Eh]
	 Same-Spin Energy          =      -0.4317168069831349 [Eh]
	 Opposite-Spin Energy      =      -1.4116091010842000 [Eh]
	 Correlation Energy        =      -1.8433259080673348 [Eh]
	 Total Energy              =    -387.6122856388511195 [Eh]

	 ================> DF-SCS-MP2 Energies <==================
	-----------------------------------------------------------
	 SCS Same-Spin Scale       =       0.3333333333333333 [-]
	 SCS Opposite-Spin Scale   =       1.2000000000000000 [-]
	 SCS Same-Spin Energy      =      -0.1439056023277116 [Eh]
	 SCS Opposite-Spin Energy  =      -1.6939309213010401 [Eh]
	 SCS Correlation Energy    =      -1.8378365236287517 [Eh]
	 SCS Total Energy          =    -387.6067962544125294 [Eh]
	-----------------------------------------------------------

  Dipole Moment: [D]
     X:     0.1245      Y:     0.0065      Z:     0.0295     Total:     0.1281

*** Psi4 exiting successfully. Buy a developer a beer!
