                               Psi4 1.4a3.dev225

  ==> Input File <==

--------------------------------------------------------------------------
#psi4
#
memory 32 gb

molecule  {
0 1
  C       -2.1229620    -0.0000010    -0.5285820
  C       -3.0262580     0.7522420     0.4138790
  C       -3.0774932    -0.7485753     0.3222910
  C       -0.6463130    -0.0000010    -0.3104390
  C        0.0658190     1.2029900    -0.2211540
  C        0.0658190    -1.2029910    -0.2211540
  C        1.4498120     1.2013260    -0.0471800
  C        1.4498130    -1.2013260    -0.0471800
  C        2.1649180     0.0000000     0.0407490
  C        3.6537450     0.0000010     0.2729580
  H       -2.4338460    -0.0000040    -1.5729350
  H       -3.8872420     1.2699250     0.0031310
  H       -2.5562430     1.2534570     1.2541040
  H       -2.5562430    -1.2534530     1.2541090
  H       -3.8872430    -1.2699240     0.0031370
  H       -0.4732260     2.1464250    -0.2897140
  H       -0.4732250    -2.1464270    -0.2897140
  H        1.9843610     2.1482350     0.0181390
  H        1.9843620    -2.1482350     0.0181390
  H        4.1207180    -0.8853500    -0.1681390
  H        4.1207180     0.8853520    -0.1681380
  H        3.8883030     0.0000000     1.3432050
units angstrom
no_reorient  #important for SAPT in psi4, default
symmetry c1  #important for SAPT in psi4, default
}

set PROPERTIES_ORIGIN ["COM"]
properties('MP2/aug-cc-pvtz', properties = ['dipole'])
--------------------------------------------------------------------------

    Molecular point group: c1
  Charge       = 0
  Multiplicity = 1
  Basis Set: AUG-CC-PVTZ
    Blend: AUG-CC-PVTZ
  Basis Set: (AUG-CC-PVTZ AUX)
    Blend: AUG-CC-PVTZ-JKFIT

    Orbital Energies [Eh]
    ---------------------

    Doubly Occupied:

       1A    -11.238389     2A    -11.235474     3A    -11.233418
       4A    -11.230041     5A    -11.229552     6A    -11.228018
       7A    -11.227704     8A    -11.226011     9A    -11.223788
      10A    -11.222717    11A     -1.165483    12A     -1.132877
      13A     -1.040244    14A     -1.007205    15A     -0.937355
      16A     -0.835008    17A     -0.832217    18A     -0.810893
      19A     -0.765980    20A     -0.684415    21A     -0.663820
      22A     -0.634419    23A     -0.627732    24A     -0.596136
      25A     -0.577491    26A     -0.573407    27A     -0.539128
      28A     -0.527269    29A     -0.504326    30A     -0.489427
      31A     -0.484288    32A     -0.476333    33A     -0.424744
      34A     -0.413554    35A     -0.331852    36A     -0.312675

  @DF-RHF Final Energy:  -385.75701077750279

   => Energetics <=

    Nuclear Repulsion Energy =            482.5319899420768479
    One-Electron Energy =               -1477.2112212174870365
    Two-Electron Energy =                 608.9222204979073467
    Total Energy =                       -385.7570107775028418
  Basis Set: (AUG-CC-PVTZ AUX)
    Blend: AUG-CC-PVTZ-RI
    Molecular point group: c1

    Geometry (in Angstrom), charge = 0, multiplicity = 1:

       Center              X                  Y                   Z               Mass
    ------------   -----------------  -----------------  -----------------  -----------------
         C           -2.119575550580    -0.000333925349    -0.509705857445    12.000000000000
         C           -3.022871550580     0.751909074651     0.432755142555    12.000000000000
         C           -3.074106750580    -0.748908225349     0.341167142555    12.000000000000
         C           -0.642926550580    -0.000333925349    -0.291562857445    12.000000000000
         C            0.069205449420     1.202657074651    -0.202277857445    12.000000000000
         C            0.069205449420    -1.203323925349    -0.202277857445    12.000000000000
         C            1.453198449420     1.200993074651    -0.028303857445    12.000000000000
         C            1.453199449420    -1.201658925349    -0.028303857445    12.000000000000
         C            2.168304449420    -0.000332925349     0.059625142555    12.000000000000
         C            3.657131449420    -0.000331925349     0.291834142555    12.000000000000
         H           -2.430459550580    -0.000336925349    -1.554058857445     1.007825032230
         H           -3.883855550580     1.269592074651     0.022007142555     1.007825032230
         H           -2.552856550580     1.253124074651     1.272980142555     1.007825032230
         H           -2.552856550580    -1.253785925349     1.272985142555     1.007825032230
         H           -3.883856550580    -1.270256925349     0.022013142555     1.007825032230
         H           -0.469839550580     2.146092074651    -0.270837857445     1.007825032230
         H           -0.469838550580    -2.146759925349    -0.270837857445     1.007825032230
         H            1.987747449420     2.147902074651     0.037015142555     1.007825032230
         H            1.987748449420    -2.148567925349     0.037015142555     1.007825032230
         H            4.124104449420    -0.885682925349    -0.149262857445     1.007825032230
         H            4.124104449420     0.885019074651    -0.149261857445     1.007825032230
         H            3.891689449420    -0.000332925349     1.362081142555     1.007825032230

  Basis Set: AUG-CC-PVTZ
    Blend: AUG-CC-PVTZ
  Basis Set: (AUG-CC-PVTZ AUX)
    Blend: AUG-CC-PVTZ-JKFIT
	 Reference Energy          =    -385.7570107775027850 [Eh]
	 Singles Energy            =      -0.0000000000000000 [Eh]
	 Same-Spin Energy          =      -0.4319559078381500 [Eh]
	 Opposite-Spin Energy      =      -1.4120218139433254 [Eh]
	 Correlation Energy        =      -1.8439777217814752 [Eh]
	 Total Energy              =    -387.6009884992842558 [Eh]

	 ================> DF-SCS-MP2 Energies <==================
	-----------------------------------------------------------
	 SCS Same-Spin Scale       =       0.3333333333333333 [-]
	 SCS Opposite-Spin Scale   =       1.2000000000000000 [-]
	 SCS Same-Spin Energy      =      -0.1439853026127166 [Eh]
	 SCS Opposite-Spin Energy  =      -1.6944261767319904 [Eh]
	 SCS Correlation Energy    =      -1.8384114793447071 [Eh]
	 SCS Total Energy          =    -387.5954222568474847 [Eh]
	-----------------------------------------------------------

  Dipole Moment: [D]
     X:     0.1208      Y:    -0.0131      Z:    -0.0087     Total:     0.1218

*** Psi4 exiting successfully. Buy a developer a beer!
