                               Psi4 1.4a3.dev225

  ==> Input File <==

--------------------------------------------------------------------------
#psi4
#
memory 32 gb

molecule  {
0 1
  C       -2.1229620    -0.0000010    -0.5285820
  C       -3.0262580     0.7522420     0.4138790
  C       -3.0262580    -0.7522400     0.4138820
  C       -0.6463130    -0.0000010    -0.3104390
  C        0.0658190     1.2029900    -0.2211540
  C        0.0658190    -1.2029910    -0.2211540
  C        1.4498120     1.2013260    -0.0471800
  C        1.4498130    -1.2013260    -0.0471800
  C        2.1649180     0.0000000     0.0407490
  C        3.6537450     0.0000010     0.2729580
  H       -2.4338460    -0.0000040    -1.5729350
  H       -4.0458963     1.3653189    -0.0725579
  H       -2.5562430     1.2534570     1.2541040
  H       -2.5562430    -1.2534530     1.2541090
  H       -3.8872430    -1.2699240     0.0031370
  H       -0.4732260     2.1464250    -0.2897140
  H       -0.4732250    -2.1464270    -0.2897140
  H        1.9843610     2.1482350     0.0181390
  H        1.9843620    -2.1482350     0.0181390
  H        4.1207180    -0.8853500    -0.1681390
  H        4.1207180     0.8853520    -0.1681380
  H        3.8883030     0.0000000     1.3432050
units angstrom
no_reorient  #important for SAPT in psi4, default
symmetry c1  #important for SAPT in psi4, default
}

set PROPERTIES_ORIGIN ["COM"]
properties('MP2/aug-cc-pvtz', properties = ['dipole'])
--------------------------------------------------------------------------

    Molecular point group: c1
  Charge       = 0
  Multiplicity = 1
  Basis Set: AUG-CC-PVTZ
    Blend: AUG-CC-PVTZ
  Basis Set: (AUG-CC-PVTZ AUX)
    Blend: AUG-CC-PVTZ-JKFIT

    Orbital Energies [Eh]
    ---------------------

    Doubly Occupied:

       1A    -11.246250     2A    -11.238797     3A    -11.235515
       4A    -11.234828     5A    -11.230208     6A    -11.229975
       7A    -11.228361     8A    -11.228231     9A    -11.226536
      10A    -11.223059    11A     -1.164200    12A     -1.130404
      13A     -1.039606    14A     -1.007646    15A     -0.936981
      16A     -0.833881    17A     -0.828696    18A     -0.800228
      19A     -0.765912    20A     -0.686589    21A     -0.640940
      22A     -0.633568    23A     -0.624959    24A     -0.600752
      25A     -0.577873    26A     -0.573700    27A     -0.538883
      28A     -0.527855    29A     -0.497667    30A     -0.487350
      31A     -0.484136    32A     -0.474683    33A     -0.425752
      34A     -0.411813    35A     -0.332368    36A     -0.313291

  @DF-RHF Final Energy:  -385.74818059023693

   => Energetics <=

    Nuclear Repulsion Energy =            481.7462181346645025
    One-Electron Energy =               -1475.6658143116417250
    Two-Electron Energy =                 608.1714155867401814
    Total Energy =                       -385.7481805902369842
  Basis Set: (AUG-CC-PVTZ AUX)
    Blend: AUG-CC-PVTZ-RI
    Molecular point group: c1

    Geometry (in Angstrom), charge = 0, multiplicity = 1:

       Center              X                  Y                   Z               Mass
    ------------   -----------------  -----------------  -----------------  -----------------
         C           -2.123019514485    -0.000728825947    -0.517448916200    12.000000000000
         C           -3.026315514485     0.751514174053     0.425012083800    12.000000000000
         C           -3.026315514485    -0.752967825947     0.425015083800    12.000000000000
         C           -0.646370514485    -0.000728825947    -0.299305916200    12.000000000000
         C            0.065761485515     1.202262174053    -0.210020916200    12.000000000000
         C            0.065761485515    -1.203718825947    -0.210020916200    12.000000000000
         C            1.449754485515     1.200598174053    -0.036046916200    12.000000000000
         C            1.449755485515    -1.202053825947    -0.036046916200    12.000000000000
         C            2.164860485515    -0.000727825947     0.051882083800    12.000000000000
         C            3.653687485515    -0.000726825947     0.284091083800    12.000000000000
         H           -2.433903514485    -0.000731825947    -1.561801916200     1.007825032230
         H           -4.045953814485     1.364591074053    -0.061424816200     1.007825032230
         H           -2.556300514485     1.252729174053     1.265237083800     1.007825032230
         H           -2.556300514485    -1.254180825947     1.265242083800     1.007825032230
         H           -3.887300514485    -1.270651825947     0.014270083800     1.007825032230
         H           -0.473283514485     2.145697174053    -0.278580916200     1.007825032230
         H           -0.473282514485    -2.147154825947    -0.278580916200     1.007825032230
         H            1.984303485515     2.147507174053     0.029272083800     1.007825032230
         H            1.984304485515    -2.148962825947     0.029272083800     1.007825032230
         H            4.120660485515    -0.886077825947    -0.157005916200     1.007825032230
         H            4.120660485515     0.884624174053    -0.157004916200     1.007825032230
         H            3.888245485515    -0.000727825947     1.354338083800     1.007825032230

  Basis Set: AUG-CC-PVTZ
    Blend: AUG-CC-PVTZ
  Basis Set: (AUG-CC-PVTZ AUX)
    Blend: AUG-CC-PVTZ-JKFIT
	 Reference Energy          =    -385.7481805902369274 [Eh]
	 Singles Energy            =      -0.0000000000000000 [Eh]
	 Same-Spin Energy          =      -0.4317842833947710 [Eh]
	 Opposite-Spin Energy      =      -1.4131724608495493 [Eh]
	 Correlation Energy        =      -1.8449567442443202 [Eh]
	 Total Energy              =    -387.5931373344812414 [Eh]

	 ================> DF-SCS-MP2 Energies <==================
	-----------------------------------------------------------
	 SCS Same-Spin Scale       =       0.3333333333333333 [-]
	 SCS Opposite-Spin Scale   =       1.2000000000000000 [-]
	 SCS Same-Spin Energy      =      -0.1439280944649237 [Eh]
	 SCS Opposite-Spin Energy  =      -1.6958069530194591 [Eh]
	 SCS Correlation Energy    =      -1.8397350474843828 [Eh]
	 SCS Total Energy          =    -387.5879156377213235 [Eh]
	-----------------------------------------------------------

  Dipole Moment: [D]
     X:     0.2364      Y:    -0.0859      Z:     0.0370     Total:     0.2543

*** Psi4 exiting successfully. Buy a developer a beer!
