                               Psi4 1.4a3.dev225

  ==> Input File <==

--------------------------------------------------------------------------
#psi4
#
memory 32 gb

molecule  {
0 1
  C       -2.1229620    -0.0000010    -0.5285820
  C       -2.9838581     0.7670089     0.4412632
  C       -3.0262580    -0.7522400     0.4138820
  C       -0.6463130    -0.0000010    -0.3104390
  C        0.0658190     1.2029900    -0.2211540
  C        0.0658190    -1.2029910    -0.2211540
  C        1.4498120     1.2013260    -0.0471800
  C        1.4498130    -1.2013260    -0.0471800
  C        2.1649180     0.0000000     0.0407490
  C        3.6537450     0.0000010     0.2729580
  H       -2.4338460    -0.0000040    -1.5729350
  H       -3.8872420     1.2699250     0.0031310
  H       -2.5562430     1.2534570     1.2541040
  H       -2.5562430    -1.2534530     1.2541090
  H       -3.8872430    -1.2699240     0.0031370
  H       -0.4732260     2.1464250    -0.2897140
  H       -0.4732250    -2.1464270    -0.2897140
  H        1.9843610     2.1482350     0.0181390
  H        1.9843620    -2.1482350     0.0181390
  H        4.1207180    -0.8853500    -0.1681390
  H        4.1207180     0.8853520    -0.1681380
  H        3.8883030     0.0000000     1.3432050
units angstrom
no_reorient  #important for SAPT in psi4, default
symmetry c1  #important for SAPT in psi4, default
}

set PROPERTIES_ORIGIN ["COM"]
properties('MP2/aug-cc-pvtz', properties = ['dipole'])
--------------------------------------------------------------------------

    Molecular point group: c1
  Charge       = 0
  Multiplicity = 1
  Basis Set: AUG-CC-PVTZ
    Blend: AUG-CC-PVTZ
  Basis Set: (AUG-CC-PVTZ AUX)
    Blend: AUG-CC-PVTZ-JKFIT

    Orbital Energies [Eh]
    ---------------------

    Doubly Occupied:

       1A    -11.237873     2A    -11.234370     3A    -11.233454
       4A    -11.229136     5A    -11.228837     6A    -11.227500
       7A    -11.227314     8A    -11.225074     9A    -11.224332
      10A    -11.222449    11A     -1.162944    12A     -1.128833
      13A     -1.038514    14A     -1.006732    15A     -0.936277
      16A     -0.835558    17A     -0.831699    18A     -0.809812
      19A     -0.766518    20A     -0.688157    21A     -0.648325
      22A     -0.633675    23A     -0.626587    24A     -0.601983
      25A     -0.577011    26A     -0.573115    27A     -0.538399
      28A     -0.528923    29A     -0.514661    30A     -0.488576
      31A     -0.483750    32A     -0.476250    33A     -0.419793
      34A     -0.414774    35A     -0.331511    36A     -0.312071

  @DF-RHF Final Energy:  -385.76621503332376

   => Energetics <=

    Nuclear Repulsion Energy =            482.8046582291630102
    One-Electron Energy =               -1477.8121710582033757
    Two-Electron Energy =                 609.2412977957166049
    Total Energy =                       -385.7662150333237605
  Basis Set: (AUG-CC-PVTZ AUX)
    Blend: AUG-CC-PVTZ-RI
    Molecular point group: c1

    Geometry (in Angstrom), charge = 0, multiplicity = 1:

       Center              X                  Y                   Z               Mass
    ------------   -----------------  -----------------  -----------------  -----------------
         C           -2.128081781350    -0.001342498792    -0.520514096098    12.000000000000
         C           -2.988977881350     0.765667401208     0.449331103902    12.000000000000
         C           -3.031377781350    -0.753581498792     0.421949903902    12.000000000000
         C           -0.651432781350    -0.001342498792    -0.302371096098    12.000000000000
         C            0.060699218650     1.201648501208    -0.213086096098    12.000000000000
         C            0.060699218650    -1.204332498792    -0.213086096098    12.000000000000
         C            1.444692218650     1.199984501208    -0.039112096098    12.000000000000
         C            1.444693218650    -1.202667498792    -0.039112096098    12.000000000000
         C            2.159798218650    -0.001341498792     0.048816903902    12.000000000000
         C            3.648625218650    -0.001340498792     0.281025903902    12.000000000000
         H           -2.438965781350    -0.001345498792    -1.564867096098     1.007825032230
         H           -3.892361781350     1.268583501208     0.011198903902     1.007825032230
         H           -2.561362781350     1.252115501208     1.262171903902     1.007825032230
         H           -2.561362781350    -1.254794498792     1.262176903902     1.007825032230
         H           -3.892362781350    -1.271265498792     0.011204903902     1.007825032230
         H           -0.478345781350     2.145083501208    -0.281646096098     1.007825032230
         H           -0.478344781350    -2.147768498792    -0.281646096098     1.007825032230
         H            1.979241218650     2.146893501208     0.026206903902     1.007825032230
         H            1.979242218650    -2.149576498792     0.026206903902     1.007825032230
         H            4.115598218650    -0.886691498792    -0.160071096098     1.007825032230
         H            4.115598218650     0.884010501208    -0.160070096098     1.007825032230
         H            3.883183218650    -0.001341498792     1.351272903902     1.007825032230

  Basis Set: AUG-CC-PVTZ
    Blend: AUG-CC-PVTZ
  Basis Set: (AUG-CC-PVTZ AUX)
    Blend: AUG-CC-PVTZ-JKFIT
	 Reference Energy          =    -385.7662150333237605 [Eh]
	 Singles Energy            =      -0.0000000000000000 [Eh]
	 Same-Spin Energy          =      -0.4317435486711293 [Eh]
	 Opposite-Spin Energy      =      -1.4117713873408473 [Eh]
	 Correlation Energy        =      -1.8435149360119767 [Eh]
	 Total Energy              =    -387.6097299693357172 [Eh]

	 ================> DF-SCS-MP2 Energies <==================
	-----------------------------------------------------------
	 SCS Same-Spin Scale       =       0.3333333333333333 [-]
	 SCS Opposite-Spin Scale   =       1.2000000000000000 [-]
	 SCS Same-Spin Energy      =      -0.1439145162237098 [Eh]
	 SCS Opposite-Spin Energy  =      -1.6941256648090166 [Eh]
	 SCS Correlation Energy    =      -1.8380401810327263 [Eh]
	 SCS Total Energy          =    -387.6042552143564990 [Eh]
	-----------------------------------------------------------

  Dipole Moment: [D]
     X:     0.1309      Y:    -0.0185      Z:     0.0303     Total:     0.1357

*** Psi4 exiting successfully. Buy a developer a beer!
