                               Psi4 1.4a3.dev225

  ==> Input File <==

--------------------------------------------------------------------------
#psi4
#
memory 32 gb

molecule  {
0 1
  C       -2.1229620    -0.0000010    -0.5285820
  C       -3.0262580     0.7522420     0.4138790
  C       -3.0006248    -0.7513234     0.4597054
  C       -0.6463130    -0.0000010    -0.3104390
  C        0.0658190     1.2029900    -0.2211540
  C        0.0658190    -1.2029910    -0.2211540
  C        1.4498120     1.2013260    -0.0471800
  C        1.4498130    -1.2013260    -0.0471800
  C        2.1649180     0.0000000     0.0407490
  C        3.6537450     0.0000010     0.2729580
  H       -2.4338460    -0.0000040    -1.5729350
  H       -3.8872420     1.2699250     0.0031310
  H       -2.5562430     1.2534570     1.2541040
  H       -2.5562430    -1.2534530     1.2541090
  H       -3.8872430    -1.2699240     0.0031370
  H       -0.4732260     2.1464250    -0.2897140
  H       -0.4732250    -2.1464270    -0.2897140
  H        1.9843610     2.1482350     0.0181390
  H        1.9843620    -2.1482350     0.0181390
  H        4.1207180    -0.8853500    -0.1681390
  H        4.1207180     0.8853520    -0.1681380
  H        3.8883030     0.0000000     1.3432050
units angstrom
no_reorient  #important for SAPT in psi4, default
symmetry c1  #important for SAPT in psi4, default
}

set PROPERTIES_ORIGIN ["COM"]
properties('MP2/aug-cc-pvtz', properties = ['dipole'])
--------------------------------------------------------------------------

    Molecular point group: c1
  Charge       = 0
  Multiplicity = 1
  Basis Set: AUG-CC-PVTZ
    Blend: AUG-CC-PVTZ
  Basis Set: (AUG-CC-PVTZ AUX)
    Blend: AUG-CC-PVTZ-JKFIT

    Orbital Energies [Eh]
    ---------------------

    Doubly Occupied:

       1A    -11.237782     2A    -11.233893     3A    -11.233203
       4A    -11.228969     5A    -11.228724     6A    -11.227360
       7A    -11.227207     8A    -11.225417     9A    -11.224413
      10A    -11.222385    11A     -1.162609    12A     -1.128973
      13A     -1.038714    14A     -1.006602    15A     -0.936472
      16A     -0.834961    17A     -0.831977    18A     -0.809524
      19A     -0.766319    20A     -0.687822    21A     -0.648190
      22A     -0.633452    23A     -0.626497    24A     -0.602627
      25A     -0.576893    26A     -0.573058    27A     -0.538218
      28A     -0.529348    29A     -0.513727    30A     -0.489189
      31A     -0.483445    32A     -0.476167    33A     -0.425474
      34A     -0.408935    35A     -0.331397    36A     -0.312149

  @DF-RHF Final Energy:  -385.76617381779948

   => Energetics <=

    Nuclear Repulsion Energy =            482.6672039179267699
    One-Electron Energy =               -1477.5425662401985392
    Two-Electron Energy =                 609.1091885044721721
    Total Energy =                       -385.7661738177995403
  Basis Set: (AUG-CC-PVTZ AUX)
    Blend: AUG-CC-PVTZ-RI
    Molecular point group: c1

    Geometry (in Angstrom), charge = 0, multiplicity = 1:

       Center              X                  Y                   Z               Mass
    ------------   -----------------  -----------------  -----------------  -----------------
         C           -2.126558619422    -0.000084275668    -0.522189195397    12.000000000000
         C           -3.029854619422     0.752158724332     0.420271804603    12.000000000000
         C           -3.004221419422    -0.751406675668     0.466098204603    12.000000000000
         C           -0.649909619422    -0.000084275668    -0.304046195397    12.000000000000
         C            0.062222380578     1.202906724332    -0.214761195397    12.000000000000
         C            0.062222380578    -1.203074275668    -0.214761195397    12.000000000000
         C            1.446215380578     1.201242724332    -0.040787195397    12.000000000000
         C            1.446216380578    -1.201409275668    -0.040787195397    12.000000000000
         C            2.161321380578    -0.000083275668     0.047141804603    12.000000000000
         C            3.650148380578    -0.000082275668     0.279350804603    12.000000000000
         H           -2.437442619422    -0.000087275668    -1.566542195397     1.007825032230
         H           -3.890838619422     1.269841724332     0.009523804603     1.007825032230
         H           -2.559839619422     1.253373724332     1.260496804603     1.007825032230
         H           -2.559839619422    -1.253536275668     1.260501804603     1.007825032230
         H           -3.890839619422    -1.270007275668     0.009529804603     1.007825032230
         H           -0.476822619422     2.146341724332    -0.283321195397     1.007825032230
         H           -0.476821619422    -2.146510275668    -0.283321195397     1.007825032230
         H            1.980764380578     2.148151724332     0.024531804603     1.007825032230
         H            1.980765380578    -2.148318275668     0.024531804603     1.007825032230
         H            4.117121380578    -0.885433275668    -0.161746195397     1.007825032230
         H            4.117121380578     0.885268724332    -0.161745195397     1.007825032230
         H            3.884706380578    -0.000083275668     1.349597804603     1.007825032230

  Basis Set: AUG-CC-PVTZ
    Blend: AUG-CC-PVTZ
  Basis Set: (AUG-CC-PVTZ AUX)
    Blend: AUG-CC-PVTZ-JKFIT
	 Reference Energy          =    -385.7661738177994835 [Eh]
	 Singles Energy            =      -0.0000000000000000 [Eh]
	 Same-Spin Energy          =      -0.4317301090617540 [Eh]
	 Opposite-Spin Energy      =      -1.4117335010383738 [Eh]
	 Correlation Energy        =      -1.8434636101001278 [Eh]
	 Total Energy              =    -387.6096374278995995 [Eh]

	 ================> DF-SCS-MP2 Energies <==================
	-----------------------------------------------------------
	 SCS Same-Spin Scale       =       0.3333333333333333 [-]
	 SCS Opposite-Spin Scale   =       1.2000000000000000 [-]
	 SCS Same-Spin Energy      =      -0.1439100363539180 [Eh]
	 SCS Opposite-Spin Energy  =      -1.6940802012460485 [Eh]
	 SCS Correlation Energy    =      -1.8379902375999666 [Eh]
	 SCS Total Energy          =    -387.6041640553994512 [Eh]
	-----------------------------------------------------------

  Dipole Moment: [D]
     X:     0.1239      Y:     0.0239      Z:     0.0378     Total:     0.1317

*** Psi4 exiting successfully. Buy a developer a beer!
