                               Psi4 1.4a3.dev225

  ==> Input File <==

--------------------------------------------------------------------------
#psi4
#
memory 32 gb

molecule  {
0 1
  C       -2.1229620    -0.0000010    -0.5285820
  C       -3.0262580     0.7522420     0.4138790
  C       -3.0262580    -0.7522400     0.4138820
  C       -0.6463130    -0.0000010    -0.3104390
  C        0.0658190     1.2029900    -0.2211540
  C        0.0658190    -1.2029910    -0.2211540
  C        1.4498120     1.2013260    -0.0471800
  C        1.4498130    -1.2013260    -0.0471800
  C        2.1649180     0.0000000     0.0407490
  C        3.6735061     0.0000010     0.2760401
  H       -2.4338460    -0.0000040    -1.5729350
  H       -3.8872420     1.2699250     0.0031310
  H       -2.5562430     1.2534570     1.2541040
  H       -2.5562430    -1.2534530     1.2541090
  H       -3.8872430    -1.2699240     0.0031370
  H       -0.4732260     2.1464250    -0.2897140
  H       -0.4732250    -2.1464270    -0.2897140
  H        1.9843610     2.1482350     0.0181390
  H        1.9843620    -2.1482350     0.0181390
  H        4.1207180    -0.8853500    -0.1681390
  H        4.1207180     0.8853520    -0.1681380
  H        3.8883030     0.0000000     1.3432050
units angstrom
no_reorient  #important for SAPT in psi4, default
symmetry c1  #important for SAPT in psi4, default
}

set PROPERTIES_ORIGIN ["COM"]
properties('MP2/aug-cc-pvtz', properties = ['dipole'])
--------------------------------------------------------------------------

    Molecular point group: c1
  Charge       = 0
  Multiplicity = 1
  Basis Set: AUG-CC-PVTZ
    Blend: AUG-CC-PVTZ
  Basis Set: (AUG-CC-PVTZ AUX)
    Blend: AUG-CC-PVTZ-JKFIT

    Orbital Energies [Eh]
    ---------------------

    Doubly Occupied:

       1A    -11.238777     2A    -11.234036     3A    -11.232939
       4A    -11.229099     5A    -11.228941     6A    -11.227413
       7A    -11.227348     8A    -11.224613     9A    -11.223961
      10A    -11.221871    11A     -1.163101    12A     -1.129522
      13A     -1.037219    14A     -1.006600    15A     -0.937134
      16A     -0.833747    17A     -0.832152    18A     -0.808561
      19A     -0.765666    20A     -0.686780    21A     -0.651946
      22A     -0.633405    23A     -0.625239    24A     -0.598787
      25A     -0.577008    26A     -0.575335    27A     -0.542061
      28A     -0.525700    29A     -0.512289    30A     -0.489667
      31A     -0.484249    32A     -0.474790    33A     -0.424331
      34A     -0.412746    35A     -0.331393    36A     -0.312609

  @DF-RHF Final Energy:  -385.76944837810913

   => Energetics <=

    Nuclear Repulsion Energy =            482.2873392257689602
    One-Electron Energy =               -1476.7915011770294313
    Two-Electron Energy =                 608.7347135731513390
    Total Energy =                       -385.7694483781091321
  Basis Set: (AUG-CC-PVTZ AUX)
    Blend: AUG-CC-PVTZ-RI
    Molecular point group: c1

    Geometry (in Angstrom), charge = 0, multiplicity = 1:

       Center              X                  Y                   Z               Mass
    ------------   -----------------  -----------------  -----------------  -----------------
         C           -2.126025171626    -0.000001007630    -0.518306384771    12.000000000000
         C           -3.029321171626     0.752241992370     0.424154615229    12.000000000000
         C           -3.029321171626    -0.752240007630     0.424157615229    12.000000000000
         C           -0.649376171626    -0.000001007630    -0.300163384771    12.000000000000
         C            0.062755828374     1.202989992370    -0.210878384771    12.000000000000
         C            0.062755828374    -1.202991007630    -0.210878384771    12.000000000000
         C            1.446748828374     1.201325992370    -0.036904384771    12.000000000000
         C            1.446749828374    -1.201326007630    -0.036904384771    12.000000000000
         C            2.161854828374    -0.000000007630     0.051024615229    12.000000000000
         C            3.670442928374     0.000000992370     0.286315715229    12.000000000000
         H           -2.436909171626    -0.000004007630    -1.562659384771     1.007825032230
         H           -3.890305171626     1.269924992370     0.013406615229     1.007825032230
         H           -2.559306171626     1.253456992370     1.264379615229     1.007825032230
         H           -2.559306171626    -1.253453007630     1.264384615229     1.007825032230
         H           -3.890306171626    -1.269924007630     0.013412615229     1.007825032230
         H           -0.476289171626     2.146424992370    -0.279438384771     1.007825032230
         H           -0.476288171626    -2.146427007630    -0.279438384771     1.007825032230
         H            1.981297828374     2.148234992370     0.028414615229     1.007825032230
         H            1.981298828374    -2.148235007630     0.028414615229     1.007825032230
         H            4.117654828374    -0.885350007630    -0.157863384771     1.007825032230
         H            4.117654828374     0.885351992370    -0.157862384771     1.007825032230
         H            3.885239828374    -0.000000007630     1.353480615229     1.007825032230

  Basis Set: AUG-CC-PVTZ
    Blend: AUG-CC-PVTZ
  Basis Set: (AUG-CC-PVTZ AUX)
    Blend: AUG-CC-PVTZ-JKFIT
	 Reference Energy          =    -385.7694483781091321 [Eh]
	 Singles Energy            =      -0.0000000000000000 [Eh]
	 Same-Spin Energy          =      -0.4315622366946556 [Eh]
	 Opposite-Spin Energy      =      -1.4113725531813754 [Eh]
	 Correlation Energy        =      -1.8429347898760311 [Eh]
	 Total Energy              =    -387.6123831679851719 [Eh]

	 ================> DF-SCS-MP2 Energies <==================
	-----------------------------------------------------------
	 SCS Same-Spin Scale       =       0.3333333333333333 [-]
	 SCS Opposite-Spin Scale   =       1.2000000000000000 [-]
	 SCS Same-Spin Energy      =      -0.1438540788982185 [Eh]
	 SCS Opposite-Spin Energy  =      -1.6936470638176504 [Eh]
	 SCS Correlation Energy    =      -1.8375011427158690 [Eh]
	 SCS Total Energy          =    -387.6069495208250260 [Eh]
	-----------------------------------------------------------

  Dipole Moment: [D]
     X:     0.1142      Y:    -0.0000      Z:     0.0286     Total:     0.1178

*** Psi4 exiting successfully. Buy a developer a beer!
