                               Psi4 1.4a3.dev225

  ==> Input File <==

--------------------------------------------------------------------------
#psi4
#
memory 32 gb

molecule  {
0 1
  C       -2.1229620    -0.0000010    -0.5285820
  C       -3.1209786     0.7485771     0.3686911
  C       -3.0262580    -0.7522400     0.4138820
  C       -0.6463130    -0.0000010    -0.3104390
  C        0.0658190     1.2029900    -0.2211540
  C        0.0658190    -1.2029910    -0.2211540
  C        1.4498120     1.2013260    -0.0471800
  C        1.4498130    -1.2013260    -0.0471800
  C        2.1649180     0.0000000     0.0407490
  C        3.6537450     0.0000010     0.2729580
  H       -2.4338460    -0.0000040    -1.5729350
  H       -3.8872420     1.2699250     0.0031310
  H       -2.5562430     1.2534570     1.2541040
  H       -2.5562430    -1.2534530     1.2541090
  H       -3.8872430    -1.2699240     0.0031370
  H       -0.4732260     2.1464250    -0.2897140
  H       -0.4732250    -2.1464270    -0.2897140
  H        1.9843610     2.1482350     0.0181390
  H        1.9843620    -2.1482350     0.0181390
  H        4.1207180    -0.8853500    -0.1681390
  H        4.1207180     0.8853520    -0.1681380
  H        3.8883030     0.0000000     1.3432050
units angstrom
no_reorient  #important for SAPT in psi4, default
symmetry c1  #important for SAPT in psi4, default
}

set PROPERTIES_ORIGIN ["COM"]
properties('MP2/aug-cc-pvtz', properties = ['dipole'])
--------------------------------------------------------------------------

    Molecular point group: c1
  Charge       = 0
  Multiplicity = 1
  Basis Set: AUG-CC-PVTZ
    Blend: AUG-CC-PVTZ
  Basis Set: (AUG-CC-PVTZ AUX)
    Blend: AUG-CC-PVTZ-JKFIT

    Orbital Energies [Eh]
    ---------------------

    Doubly Occupied:

       1A    -11.238323     2A    -11.235413     3A    -11.234221
       4A    -11.230015     5A    -11.229250     6A    -11.227970
       7A    -11.227514     8A    -11.226782     9A    -11.225492
      10A    -11.222673    11A     -1.161129    12A     -1.127909
      13A     -1.039794    14A     -1.007071    15A     -0.937529
      16A     -0.836604    17A     -0.832087    18A     -0.812405
      19A     -0.765477    20A     -0.683178    21A     -0.661389
      22A     -0.634245    23A     -0.626949    24A     -0.595652
      25A     -0.577373    26A     -0.573396    27A     -0.539056
      28A     -0.528350    29A     -0.512078    30A     -0.489636
      31A     -0.483652    32A     -0.476834    33A     -0.426544
      34A     -0.404014    35A     -0.331770    36A     -0.312657

  @DF-RHF Final Energy:  -385.75597167870933

   => Energetics <=

    Nuclear Repulsion Energy =            481.6836256495278121
    One-Electron Energy =               -1475.5303332281698658
    Two-Electron Energy =                 608.0907358999327244
    Total Energy =                       -385.7559716787093294
  Basis Set: (AUG-CC-PVTZ AUX)
    Blend: AUG-CC-PVTZ-RI
    Molecular point group: c1

    Geometry (in Angstrom), charge = 0, multiplicity = 1:

       Center              X                  Y                   Z               Mass
    ------------   -----------------  -----------------  -----------------  -----------------
         C           -2.115625142586     0.000331928258    -0.513921322340    12.000000000000
         C           -3.113641742586     0.748910028258     0.383351777660    12.000000000000
         C           -3.018921142586    -0.751907071742     0.428542677660    12.000000000000
         C           -0.638976142586     0.000331928258    -0.295778322340    12.000000000000
         C            0.073155857414     1.203322928258    -0.206493322340    12.000000000000
         C            0.073155857414    -1.202658071742    -0.206493322340    12.000000000000
         C            1.457148857414     1.201658928258    -0.032519322340    12.000000000000
         C            1.457149857414    -1.200993071742    -0.032519322340    12.000000000000
         C            2.172254857414     0.000332928258     0.055409677660    12.000000000000
         C            3.661081857414     0.000333928258     0.287618677660    12.000000000000
         H           -2.426509142586     0.000328928258    -1.558274322340     1.007825032230
         H           -3.879905142586     1.270257928258     0.017791677660     1.007825032230
         H           -2.548906142586     1.253789928258     1.268764677660     1.007825032230
         H           -2.548906142586    -1.253120071742     1.268769677660     1.007825032230
         H           -3.879906142586    -1.269591071742     0.017797677660     1.007825032230
         H           -0.465889142586     2.146757928258    -0.275053322340     1.007825032230
         H           -0.465888142586    -2.146094071742    -0.275053322340     1.007825032230
         H            1.991697857414     2.148567928258     0.032799677660     1.007825032230
         H            1.991698857414    -2.147902071742     0.032799677660     1.007825032230
         H            4.128054857414    -0.885017071742    -0.153478322340     1.007825032230
         H            4.128054857414     0.885684928258    -0.153477322340     1.007825032230
         H            3.895639857414     0.000332928258     1.357865677660     1.007825032230

  Basis Set: AUG-CC-PVTZ
    Blend: AUG-CC-PVTZ
  Basis Set: (AUG-CC-PVTZ AUX)
    Blend: AUG-CC-PVTZ-JKFIT
	 Reference Energy          =    -385.7559716787093294 [Eh]
	 Singles Energy            =      -0.0000000000000000 [Eh]
	 Same-Spin Energy          =      -0.4318394909703239 [Eh]
	 Opposite-Spin Energy      =      -1.4122409574424637 [Eh]
	 Correlation Energy        =      -1.8440804484127875 [Eh]
	 Total Energy              =    -387.6000521271221260 [Eh]

	 ================> DF-SCS-MP2 Energies <==================
	-----------------------------------------------------------
	 SCS Same-Spin Scale       =       0.3333333333333333 [-]
	 SCS Opposite-Spin Scale   =       1.2000000000000000 [-]
	 SCS Same-Spin Energy      =      -0.1439464969901079 [Eh]
	 SCS Opposite-Spin Energy  =      -1.6946891489309563 [Eh]
	 SCS Correlation Energy    =      -1.8386356459210642 [Eh]
	 SCS Total Energy          =    -387.5946073246303740 [Eh]
	-----------------------------------------------------------

  Dipole Moment: [D]
     X:     0.1315      Y:    -0.0193      Z:    -0.0010     Total:     0.1329

*** Psi4 exiting successfully. Buy a developer a beer!
