                               Psi4 1.4a3.dev225

  ==> Input File <==

--------------------------------------------------------------------------
#psi4
#
memory 32 gb

molecule  {
0 1
  C       -2.1229620    -0.0000010    -0.5285820
  C       -3.0262580     0.7522420     0.4138790
  C       -3.0262580    -0.7522400     0.4138820
  C       -0.6463130    -0.0000010    -0.3104390
  C        0.0658190     1.2029900    -0.2211540
  C        0.0658190    -1.2029910    -0.2211540
  C        1.4498120     1.2013260    -0.0471800
  C        1.4498130    -1.2013260    -0.0471800
  C        2.1649180     0.0000000     0.0407490
  C        3.6537450     0.0000010     0.2729580
  H       -2.4395522    -0.0000041    -1.5921037
  H       -3.8872420     1.2699250     0.0031310
  H       -2.5562430     1.2534570     1.2541040
  H       -2.5562430    -1.2534530     1.2541090
  H       -3.8872430    -1.2699240     0.0031370
  H       -0.4732260     2.1464250    -0.2897140
  H       -0.4732250    -2.1464270    -0.2897140
  H        1.9843610     2.1482350     0.0181390
  H        1.9843620    -2.1482350     0.0181390
  H        4.1207180    -0.8853500    -0.1681390
  H        4.1207180     0.8853520    -0.1681380
  H        3.8883030     0.0000000     1.3432050
units angstrom
no_reorient  #important for SAPT in psi4, default
symmetry c1  #important for SAPT in psi4, default
}

set PROPERTIES_ORIGIN ["COM"]
properties('MP2/aug-cc-pvtz', properties = ['dipole'])
--------------------------------------------------------------------------

    Molecular point group: c1
  Charge       = 0
  Multiplicity = 1
  Basis Set: AUG-CC-PVTZ
    Blend: AUG-CC-PVTZ
  Basis Set: (AUG-CC-PVTZ AUX)
    Blend: AUG-CC-PVTZ-JKFIT

    Orbital Energies [Eh]
    ---------------------

    Doubly Occupied:

       1A    -11.237993     2A    -11.235487     3A    -11.234049
       4A    -11.229233     5A    -11.229076     6A    -11.227502
       7A    -11.227433     8A    -11.224796     9A    -11.224137
      10A    -11.222496    11A     -1.163242    12A     -1.130059
      13A     -1.039200    14A     -1.006792    15A     -0.936640
      16A     -0.834034    17A     -0.830621    18A     -0.808849
      19A     -0.764664    20A     -0.686043    21A     -0.652037
      22A     -0.633808    23A     -0.626376    24A     -0.598813
      25A     -0.577088    26A     -0.573186    27A     -0.538487
      28A     -0.527288    29A     -0.512375    30A     -0.489803
      31A     -0.483755    32A     -0.475638    33A     -0.424124
      34A     -0.412938    35A     -0.331541    36A     -0.312200

  @DF-RHF Final Energy:  -385.76893491176196

   => Energetics <=

    Nuclear Repulsion Energy =            482.5161723316684856
    One-Electron Energy =               -1477.2466091445112397
    Two-Electron Energy =                 608.9615019010808510
    Total Energy =                       -385.7689349117619031
  Basis Set: (AUG-CC-PVTZ AUX)
    Blend: AUG-CC-PVTZ-RI
    Molecular point group: c1

    Geometry (in Angstrom), charge = 0, multiplicity = 1:

       Center              X                  Y                   Z               Mass
    ------------   -----------------  -----------------  -----------------  -----------------
         C           -2.124186448941    -0.000001006867    -0.517880143321    12.000000000000
         C           -3.027482448941     0.752241993133     0.424580856679    12.000000000000
         C           -3.027482448941    -0.752240006867     0.424583856679    12.000000000000
         C           -0.647537448941    -0.000001006867    -0.299737143321    12.000000000000
         C            0.064594551059     1.202989993133    -0.210452143321    12.000000000000
         C            0.064594551059    -1.202991006867    -0.210452143321    12.000000000000
         C            1.448587551059     1.201325993133    -0.036478143321    12.000000000000
         C            1.448588551059    -1.201326006867    -0.036478143321    12.000000000000
         C            2.163693551059    -0.000000006867     0.051450856679    12.000000000000
         C            3.652520551059     0.000000993133     0.283659856679    12.000000000000
         H           -2.440776648941    -0.000004106867    -1.581401843321     1.007825032230
         H           -3.888466448941     1.269924993133     0.013832856679     1.007825032230
         H           -2.557467448941     1.253456993133     1.264805856679     1.007825032230
         H           -2.557467448941    -1.253453006867     1.264810856679     1.007825032230
         H           -3.888467448941    -1.269924006867     0.013838856679     1.007825032230
         H           -0.474450448941     2.146424993133    -0.279012143321     1.007825032230
         H           -0.474449448941    -2.146427006867    -0.279012143321     1.007825032230
         H            1.983136551059     2.148234993133     0.028840856679     1.007825032230
         H            1.983137551059    -2.148235006867     0.028840856679     1.007825032230
         H            4.119493551059    -0.885350006867    -0.157437143321     1.007825032230
         H            4.119493551059     0.885351993133    -0.157436143321     1.007825032230
         H            3.887078551059    -0.000000006867     1.353906856679     1.007825032230

  Basis Set: AUG-CC-PVTZ
    Blend: AUG-CC-PVTZ
  Basis Set: (AUG-CC-PVTZ AUX)
    Blend: AUG-CC-PVTZ-JKFIT
	 Reference Energy          =    -385.7689349117619599 [Eh]
	 Singles Energy            =      -0.0000000000000000 [Eh]
	 Same-Spin Energy          =      -0.4317305916270988 [Eh]
	 Opposite-Spin Energy      =      -1.4116177180360623 [Eh]
	 Correlation Energy        =      -1.8433483096631611 [Eh]
	 Total Energy              =    -387.6122832214251162 [Eh]

	 ================> DF-SCS-MP2 Energies <==================
	-----------------------------------------------------------
	 SCS Same-Spin Scale       =       0.3333333333333333 [-]
	 SCS Opposite-Spin Scale   =       1.2000000000000000 [-]
	 SCS Same-Spin Energy      =      -0.1439101972090329 [Eh]
	 SCS Opposite-Spin Energy  =      -1.6939412616432747 [Eh]
	 SCS Correlation Energy    =      -1.8378514588523076 [Eh]
	 SCS Total Energy          =    -387.6067863706142589 [Eh]
	-----------------------------------------------------------

  Dipole Moment: [D]
     X:     0.1202      Y:    -0.0000      Z:     0.0362     Total:     0.1256

*** Psi4 exiting successfully. Buy a developer a beer!
