                               Psi4 1.4a3.dev225

  ==> Input File <==

--------------------------------------------------------------------------
#psi4
#
memory 32 gb

molecule  {
0 1
  C       -2.1229620    -0.0000010    -0.5285820
  C       -3.0262580     0.7522420     0.4138790
  C       -3.0262580    -0.7522400     0.4138820
  C       -0.6463130    -0.0000010    -0.3104390
  C        0.0658190     1.2029900    -0.2211540
  C        0.0658190    -1.2029910    -0.2211540
  C        1.4498120     1.2013260    -0.0471800
  C        1.4498130    -1.2013260    -0.0471800
  C        2.1649180     0.0000000     0.0407490
  C        3.6537450     0.0000010     0.2729580
  H       -2.4338460    -0.0000040    -1.5729350
  H       -3.8872420     1.2699250     0.0031310
  H       -2.5562430     1.2534570     1.2541040
  H       -2.5562430    -1.2534530     1.2541090
  H       -3.8872430    -1.2699240     0.0031370
  H       -0.4732260     2.1464250    -0.2897140
  H       -0.4732250    -2.1464270    -0.2897140
  H        1.9843610     2.1482350     0.0181390
  H        1.9843620    -2.1482350     0.0181390
  H        4.1207180    -0.8853500    -0.1681390
  H        4.1121797     0.8691640    -0.1600729
  H        3.8883030     0.0000000     1.3432050
units angstrom
no_reorient  #important for SAPT in psi4, default
symmetry c1  #important for SAPT in psi4, default
}

set PROPERTIES_ORIGIN ["COM"]
properties('MP2/aug-cc-pvtz', properties = ['dipole'])
--------------------------------------------------------------------------

    Molecular point group: c1
  Charge       = 0
  Multiplicity = 1
  Basis Set: AUG-CC-PVTZ
    Blend: AUG-CC-PVTZ
  Basis Set: (AUG-CC-PVTZ AUX)
    Blend: AUG-CC-PVTZ-JKFIT

    Orbital Energies [Eh]
    ---------------------

    Doubly Occupied:

       1A    -11.237751     2A    -11.234048     3A    -11.232948
       4A    -11.229102     5A    -11.228935     6A    -11.227393
       7A    -11.227269     8A    -11.224620     9A    -11.223968
      10A    -11.220007    11A     -1.163321    12A     -1.130135
      13A     -1.039522    14A     -1.006670    15A     -0.937873
      16A     -0.833922    17A     -0.832096    18A     -0.808745
      19A     -0.765833    20A     -0.687019    21A     -0.652535
      22A     -0.634166    23A     -0.626415    24A     -0.599369
      25A     -0.576990    26A     -0.573863    27A     -0.540687
      28A     -0.528467    29A     -0.512286    30A     -0.489685
      31A     -0.483831    32A     -0.476177    33A     -0.424216
      34A     -0.412756    35A     -0.331434    36A     -0.312214

  @DF-RHF Final Energy:  -385.76957825911052

   => Energetics <=

    Nuclear Repulsion Energy =            482.7064915936355760
    One-Electron Energy =               -1477.6196011508550328
    Two-Electron Energy =                 609.1435312981089965
    Total Energy =                       -385.7695782591105171
  Basis Set: (AUG-CC-PVTZ AUX)
    Blend: AUG-CC-PVTZ-RI
    Molecular point group: c1

    Geometry (in Angstrom), charge = 0, multiplicity = 1:

       Center              X                  Y                   Z               Mass
    ------------   -----------------  -----------------  -----------------  -----------------
         C           -2.124164841120     0.000122500508    -0.518087926612    12.000000000000
         C           -3.027460841120     0.752365500508     0.424373073388    12.000000000000
         C           -3.027460841120    -0.752116499492     0.424376073388    12.000000000000
         C           -0.647515841120     0.000122500508    -0.299944926612    12.000000000000
         C            0.064616158880     1.203113500508    -0.210659926612    12.000000000000
         C            0.064616158880    -1.202867499492    -0.210659926612    12.000000000000
         C            1.448609158880     1.201449500508    -0.036685926612    12.000000000000
         C            1.448610158880    -1.201202499492    -0.036685926612    12.000000000000
         C            2.163715158880     0.000123500508     0.051243073388    12.000000000000
         C            3.652542158880     0.000124500508     0.283452073388    12.000000000000
         H           -2.435048841120     0.000119500508    -1.562440926612     1.007825032230
         H           -3.888444841120     1.270048500508     0.013625073388     1.007825032230
         H           -2.557445841120     1.253580500508     1.264598073388     1.007825032230
         H           -2.557445841120    -1.253329499492     1.264603073388     1.007825032230
         H           -3.888445841120    -1.269800499492     0.013631073388     1.007825032230
         H           -0.474428841120     2.146548500508    -0.279219926612     1.007825032230
         H           -0.474427841120    -2.146303499492    -0.279219926612     1.007825032230
         H            1.983158158880     2.148358500508     0.028633073388     1.007825032230
         H            1.983159158880    -2.148111499492     0.028633073388     1.007825032230
         H            4.119515158880    -0.885226499492    -0.157644926612     1.007825032230
         H            4.110976858880     0.869287500508    -0.149578826612     1.007825032230
         H            3.887100158880     0.000123500508     1.353699073388     1.007825032230

  Basis Set: AUG-CC-PVTZ
    Blend: AUG-CC-PVTZ
  Basis Set: (AUG-CC-PVTZ AUX)
    Blend: AUG-CC-PVTZ-JKFIT
	 Reference Energy          =    -385.7695782591105171 [Eh]
	 Singles Energy            =      -0.0000000000000000 [Eh]
	 Same-Spin Energy          =      -0.4317104038388857 [Eh]
	 Opposite-Spin Energy      =      -1.4113629579944125 [Eh]
	 Correlation Energy        =      -1.8430733618332982 [Eh]
	 Total Energy              =    -387.6126516209438364 [Eh]

	 ================> DF-SCS-MP2 Energies <==================
	-----------------------------------------------------------
	 SCS Same-Spin Scale       =       0.3333333333333333 [-]
	 SCS Opposite-Spin Scale   =       1.2000000000000000 [-]
	 SCS Same-Spin Energy      =      -0.1439034679462952 [Eh]
	 SCS Opposite-Spin Energy  =      -1.6936355495932949 [Eh]
	 SCS Correlation Energy    =      -1.8375390175395900 [Eh]
	 SCS Total Energy          =    -387.6071172766501149 [Eh]
	-----------------------------------------------------------

  Dipole Moment: [D]
     X:     0.1254      Y:     0.0067      Z:     0.0269     Total:     0.1284

*** Psi4 exiting successfully. Buy a developer a beer!
