                               Psi4 1.4a3.dev225

  ==> Input File <==

--------------------------------------------------------------------------
#psi4
#
memory 32 gb

molecule  {
0 1
  C       -2.1229620    -0.0000010    -0.5285820
  C       -3.0262580     0.7522420     0.4138790
  C       -3.0262580    -0.7522400     0.4138820
  C       -0.7671750     0.0816099    -0.3256477
  C        0.0658190     1.2029900    -0.2211540
  C        0.0658190    -1.2029910    -0.2211540
  C        1.4498120     1.2013260    -0.0471800
  C        1.4498130    -1.2013260    -0.0471800
  C        2.1649180     0.0000000     0.0407490
  C        3.6537450     0.0000010     0.2729580
  H       -2.4338460    -0.0000040    -1.5729350
  H       -3.8872420     1.2699250     0.0031310
  H       -2.5562430     1.2534570     1.2541040
  H       -2.5562430    -1.2534530     1.2541090
  H       -3.8872430    -1.2699240     0.0031370
  H       -0.4732260     2.1464250    -0.2897140
  H       -0.4732250    -2.1464270    -0.2897140
  H        1.9843610     2.1482350     0.0181390
  H        1.9843620    -2.1482350     0.0181390
  H        4.1207180    -0.8853500    -0.1681390
  H        4.1207180     0.8853520    -0.1681380
  H        3.8883030     0.0000000     1.3432050
units angstrom
no_reorient  #important for SAPT in psi4, default
symmetry c1  #important for SAPT in psi4, default
}

set PROPERTIES_ORIGIN ["COM"]
properties('MP2/aug-cc-pvtz', properties = ['dipole'])
--------------------------------------------------------------------------

    Molecular point group: c1
  Charge       = 0
  Multiplicity = 1
  Basis Set: AUG-CC-PVTZ
    Blend: AUG-CC-PVTZ
  Basis Set: (AUG-CC-PVTZ AUX)
    Blend: AUG-CC-PVTZ-JKFIT

    Orbital Energies [Eh]
    ---------------------

    Doubly Occupied:

       1A    -11.240606     2A    -11.239864     3A    -11.239217
       4A    -11.229665     5A    -11.229350     6A    -11.228892
       7A    -11.227106     8A    -11.226499     9A    -11.226290
      10A    -11.222615    11A     -1.169890    12A     -1.128312
      13A     -1.035409    14A     -0.999798    15A     -0.945462
      16A     -0.848737    17A     -0.833770    18A     -0.805003
      19A     -0.760378    20A     -0.692951    21A     -0.656345
      22A     -0.633906    23A     -0.627168    24A     -0.600161
      25A     -0.572897    26A     -0.567619    27A     -0.538692
      28A     -0.536016    29A     -0.515135    30A     -0.496869
      31A     -0.479157    32A     -0.474110    33A     -0.430287
      34A     -0.402194    35A     -0.331839    36A     -0.299936

  @DF-RHF Final Energy:  -385.73993066515379

   => Energetics <=

    Nuclear Repulsion Energy =            482.1795803674634726
    One-Electron Energy =               -1476.4547328393387033
    Two-Electron Energy =                 608.5352218067214380
    Total Energy =                       -385.7399306651537927
  Basis Set: (AUG-CC-PVTZ AUX)
    Blend: AUG-CC-PVTZ-RI
    Molecular point group: c1

    Geometry (in Angstrom), charge = 0, multiplicity = 1:

       Center              X                  Y                   Z               Mass
    ------------   -----------------  -----------------  -----------------  -----------------
         C           -2.113250341031    -0.007414906357    -0.516644766791    12.000000000000
         C           -3.016546341031     0.744828093643     0.425816233209    12.000000000000
         C           -3.016546341031    -0.759653906357     0.425819233209    12.000000000000
         C           -0.757463341031     0.074195993643    -0.313710466791    12.000000000000
         C            0.075530658969     1.195576093643    -0.209216766791    12.000000000000
         C            0.075530658969    -1.210404906357    -0.209216766791    12.000000000000
         C            1.459523658969     1.193912093643    -0.035242766791    12.000000000000
         C            1.459524658969    -1.208739906357    -0.035242766791    12.000000000000
         C            2.174629658969    -0.007413906357     0.052686233209    12.000000000000
         C            3.663456658969    -0.007412906357     0.284895233209    12.000000000000
         H           -2.424134341031    -0.007417906357    -1.560997766791     1.007825032230
         H           -3.877530341031     1.262511093643     0.015068233209     1.007825032230
         H           -2.546531341031     1.246043093643     1.266041233209     1.007825032230
         H           -2.546531341031    -1.260866906357     1.266046233209     1.007825032230
         H           -3.877531341031    -1.277337906357     0.015074233209     1.007825032230
         H           -0.463514341031     2.139011093643    -0.277776766791     1.007825032230
         H           -0.463513341031    -2.153840906357    -0.277776766791     1.007825032230
         H            1.994072658969     2.140821093643     0.030076233209     1.007825032230
         H            1.994073658969    -2.155648906357     0.030076233209     1.007825032230
         H            4.130429658969    -0.892763906357    -0.156201766791     1.007825032230
         H            4.130429658969     0.877938093643    -0.156200766791     1.007825032230
         H            3.898014658969    -0.007413906357     1.355142233209     1.007825032230

  Basis Set: AUG-CC-PVTZ
    Blend: AUG-CC-PVTZ
  Basis Set: (AUG-CC-PVTZ AUX)
    Blend: AUG-CC-PVTZ-JKFIT
	 Reference Energy          =    -385.7399306651537927 [Eh]
	 Singles Energy            =      -0.0000000000000000 [Eh]
	 Same-Spin Energy          =      -0.4337657688731675 [Eh]
	 Opposite-Spin Energy      =      -1.4154669929554680 [Eh]
	 Correlation Energy        =      -1.8492327618286355 [Eh]
	 Total Energy              =    -387.5891634269824522 [Eh]

	 ================> DF-SCS-MP2 Energies <==================
	-----------------------------------------------------------
	 SCS Same-Spin Scale       =       0.3333333333333333 [-]
	 SCS Opposite-Spin Scale   =       1.2000000000000000 [-]
	 SCS Same-Spin Energy      =      -0.1445885896243891 [Eh]
	 SCS Opposite-Spin Energy  =      -1.6985603915465615 [Eh]
	 SCS Correlation Energy    =      -1.8431489811709507 [Eh]
	 SCS Total Energy          =    -387.5830796463247339 [Eh]
	-----------------------------------------------------------

  Dipole Moment: [D]
     X:    -0.0936      Y:    -0.0167      Z:     0.0378     Total:     0.1023

*** Psi4 exiting successfully. Buy a developer a beer!
