                               Psi4 1.4a3.dev225

  ==> Input File <==

--------------------------------------------------------------------------
#psi4
#
memory 32 gb

molecule  {
0 1
  C       -2.1151712     0.1560127    -0.5253668
  C       -3.0262580     0.7522420     0.4138790
  C       -3.0262580    -0.7522400     0.4138820
  C       -0.6463130    -0.0000010    -0.3104390
  C        0.0658190     1.2029900    -0.2211540
  C        0.0658190    -1.2029910    -0.2211540
  C        1.4498120     1.2013260    -0.0471800
  C        1.4498130    -1.2013260    -0.0471800
  C        2.1649180     0.0000000     0.0407490
  C        3.6537450     0.0000010     0.2729580
  H       -2.4338460    -0.0000040    -1.5729350
  H       -3.8872420     1.2699250     0.0031310
  H       -2.5562430     1.2534570     1.2541040
  H       -2.5562430    -1.2534530     1.2541090
  H       -3.8872430    -1.2699240     0.0031370
  H       -0.4732260     2.1464250    -0.2897140
  H       -0.4732250    -2.1464270    -0.2897140
  H        1.9843610     2.1482350     0.0181390
  H        1.9843620    -2.1482350     0.0181390
  H        4.1207180    -0.8853500    -0.1681390
  H        4.1207180     0.8853520    -0.1681380
  H        3.8883030     0.0000000     1.3432050
units angstrom
no_reorient  #important for SAPT in psi4, default
symmetry c1  #important for SAPT in psi4, default
}

set PROPERTIES_ORIGIN ["COM"]
properties('MP2/aug-cc-pvtz', properties = ['dipole'])
--------------------------------------------------------------------------

    Molecular point group: c1
  Charge       = 0
  Multiplicity = 1
  Basis Set: AUG-CC-PVTZ
    Blend: AUG-CC-PVTZ
  Basis Set: (AUG-CC-PVTZ AUX)
    Blend: AUG-CC-PVTZ-JKFIT

    Orbital Energies [Eh]
    ---------------------

    Doubly Occupied:

       1A    -11.238191     2A    -11.237445     3A    -11.235262
       4A    -11.231416     5A    -11.228731     6A    -11.228169
       7A    -11.227761     8A    -11.226540     9A    -11.222646
      10A    -11.221630    11A     -1.164037    12A     -1.130421
      13A     -1.039707    14A     -1.007187    15A     -0.937181
      16A     -0.838161    17A     -0.828081    18A     -0.809854
      19A     -0.764987    20A     -0.686763    21A     -0.652083
      22A     -0.634578    23A     -0.626210    24A     -0.598190
      25A     -0.577394    26A     -0.573348    27A     -0.539123
      28A     -0.526993    29A     -0.512278    30A     -0.491531
      31A     -0.483867    32A     -0.474960    33A     -0.452222
      34A     -0.382600    35A     -0.331837    36A     -0.311295

  @DF-RHF Final Energy:  -385.75592599962420

   => Energetics <=

    Nuclear Repulsion Energy =            482.5590382828527822
    One-Electron Energy =               -1477.2845697435684542
    Two-Electron Energy =                 608.9696054610915326
    Total Energy =                       -385.7559259996241963
  Basis Set: (AUG-CC-PVTZ AUX)
    Blend: AUG-CC-PVTZ-RI
    Molecular point group: c1

    Geometry (in Angstrom), charge = 0, multiplicity = 1:

       Center              X                  Y                   Z               Mass
    ------------   -----------------  -----------------  -----------------  -----------------
         C           -2.117146936100     0.141839710919    -0.515103276170    12.000000000000
         C           -3.028233736100     0.738069010919     0.424142523830    12.000000000000
         C           -3.028233736100    -0.766412989081     0.424145523830    12.000000000000
         C           -0.648288736100    -0.014173989081    -0.300175476170    12.000000000000
         C            0.063843263900     1.188817010919    -0.210890476170    12.000000000000
         C            0.063843263900    -1.217163989081    -0.210890476170    12.000000000000
         C            1.447836263900     1.187153010919    -0.036916476170    12.000000000000
         C            1.447837263900    -1.215498989081    -0.036916476170    12.000000000000
         C            2.162942263900    -0.014172989081     0.051012523830    12.000000000000
         C            3.651769263900    -0.014171989081     0.283221523830    12.000000000000
         H           -2.435821736100    -0.014176989081    -1.562671476170     1.007825032230
         H           -3.889217736100     1.255752010919     0.013394523830     1.007825032230
         H           -2.558218736100     1.239284010919     1.264367523830     1.007825032230
         H           -2.558218736100    -1.267625989081     1.264372523830     1.007825032230
         H           -3.889218736100    -1.284096989081     0.013400523830     1.007825032230
         H           -0.475201736100     2.132252010919    -0.279450476170     1.007825032230
         H           -0.475200736100    -2.160599989081    -0.279450476170     1.007825032230
         H            1.982385263900     2.134062010919     0.028402523830     1.007825032230
         H            1.982386263900    -2.162407989081     0.028402523830     1.007825032230
         H            4.118742263900    -0.899522989081    -0.157875476170     1.007825032230
         H            4.118742263900     0.871179010919    -0.157874476170     1.007825032230
         H            3.886327263900    -0.014172989081     1.353468523830     1.007825032230

  Basis Set: AUG-CC-PVTZ
    Blend: AUG-CC-PVTZ
  Basis Set: (AUG-CC-PVTZ AUX)
    Blend: AUG-CC-PVTZ-JKFIT
	 Reference Energy          =    -385.7559259996241963 [Eh]
	 Singles Energy            =      -0.0000000000000000 [Eh]
	 Same-Spin Energy          =      -0.4325139605193285 [Eh]
	 Opposite-Spin Energy      =      -1.4131798225172743 [Eh]
	 Correlation Energy        =      -1.8456937830366027 [Eh]
	 Total Energy              =    -387.6016197826608050 [Eh]

	 ================> DF-SCS-MP2 Energies <==================
	-----------------------------------------------------------
	 SCS Same-Spin Scale       =       0.3333333333333333 [-]
	 SCS Opposite-Spin Scale   =       1.2000000000000000 [-]
	 SCS Same-Spin Energy      =      -0.1441713201731095 [Eh]
	 SCS Opposite-Spin Energy  =      -1.6958157870207291 [Eh]
	 SCS Correlation Energy    =      -1.8399871071938385 [Eh]
	 SCS Total Energy          =    -387.5959131068180454 [Eh]
	-----------------------------------------------------------

  Dipole Moment: [D]
     X:     0.1421      Y:     0.0947      Z:     0.0359     Total:     0.1745

*** Psi4 exiting successfully. Buy a developer a beer!
