                               Psi4 1.4a3.dev225

  ==> Input File <==

--------------------------------------------------------------------------
#psi4
#
memory 32 gb

molecule  {
0 1
  C       -2.1229620    -0.0000010    -0.5285820
  C       -3.0262580     0.7522420     0.4138790
  C       -3.0262580    -0.7522400     0.4138820
  C       -0.6463130    -0.0000010    -0.3104390
  C        0.0658190     1.2029900    -0.2211540
  C        0.0658190    -1.2029910    -0.2211540
  C        1.4498120     1.2013260    -0.0471800
  C        1.4498130    -1.2013260    -0.0471800
  C        2.1649180     0.0000000     0.0407490
  C        3.6537450     0.0000010     0.2729580
  H       -2.4338460    -0.0000040    -1.5729350
  H       -3.8872420     1.2699250     0.0031310
  H       -2.5345914     1.2765458     1.2928095
  H       -2.5562430    -1.2534530     1.2541090
  H       -3.8872430    -1.2699240     0.0031370
  H       -0.4732260     2.1464250    -0.2897140
  H       -0.4732250    -2.1464270    -0.2897140
  H        1.9843610     2.1482350     0.0181390
  H        1.9843620    -2.1482350     0.0181390
  H        4.1207180    -0.8853500    -0.1681390
  H        4.1207180     0.8853520    -0.1681380
  H        3.8883030     0.0000000     1.3432050
units angstrom
no_reorient  #important for SAPT in psi4, default
symmetry c1  #important for SAPT in psi4, default
}

set PROPERTIES_ORIGIN ["COM"]
properties('MP2/aug-cc-pvtz', properties = ['dipole'])
--------------------------------------------------------------------------

    Molecular point group: c1
  Charge       = 0
  Multiplicity = 1
  Basis Set: AUG-CC-PVTZ
    Blend: AUG-CC-PVTZ
  Basis Set: (AUG-CC-PVTZ AUX)
    Blend: AUG-CC-PVTZ-JKFIT

    Orbital Energies [Eh]
    ---------------------

    Doubly Occupied:

       1A    -11.237902     2A    -11.234244     3A    -11.233428
       4A    -11.230055     5A    -11.229156     6A    -11.228990
       7A    -11.227427     8A    -11.227356     9A    -11.224750
      10A    -11.222438    11A     -1.163249    12A     -1.129943
      13A     -1.039056    14A     -1.006713    15A     -0.936577
      16A     -0.833018    17A     -0.830605    18A     -0.806364
      19A     -0.765018    20A     -0.685260    21A     -0.652864
      22A     -0.633718    23A     -0.625939    24A     -0.597329
      25A     -0.577015    26A     -0.573118    27A     -0.538434
      28A     -0.527729    29A     -0.507802    30A     -0.489796
      31A     -0.483676    32A     -0.476107    33A     -0.424538
      34A     -0.412775    35A     -0.331452    36A     -0.312254

  @DF-RHF Final Energy:  -385.76723431919856

   => Energetics <=

    Nuclear Repulsion Energy =            482.4189131241918176
    One-Electron Energy =               -1477.0600999627251895
    Two-Electron Energy =                 608.8739525193348072
    Total Energy =                       -385.7672343191985647
  Basis Set: (AUG-CC-PVTZ AUX)
    Blend: AUG-CC-PVTZ-RI
    Molecular point group: c1

    Geometry (in Angstrom), charge = 0, multiplicity = 1:

       Center              X                  Y                   Z               Mass
    ------------   -----------------  -----------------  -----------------  -----------------
         C           -2.124395178304    -0.000177166185    -0.518321700935    12.000000000000
         C           -3.027691178304     0.752065833815     0.424139299065    12.000000000000
         C           -3.027691178304    -0.752416166185     0.424142299065    12.000000000000
         C           -0.647746178304    -0.000177166185    -0.300178700935    12.000000000000
         C            0.064385821696     1.202813833815    -0.210893700935    12.000000000000
         C            0.064385821696    -1.203167166185    -0.210893700935    12.000000000000
         C            1.448378821696     1.201149833815    -0.036919700935    12.000000000000
         C            1.448379821696    -1.201502166185    -0.036919700935    12.000000000000
         C            2.163484821696    -0.000176166185     0.051009299065    12.000000000000
         C            3.652311821696    -0.000175166185     0.283218299065    12.000000000000
         H           -2.435279178304    -0.000180166185    -1.562674700935     1.007825032230
         H           -3.888675178304     1.269748833815     0.013391299065     1.007825032230
         H           -2.536024578304     1.276369633815     1.303069799065     1.007825032230
         H           -2.557676178304    -1.253629166185     1.264369299065     1.007825032230
         H           -3.888676178304    -1.270100166185     0.013397299065     1.007825032230
         H           -0.474659178304     2.146248833815    -0.279453700935     1.007825032230
         H           -0.474658178304    -2.146603166185    -0.279453700935     1.007825032230
         H            1.982927821696     2.148058833815     0.028399299065     1.007825032230
         H            1.982928821696    -2.148411166185     0.028399299065     1.007825032230
         H            4.119284821696    -0.885526166185    -0.157878700935     1.007825032230
         H            4.119284821696     0.885175833815    -0.157877700935     1.007825032230
         H            3.886869821696    -0.000176166185     1.353465299065     1.007825032230

  Basis Set: AUG-CC-PVTZ
    Blend: AUG-CC-PVTZ
  Basis Set: (AUG-CC-PVTZ AUX)
    Blend: AUG-CC-PVTZ-JKFIT
	 Reference Energy          =    -385.7672343191985647 [Eh]
	 Singles Energy            =      -0.0000000000000000 [Eh]
	 Same-Spin Energy          =      -0.4317545547425397 [Eh]
	 Opposite-Spin Energy      =      -1.4118199110592500 [Eh]
	 Correlation Energy        =      -1.8435744658017896 [Eh]
	 Total Energy              =    -387.6108087850003585 [Eh]

	 ================> DF-SCS-MP2 Energies <==================
	-----------------------------------------------------------
	 SCS Same-Spin Scale       =       0.3333333333333333 [-]
	 SCS Opposite-Spin Scale   =       1.2000000000000000 [-]
	 SCS Same-Spin Energy      =      -0.1439181849141799 [Eh]
	 SCS Opposite-Spin Energy  =      -1.6941838932711000 [Eh]
	 SCS Correlation Energy    =      -1.8381020781852799 [Eh]
	 SCS Total Energy          =    -387.6053363973838373 [Eh]
	-----------------------------------------------------------

  Dipole Moment: [D]
     X:     0.1119      Y:    -0.0129      Z:     0.0175     Total:     0.1140

*** Psi4 exiting successfully. Buy a developer a beer!
