                               Psi4 1.4a3.dev225

  ==> Input File <==

--------------------------------------------------------------------------
#psi4
#
memory 32 gb

molecule  {
0 1
  C       -2.1229620    -0.0000010    -0.5285820
  C       -3.0262580     0.7522420     0.4138790
  C       -3.0262580    -0.7522400     0.4138820
  C       -0.6463130    -0.0000010    -0.3104390
  C        0.0658190     1.2029900    -0.2211540
  C        0.0658190    -1.2029910    -0.2211540
  C        1.4498120     1.2013260    -0.0471800
  C        1.4498130    -1.2013260    -0.0471800
  C        2.1649180     0.0000000     0.0407490
  C        3.6537450     0.0000010     0.2729580
  H       -2.4338460    -0.0000040    -1.5729350
  H       -3.9665692     1.3176220    -0.0347135
  H       -2.5562430     1.2534570     1.2541040
  H       -2.5562430    -1.2534530     1.2541090
  H       -3.8872430    -1.2699240     0.0031370
  H       -0.4732260     2.1464250    -0.2897140
  H       -0.4732250    -2.1464270    -0.2897140
  H        1.9843610     2.1482350     0.0181390
  H        1.9843620    -2.1482350     0.0181390
  H        4.1207180    -0.8853500    -0.1681390
  H        4.1207180     0.8853520    -0.1681380
  H        3.8883030     0.0000000     1.3432050
units angstrom
no_reorient  #important for SAPT in psi4, default
symmetry c1  #important for SAPT in psi4, default
}

set PROPERTIES_ORIGIN ["COM"]
properties('MP2/aug-cc-pvtz', properties = ['dipole'])
--------------------------------------------------------------------------

    Molecular point group: c1
  Charge       = 0
  Multiplicity = 1
  Basis Set: AUG-CC-PVTZ
    Blend: AUG-CC-PVTZ
  Basis Set: (AUG-CC-PVTZ AUX)
    Blend: AUG-CC-PVTZ-JKFIT

    Orbital Energies [Eh]
    ---------------------

    Doubly Occupied:

       1A    -11.238301     2A    -11.235778     3A    -11.234661
       4A    -11.233753     5A    -11.229607     6A    -11.229431
       7A    -11.227843     8A    -11.227757     9A    -11.225263
      10A    -11.222716    11A     -1.163606    12A     -1.130043
      13A     -1.039246    14A     -1.007130    15A     -0.936690
      16A     -0.833255    17A     -0.829726    18A     -0.803882
      19A     -0.765738    20A     -0.686496    21A     -0.645537
      22A     -0.633747    23A     -0.625915    24A     -0.599982
      25A     -0.577394    26A     -0.573378    27A     -0.538573
      28A     -0.527780    29A     -0.504221    30A     -0.489321
      31A     -0.484002    32A     -0.475912    33A     -0.424844
      34A     -0.412492    35A     -0.331874    36A     -0.312704

  @DF-RHF Final Energy:  -385.76252578710307

   => Energetics <=

    Nuclear Repulsion Energy =            482.1595010305625237
    One-Electron Energy =               -1476.5268593076489196
    Two-Electron Energy =                 608.6048324899833233
    Total Energy =                       -385.7625257871030726
  Basis Set: (AUG-CC-PVTZ AUX)
    Blend: AUG-CC-PVTZ-RI
    Molecular point group: c1

    Geometry (in Angstrom), charge = 0, multiplicity = 1:

       Center              X                  Y                   Z               Mass
    ------------   -----------------  -----------------  -----------------  -----------------
         C           -2.123624749373    -0.000364917170    -0.517737654238    12.000000000000
         C           -3.026920749373     0.751878082830     0.424723345762    12.000000000000
         C           -3.026920749373    -0.752603917170     0.424726345762    12.000000000000
         C           -0.646975749373    -0.000364917170    -0.299594654238    12.000000000000
         C            0.065156250627     1.202626082830    -0.210309654238    12.000000000000
         C            0.065156250627    -1.203354917170    -0.210309654238    12.000000000000
         C            1.449149250627     1.200962082830    -0.036335654238    12.000000000000
         C            1.449150250627    -1.201689917170    -0.036335654238    12.000000000000
         C            2.164255250627    -0.000363917170     0.051593345762    12.000000000000
         C            3.653082250627    -0.000362917170     0.283802345762    12.000000000000
         H           -2.434508749373    -0.000367917170    -1.562090654238     1.007825032230
         H           -3.967231949373     1.317258082830    -0.023869154238     1.007825032230
         H           -2.556905749373     1.253093082830     1.264948345762     1.007825032230
         H           -2.556905749373    -1.253816917170     1.264953345762     1.007825032230
         H           -3.887905749373    -1.270287917170     0.013981345762     1.007825032230
         H           -0.473888749373     2.146061082830    -0.278869654238     1.007825032230
         H           -0.473887749373    -2.146790917170    -0.278869654238     1.007825032230
         H            1.983698250627     2.147871082830     0.028983345762     1.007825032230
         H            1.983699250627    -2.148598917170     0.028983345762     1.007825032230
         H            4.120055250627    -0.885713917170    -0.157294654238     1.007825032230
         H            4.120055250627     0.884988082830    -0.157293654238     1.007825032230
         H            3.887640250627    -0.000363917170     1.354049345762     1.007825032230

  Basis Set: AUG-CC-PVTZ
    Blend: AUG-CC-PVTZ
  Basis Set: (AUG-CC-PVTZ AUX)
    Blend: AUG-CC-PVTZ-JKFIT
	 Reference Energy          =    -385.7625257871030726 [Eh]
	 Singles Energy            =      -0.0000000000000000 [Eh]
	 Same-Spin Energy          =      -0.4317450060577691 [Eh]
	 Opposite-Spin Energy      =      -1.4122135872838393 [Eh]
	 Correlation Energy        =      -1.8439585933416083 [Eh]
	 Total Energy              =    -387.6064843804446696 [Eh]

	 ================> DF-SCS-MP2 Energies <==================
	-----------------------------------------------------------
	 SCS Same-Spin Scale       =       0.3333333333333333 [-]
	 SCS Opposite-Spin Scale   =       1.2000000000000000 [-]
	 SCS Same-Spin Energy      =      -0.1439150020192563 [Eh]
	 SCS Opposite-Spin Energy  =      -1.6946563047406071 [Eh]
	 SCS Correlation Energy    =      -1.8385713067598635 [Eh]
	 SCS Total Energy          =    -387.6010970938629612 [Eh]
	-----------------------------------------------------------

  Dipole Moment: [D]
     X:     0.1673      Y:    -0.0371      Z:     0.0316     Total:     0.1742

*** Psi4 exiting successfully. Buy a developer a beer!
