                               Psi4 1.4a3.dev225

  ==> Input File <==

--------------------------------------------------------------------------
#psi4
#
memory 32 gb

molecule  {
0 1
  C       -2.1229620    -0.0000010    -0.5285820
  C       -3.0262580     0.7522420     0.4138790
  C       -3.0134394    -0.7520108     0.4367972
  C       -0.6463130    -0.0000010    -0.3104390
  C        0.0658190     1.2029900    -0.2211540
  C        0.0658190    -1.2029910    -0.2211540
  C        1.4498120     1.2013260    -0.0471800
  C        1.4498130    -1.2013260    -0.0471800
  C        2.1649180     0.0000000     0.0407490
  C        3.6537450     0.0000010     0.2729580
  H       -2.4338460    -0.0000040    -1.5729350
  H       -3.8872420     1.2699250     0.0031310
  H       -2.5562430     1.2534570     1.2541040
  H       -2.5562430    -1.2534530     1.2541090
  H       -3.8872430    -1.2699240     0.0031370
  H       -0.4732260     2.1464250    -0.2897140
  H       -0.4732250    -2.1464270    -0.2897140
  H        1.9843610     2.1482350     0.0181390
  H        1.9843620    -2.1482350     0.0181390
  H        4.1207180    -0.8853500    -0.1681390
  H        4.1207180     0.8853520    -0.1681380
  H        3.8883030     0.0000000     1.3432050
units angstrom
no_reorient  #important for SAPT in psi4, default
symmetry c1  #important for SAPT in psi4, default
}

set PROPERTIES_ORIGIN ["COM"]
properties('MP2/aug-cc-pvtz', properties = ['dipole'])
--------------------------------------------------------------------------

    Molecular point group: c1
  Charge       = 0
  Multiplicity = 1
  Basis Set: AUG-CC-PVTZ
    Blend: AUG-CC-PVTZ
  Basis Set: (AUG-CC-PVTZ AUX)
    Blend: AUG-CC-PVTZ-JKFIT

    Orbital Energies [Eh]
    ---------------------

    Doubly Occupied:

       1A    -11.237843     2A    -11.233922     3A    -11.233110
       4A    -11.229048     5A    -11.228860     6A    -11.227394
       7A    -11.227295     8A    -11.224935     9A    -11.224168
      10A    -11.222414    11A     -1.162966    12A     -1.129546
      13A     -1.038908    14A     -1.006661    15A     -0.936548
      16A     -0.834265    17A     -0.831855    18A     -0.808993
      19A     -0.766031    20A     -0.687456    21A     -0.650183
      22A     -0.633595    23A     -0.626321    24A     -0.600944
      25A     -0.576957    26A     -0.573097    27A     -0.538308
      28A     -0.528950    29A     -0.513186    30A     -0.489549
      31A     -0.483569    32A     -0.476161    33A     -0.424855
      34A     -0.411021    35A     -0.331439    36A     -0.312199

  @DF-RHF Final Energy:  -385.76870196531024

   => Energetics <=

    Nuclear Repulsion Energy =            482.6431809578486423
    One-Electron Energy =               -1477.4986553956719035
    Two-Electron Energy =                 609.0867724725129619
    Total Energy =                       -385.7687019653102425
  Basis Set: (AUG-CC-PVTZ AUX)
    Blend: AUG-CC-PVTZ-RI
    Molecular point group: c1

    Geometry (in Angstrom), charge = 0, multiplicity = 1:

       Center              X                  Y                   Z               Mass
    ------------   -----------------  -----------------  -----------------  -----------------
         C           -2.125394483912    -0.000021829181    -0.520108112174    12.000000000000
         C           -3.028690483912     0.752221170819     0.422352887826    12.000000000000
         C           -3.015871883912    -0.752031629181     0.445271087826    12.000000000000
         C           -0.648745483912    -0.000021829181    -0.301965112174    12.000000000000
         C            0.063386516088     1.202969170819    -0.212680112174    12.000000000000
         C            0.063386516088    -1.203011829181    -0.212680112174    12.000000000000
         C            1.447379516088     1.201305170819    -0.038706112174    12.000000000000
         C            1.447380516088    -1.201346829181    -0.038706112174    12.000000000000
         C            2.162485516088    -0.000020829181     0.049222887826    12.000000000000
         C            3.651312516088    -0.000019829181     0.281431887826    12.000000000000
         H           -2.436278483912    -0.000024829181    -1.564461112174     1.007825032230
         H           -3.889674483912     1.269904170819     0.011604887826     1.007825032230
         H           -2.558675483912     1.253436170819     1.262577887826     1.007825032230
         H           -2.558675483912    -1.253473829181     1.262582887826     1.007825032230
         H           -3.889675483912    -1.269944829181     0.011610887826     1.007825032230
         H           -0.475658483912     2.146404170819    -0.281240112174     1.007825032230
         H           -0.475657483912    -2.146447829181    -0.281240112174     1.007825032230
         H            1.981928516088     2.148214170819     0.026612887826     1.007825032230
         H            1.981929516088    -2.148255829181     0.026612887826     1.007825032230
         H            4.118285516088    -0.885370829181    -0.159665112174     1.007825032230
         H            4.118285516088     0.885331170819    -0.159664112174     1.007825032230
         H            3.885870516088    -0.000020829181     1.351678887826     1.007825032230

  Basis Set: AUG-CC-PVTZ
    Blend: AUG-CC-PVTZ
  Basis Set: (AUG-CC-PVTZ AUX)
    Blend: AUG-CC-PVTZ-JKFIT
	 Reference Energy          =    -385.7687019653102425 [Eh]
	 Singles Energy            =      -0.0000000000000000 [Eh]
	 Same-Spin Energy          =      -0.4317091100273726 [Eh]
	 Opposite-Spin Energy      =      -1.4115666070616544 [Eh]
	 Correlation Energy        =      -1.8432757170890270 [Eh]
	 Total Energy              =    -387.6119776823992424 [Eh]

	 ================> DF-SCS-MP2 Energies <==================
	-----------------------------------------------------------
	 SCS Same-Spin Scale       =       0.3333333333333333 [-]
	 SCS Opposite-Spin Scale   =       1.2000000000000000 [-]
	 SCS Same-Spin Energy      =      -0.1439030366757909 [Eh]
	 SCS Opposite-Spin Energy  =      -1.6938799284739852 [Eh]
	 SCS Correlation Energy    =      -1.8377829651497759 [Eh]
	 SCS Total Energy          =    -387.6064849304599988 [Eh]
	-----------------------------------------------------------

  Dipole Moment: [D]
     X:     0.1188      Y:     0.0105      Z:     0.0343     Total:     0.1241

*** Psi4 exiting successfully. Buy a developer a beer!
