                               Psi4 1.4a3.dev225

  ==> Input File <==

--------------------------------------------------------------------------
#psi4
#
memory 32 gb

molecule  {
0 1
  C       -2.1229620    -0.0000010    -0.5285820
  C       -3.0262580     0.7522420     0.4138790
  C       -3.0262580    -0.7522400     0.4138820
  C       -0.6463130    -0.0000010    -0.3104390
  C        0.0658190     1.2029900    -0.2211540
  C        0.0658190    -1.2029910    -0.2211540
  C        1.4498120     1.2013260    -0.0471800
  C        1.4498130    -1.2013260    -0.0471800
  C        2.1649180     0.0000000     0.0407490
  C        3.6537450     0.0000010     0.2729580
  H       -2.4481114    -0.0000041    -1.6208568
  H       -3.8872420     1.2699250     0.0031310
  H       -2.5562430     1.2534570     1.2541040
  H       -2.5562430    -1.2534530     1.2541090
  H       -3.8872430    -1.2699240     0.0031370
  H       -0.4732260     2.1464250    -0.2897140
  H       -0.4732250    -2.1464270    -0.2897140
  H        1.9843610     2.1482350     0.0181390
  H        1.9843620    -2.1482350     0.0181390
  H        4.1207180    -0.8853500    -0.1681390
  H        4.1207180     0.8853520    -0.1681380
  H        3.8883030     0.0000000     1.3432050
units angstrom
no_reorient  #important for SAPT in psi4, default
symmetry c1  #important for SAPT in psi4, default
}

set PROPERTIES_ORIGIN ["COM"]
properties('MP2/aug-cc-pvtz', properties = ['dipole'])
--------------------------------------------------------------------------

    Molecular point group: c1
  Charge       = 0
  Multiplicity = 1
  Basis Set: AUG-CC-PVTZ
    Blend: AUG-CC-PVTZ
  Basis Set: (AUG-CC-PVTZ AUX)
    Blend: AUG-CC-PVTZ-JKFIT

    Orbital Energies [Eh]
    ---------------------

    Doubly Occupied:

       1A    -11.238804     2A    -11.238115     3A    -11.234324
       4A    -11.229355     5A    -11.229200     6A    -11.227580
       7A    -11.227512     8A    -11.225020     9A    -11.224357
      10A    -11.222566    11A     -1.163096    12A     -1.129955
      13A     -1.039319    14A     -1.006883    15A     -0.936642
      16A     -0.834163    17A     -0.829176    18A     -0.808971
      19A     -0.763086    20A     -0.684712    21A     -0.651338
      22A     -0.633909    23A     -0.626380    24A     -0.597975
      25A     -0.577175    26A     -0.573256    27A     -0.538567
      28A     -0.525520    29A     -0.512485    30A     -0.489872
      31A     -0.483854    32A     -0.474749    33A     -0.423922
      34A     -0.413175    35A     -0.331617    36A     -0.312108

  @DF-RHF Final Energy:  -385.76721227889777

   => Energetics <=

    Nuclear Repulsion Energy =            482.3645647233066711
    One-Electron Energy =               -1476.9460837999072282
    Two-Electron Energy =                 608.8143067977027840
    Total Energy =                       -385.7672122788977731
  Basis Set: (AUG-CC-PVTZ AUX)
    Blend: AUG-CC-PVTZ-RI
    Molecular point group: c1

    Geometry (in Angstrom), charge = 0, multiplicity = 1:

       Center              X                  Y                   Z               Mass
    ------------   -----------------  -----------------  -----------------  -----------------
         C           -2.124121145577    -0.000001006867    -0.517660768362    12.000000000000
         C           -3.027417145577     0.752241993133     0.424800231638    12.000000000000
         C           -3.027417145577    -0.752240006867     0.424803231638    12.000000000000
         C           -0.647472145577    -0.000001006867    -0.299517768362    12.000000000000
         C            0.064659854423     1.202989993133    -0.210232768362    12.000000000000
         C            0.064659854423    -1.202991006867    -0.210232768362    12.000000000000
         C            1.448652854423     1.201325993133    -0.036258768362    12.000000000000
         C            1.448653854423    -1.201326006867    -0.036258768362    12.000000000000
         C            2.163758854423    -0.000000006867     0.051670231638    12.000000000000
         C            3.652585854423     0.000000993133     0.283879231638    12.000000000000
         H           -2.449270545577    -0.000004106867    -1.609935568362     1.007825032230
         H           -3.888401145577     1.269924993133     0.014052231638     1.007825032230
         H           -2.557402145577     1.253456993133     1.265025231638     1.007825032230
         H           -2.557402145577    -1.253453006867     1.265030231638     1.007825032230
         H           -3.888402145577    -1.269924006867     0.014058231638     1.007825032230
         H           -0.474385145577     2.146424993133    -0.278792768362     1.007825032230
         H           -0.474384145577    -2.146427006867    -0.278792768362     1.007825032230
         H            1.983201854423     2.148234993133     0.029060231638     1.007825032230
         H            1.983202854423    -2.148235006867     0.029060231638     1.007825032230
         H            4.119558854423    -0.885350006867    -0.157217768362     1.007825032230
         H            4.119558854423     0.885351993133    -0.157216768362     1.007825032230
         H            3.887143854423    -0.000000006867     1.354126231638     1.007825032230

  Basis Set: AUG-CC-PVTZ
    Blend: AUG-CC-PVTZ
  Basis Set: (AUG-CC-PVTZ AUX)
    Blend: AUG-CC-PVTZ-JKFIT
	 Reference Energy          =    -385.7672122788977731 [Eh]
	 Singles Energy            =      -0.0000000000000000 [Eh]
	 Same-Spin Energy          =      -0.4317605662480158 [Eh]
	 Opposite-Spin Energy      =      -1.4118340302617098 [Eh]
	 Correlation Energy        =      -1.8435945965097256 [Eh]
	 Total Energy              =    -387.6108068754074907 [Eh]

	 ================> DF-SCS-MP2 Energies <==================
	-----------------------------------------------------------
	 SCS Same-Spin Scale       =       0.3333333333333333 [-]
	 SCS Opposite-Spin Scale   =       1.2000000000000000 [-]
	 SCS Same-Spin Energy      =      -0.1439201887493386 [Eh]
	 SCS Opposite-Spin Energy  =      -1.6942008363140517 [Eh]
	 SCS Correlation Energy    =      -1.8381210250633904 [Eh]
	 SCS Total Energy          =    -387.6053333039611744 [Eh]
	-----------------------------------------------------------

  Dipole Moment: [D]
     X:     0.1281      Y:    -0.0000      Z:     0.0483     Total:     0.1369

*** Psi4 exiting successfully. Buy a developer a beer!
