                               Psi4 1.4a3.dev225

  ==> Input File <==

--------------------------------------------------------------------------
#psi4
#
memory 32 gb

molecule  {
0 1
  C       -2.1227869     0.0260475    -0.5282115
  C       -3.0262580     0.7522420     0.4138790
  C       -3.0262580    -0.7522400     0.4138820
  C       -0.6463130    -0.0000010    -0.3104390
  C        0.0658190     1.2029900    -0.2211540
  C        0.0658190    -1.2029910    -0.2211540
  C        1.4498120     1.2013260    -0.0471800
  C        1.4498130    -1.2013260    -0.0471800
  C        2.1649180     0.0000000     0.0407490
  C        3.6537450     0.0000010     0.2729580
  H       -2.4338460    -0.0000040    -1.5729350
  H       -3.8872420     1.2699250     0.0031310
  H       -2.5562430     1.2534570     1.2541040
  H       -2.5562430    -1.2534530     1.2541090
  H       -3.8872430    -1.2699240     0.0031370
  H       -0.4732260     2.1464250    -0.2897140
  H       -0.4732250    -2.1464270    -0.2897140
  H        1.9843610     2.1482350     0.0181390
  H        1.9843620    -2.1482350     0.0181390
  H        4.1207180    -0.8853500    -0.1681390
  H        4.1207180     0.8853520    -0.1681380
  H        3.8883030     0.0000000     1.3432050
units angstrom
no_reorient  #important for SAPT in psi4, default
symmetry c1  #important for SAPT in psi4, default
}

set PROPERTIES_ORIGIN ["COM"]
properties('MP2/aug-cc-pvtz', properties = ['dipole'])
--------------------------------------------------------------------------

    Molecular point group: c1
  Charge       = 0
  Multiplicity = 1
  Basis Set: AUG-CC-PVTZ
    Blend: AUG-CC-PVTZ
  Basis Set: (AUG-CC-PVTZ AUX)
    Blend: AUG-CC-PVTZ-JKFIT

    Orbital Energies [Eh]
    ---------------------

    Doubly Occupied:

       1A    -11.237928     2A    -11.234168     3A    -11.233112
       4A    -11.229420     5A    -11.228778     6A    -11.227612
       7A    -11.227245     8A    -11.224989     9A    -11.223679
      10A    -11.222461    11A     -1.163418    12A     -1.130199
      13A     -1.039153    14A     -1.006752    15A     -0.936671
      16A     -0.834233    17A     -0.831462    18A     -0.808814
      19A     -0.765758    20A     -0.686986    21A     -0.652503
      22A     -0.633773    23A     -0.626385    24A     -0.599341
      25A     -0.577049    26A     -0.573151    27A     -0.538465
      28A     -0.528368    29A     -0.512311    30A     -0.489813
      31A     -0.483705    32A     -0.476108    33A     -0.426786
      34A     -0.410268    35A     -0.331508    36A     -0.312239

  @DF-RHF Final Energy:  -385.76915591968810

   => Energetics <=

    Nuclear Repulsion Energy =            482.6213601267968443
    One-Electron Energy =               -1477.4518095487114806
    Two-Electron Energy =                 609.0612935022265901
    Total Energy =                       -385.7691559196880462
  Basis Set: (AUG-CC-PVTZ AUX)
    Blend: AUG-CC-PVTZ-RI
    Molecular point group: c1

    Geometry (in Angstrom), charge = 0, multiplicity = 1:

       Center              X                  Y                   Z               Mass
    ------------   -----------------  -----------------  -----------------  -----------------
         C           -2.124070791891     0.023681130267    -0.517689550914    12.000000000000
         C           -3.027541891891     0.749875630267     0.424400949086    12.000000000000
         C           -3.027541891891    -0.754606369733     0.424403949086    12.000000000000
         C           -0.647596891891    -0.002367369733    -0.299917050914    12.000000000000
         C            0.064535108109     1.200623630267    -0.210632050914    12.000000000000
         C            0.064535108109    -1.205357369733    -0.210632050914    12.000000000000
         C            1.448528108109     1.198959630267    -0.036658050914    12.000000000000
         C            1.448529108109    -1.203692369733    -0.036658050914    12.000000000000
         C            2.163634108109    -0.002366369733     0.051270949086    12.000000000000
         C            3.652461108109    -0.002365369733     0.283479949086    12.000000000000
         H           -2.435129891891    -0.002370369733    -1.562413050914     1.007825032230
         H           -3.888525891891     1.267558630267     0.013652949086     1.007825032230
         H           -2.557526891891     1.251090630267     1.264625949086     1.007825032230
         H           -2.557526891891    -1.255819369733     1.264630949086     1.007825032230
         H           -3.888526891891    -1.272290369733     0.013658949086     1.007825032230
         H           -0.474509891891     2.144058630267    -0.279192050914     1.007825032230
         H           -0.474508891891    -2.148793369733    -0.279192050914     1.007825032230
         H            1.983077108109     2.145868630267     0.028660949086     1.007825032230
         H            1.983078108109    -2.150601369733     0.028660949086     1.007825032230
         H            4.119434108109    -0.887716369733    -0.157617050914     1.007825032230
         H            4.119434108109     0.882985630267    -0.157616050914     1.007825032230
         H            3.887019108109    -0.002366369733     1.353726949086     1.007825032230

  Basis Set: AUG-CC-PVTZ
    Blend: AUG-CC-PVTZ
  Basis Set: (AUG-CC-PVTZ AUX)
    Blend: AUG-CC-PVTZ-JKFIT
	 Reference Energy          =    -385.7691559196881030 [Eh]
	 Singles Energy            =      -0.0000000000000000 [Eh]
	 Same-Spin Energy          =      -0.4317349796136747 [Eh]
	 Opposite-Spin Energy      =      -1.4115331496453103 [Eh]
	 Correlation Energy        =      -1.8432681292589850 [Eh]
	 Total Energy              =    -387.6124240489471049 [Eh]

	 ================> DF-SCS-MP2 Energies <==================
	-----------------------------------------------------------
	 SCS Same-Spin Scale       =       0.3333333333333333 [-]
	 SCS Opposite-Spin Scale   =       1.2000000000000000 [-]
	 SCS Same-Spin Energy      =      -0.1439116598712249 [Eh]
	 SCS Opposite-Spin Energy  =      -1.6938397795743723 [Eh]
	 SCS Correlation Energy    =      -1.8377514394455972 [Eh]
	 SCS Total Energy          =    -387.6069073591336860 [Eh]
	-----------------------------------------------------------

  Dipole Moment: [D]
     X:     0.1164      Y:     0.0168      Z:     0.0294     Total:     0.1212

*** Psi4 exiting successfully. Buy a developer a beer!
