                               Psi4 1.4a3.dev225

  ==> Input File <==

--------------------------------------------------------------------------
#psi4
#
memory 32 gb

molecule  {
0 1
  C       -2.1229620    -0.0000010    -0.5285820
  C       -3.0262580     0.7522420     0.4138790
  C       -3.0262580    -0.7522400     0.4138820
  C       -0.6463130    -0.0000010    -0.3104390
  C        0.0658190     1.2029900    -0.2211540
  C        0.0658190    -1.2029910    -0.2211540
  C        1.4498120     1.2013260    -0.0471800
  C        1.4498130    -1.2013260    -0.0471800
  C        2.1649180     0.0000000     0.0407490
  C        3.6537450     0.0000010     0.2729580
  H       -2.4338460    -0.0000040    -1.5729350
  H       -3.8872420     1.2699250     0.0031310
  H       -2.5562430     1.2534570     1.2541040
  H       -2.5562430    -1.2534530     1.2541090
  H       -3.8872430    -1.2699240     0.0031370
  H       -0.4732260     2.1464250    -0.2897140
  H       -0.4732250    -2.1464270    -0.2897140
  H        1.9843610     2.1482350     0.0181390
  H        1.9352908    -2.0613094     0.0121428
  H        4.1207180    -0.8853500    -0.1681390
  H        4.1207180     0.8853520    -0.1681380
  H        3.8883030     0.0000000     1.3432050
units angstrom
no_reorient  #important for SAPT in psi4, default
symmetry c1  #important for SAPT in psi4, default
}

set PROPERTIES_ORIGIN ["COM"]
properties('MP2/aug-cc-pvtz', properties = ['dipole'])
--------------------------------------------------------------------------

    Molecular point group: c1
  Charge       = 0
  Multiplicity = 1
  Basis Set: AUG-CC-PVTZ
    Blend: AUG-CC-PVTZ
  Basis Set: (AUG-CC-PVTZ AUX)
    Blend: AUG-CC-PVTZ-JKFIT

    Orbital Energies [Eh]
    ---------------------

    Doubly Occupied:

       1A    -11.236996     2A    -11.233481     3A    -11.232580
       4A    -11.228689     5A    -11.227996     6A    -11.226728
       7A    -11.224391     8A    -11.223738     9A    -11.222544
      10A    -11.215459    11A     -1.163205    12A     -1.130366
      13A     -1.039096    14A     -1.009648    15A     -0.937407
      16A     -0.837123    17A     -0.831281    18A     -0.810979
      19A     -0.769221    20A     -0.690188    21A     -0.652512
      22A     -0.633288    23A     -0.631818    24A     -0.603447
      25A     -0.580459    26A     -0.573177    27A     -0.540164
      28A     -0.528043    29A     -0.512096    30A     -0.489613
      31A     -0.485688    32A     -0.476021    33A     -0.423968
      34A     -0.412613    35A     -0.331018    36A     -0.311730

  @DF-RHF Final Energy:  -385.76384246625918

   => Energetics <=

    Nuclear Repulsion Energy =            483.1679074304823303
    One-Electron Energy =               -1478.5099491457567638
    Two-Electron Energy =                 609.5781992490153698
    Total Energy =                       -385.7638424662591206
  Basis Set: (AUG-CC-PVTZ AUX)
    Blend: AUG-CC-PVTZ-RI
    Molecular point group: c1

    Geometry (in Angstrom), charge = 0, multiplicity = 1:

       Center              X                  Y                   Z               Mass
    ------------   -----------------  -----------------  -----------------  -----------------
         C           -2.123855590874    -0.000664216115    -0.517980644368    12.000000000000
         C           -3.027151590874     0.751578783885     0.424480355632    12.000000000000
         C           -3.027151590874    -0.752903216115     0.424483355632    12.000000000000
         C           -0.647206590874    -0.000664216115    -0.299837644368    12.000000000000
         C            0.064925409126     1.202326783885    -0.210552644368    12.000000000000
         C            0.064925409126    -1.203654216115    -0.210552644368    12.000000000000
         C            1.448918409126     1.200662783885    -0.036578644368    12.000000000000
         C            1.448919409126    -1.201989216115    -0.036578644368    12.000000000000
         C            2.164024409126    -0.000663216115     0.051350355632    12.000000000000
         C            3.652851409126    -0.000662216115     0.283559355632    12.000000000000
         H           -2.434739590874    -0.000667216115    -1.562333644368     1.007825032230
         H           -3.888135590874     1.269261783885     0.013732355632     1.007825032230
         H           -2.557136590874     1.252793783885     1.264705355632     1.007825032230
         H           -2.557136590874    -1.254116216115     1.264710355632     1.007825032230
         H           -3.888136590874    -1.270587216115     0.013738355632     1.007825032230
         H           -0.474119590874     2.145761783885    -0.279112644368     1.007825032230
         H           -0.474118590874    -2.147090216115    -0.279112644368     1.007825032230
         H            1.983467409126     2.147571783885     0.028740355632     1.007825032230
         H            1.934397209126    -2.061972616115     0.022744155632     1.007825032230
         H            4.119824409126    -0.886013216115    -0.157537644368     1.007825032230
         H            4.119824409126     0.884688783885    -0.157536644368     1.007825032230
         H            3.887409409126    -0.000663216115     1.353806355632     1.007825032230

  Basis Set: AUG-CC-PVTZ
    Blend: AUG-CC-PVTZ
  Basis Set: (AUG-CC-PVTZ AUX)
    Blend: AUG-CC-PVTZ-JKFIT
	 Reference Energy          =    -385.7638424662591774 [Eh]
	 Singles Energy            =      -0.0000000000000000 [Eh]
	 Same-Spin Energy          =      -0.4315397984838242 [Eh]
	 Opposite-Spin Energy      =      -1.4109616234894715 [Eh]
	 Correlation Energy        =      -1.8425014219732958 [Eh]
	 Total Energy              =    -387.6063438882324590 [Eh]

	 ================> DF-SCS-MP2 Energies <==================
	-----------------------------------------------------------
	 SCS Same-Spin Scale       =       0.3333333333333333 [-]
	 SCS Opposite-Spin Scale   =       1.2000000000000000 [-]
	 SCS Same-Spin Energy      =      -0.1438465994946080 [Eh]
	 SCS Opposite-Spin Energy  =      -1.6931539481873659 [Eh]
	 SCS Correlation Energy    =      -1.8370005476819740 [Eh]
	 SCS Total Energy          =    -387.6008430139411303 [Eh]
	-----------------------------------------------------------

  Dipole Moment: [D]
     X:     0.1441      Y:    -0.0319      Z:     0.0302     Total:     0.1506

*** Psi4 exiting successfully. Buy a developer a beer!
