                               Psi4 1.4a3.dev225

  ==> Input File <==

--------------------------------------------------------------------------
#psi4
#
memory 32 gb

molecule  {
0 1
  C       -2.1229620    -0.0000010    -0.5285820
  C       -3.0262580     0.7522420     0.4138790
  C       -3.0262580    -0.7522400     0.4138820
  C       -0.6463130    -0.0000010    -0.3104390
  C        0.0658190     1.2029900    -0.2211540
  C        0.0658190    -1.2029910    -0.2211540
  C        1.4498120     1.2013260    -0.0471800
  C        1.4424193    -1.3471403    -0.0482331
  C        2.1649180     0.0000000     0.0407490
  C        3.6537450     0.0000010     0.2729580
  H       -2.4338460    -0.0000040    -1.5729350
  H       -3.8872420     1.2699250     0.0031310
  H       -2.5562430     1.2534570     1.2541040
  H       -2.5562430    -1.2534530     1.2541090
  H       -3.8872430    -1.2699240     0.0031370
  H       -0.4732260     2.1464250    -0.2897140
  H       -0.4732250    -2.1464270    -0.2897140
  H        1.9843610     2.1482350     0.0181390
  H        1.9843620    -2.1482350     0.0181390
  H        4.1207180    -0.8853500    -0.1681390
  H        4.1207180     0.8853520    -0.1681380
  H        3.8883030     0.0000000     1.3432050
units angstrom
no_reorient  #important for SAPT in psi4, default
symmetry c1  #important for SAPT in psi4, default
}

set PROPERTIES_ORIGIN ["COM"]
properties('MP2/aug-cc-pvtz', properties = ['dipole'])
--------------------------------------------------------------------------

    Molecular point group: c1
  Charge       = 0
  Multiplicity = 1
  Basis Set: AUG-CC-PVTZ
    Blend: AUG-CC-PVTZ
  Basis Set: (AUG-CC-PVTZ AUX)
    Blend: AUG-CC-PVTZ-JKFIT

    Orbital Energies [Eh]
    ---------------------

    Doubly Occupied:

       1A    -11.251711     2A    -11.234214     3A    -11.233231
       4A    -11.232389     5A    -11.231760     6A    -11.231011
       7A    -11.226494     8A    -11.224398     9A    -11.223664
      10A    -11.222163    11A     -1.159664    12A     -1.122327
      13A     -1.034165    14A     -1.010755    15A     -0.935210
      16A     -0.838519    17A     -0.825155    18A     -0.810960
      19A     -0.765943    20A     -0.691387    21A     -0.652280
      22A     -0.644650    23A     -0.623421    24A     -0.604899
      25A     -0.583194    26A     -0.570912    27A     -0.542431
      28A     -0.523325    29A     -0.512115    30A     -0.494641
      31A     -0.480098    32A     -0.458435    33A     -0.422679
      34A     -0.413468    35A     -0.335472    36A     -0.302133

  @DF-RHF Final Energy:  -385.74088272496272

   => Energetics <=

    Nuclear Repulsion Energy =            480.4325878808604671
    One-Electron Energy =               -1473.0083940816850827
    Two-Electron Energy =                 606.8349234758619559
    Total Energy =                       -385.7408827249627166
  Basis Set: (AUG-CC-PVTZ AUX)
    Blend: AUG-CC-PVTZ-RI
    Molecular point group: c1

    Geometry (in Angstrom), charge = 0, multiplicity = 1:

       Center              X                  Y                   Z               Mass
    ------------   -----------------  -----------------  -----------------  -----------------
         C           -2.123558308288     0.013245414763    -0.517930724731    12.000000000000
         C           -3.026854308288     0.765488414763     0.424530275269    12.000000000000
         C           -3.026854308288    -0.738993585237     0.424533275269    12.000000000000
         C           -0.646909308288     0.013245414763    -0.299787724731    12.000000000000
         C            0.065222691712     1.216236414763    -0.210502724731    12.000000000000
         C            0.065222691712    -1.189744585237    -0.210502724731    12.000000000000
         C            1.449215691712     1.214572414763    -0.036528724731    12.000000000000
         C            1.441822991712    -1.333893885237    -0.037581824731    12.000000000000
         C            2.164321691712     0.013246414763     0.051400275269    12.000000000000
         C            3.653148691712     0.013247414763     0.283609275269    12.000000000000
         H           -2.434442308288     0.013242414763    -1.562283724731     1.007825032230
         H           -3.887838308288     1.283171414763     0.013782275269     1.007825032230
         H           -2.556839308288     1.266703414763     1.264755275269     1.007825032230
         H           -2.556839308288    -1.240206585237     1.264760275269     1.007825032230
         H           -3.887839308288    -1.256677585237     0.013788275269     1.007825032230
         H           -0.473822308288     2.159671414763    -0.279062724731     1.007825032230
         H           -0.473821308288    -2.133180585237    -0.279062724731     1.007825032230
         H            1.983764691712     2.161481414763     0.028790275269     1.007825032230
         H            1.983765691712    -2.134988585237     0.028790275269     1.007825032230
         H            4.120121691712    -0.872103585237    -0.157487724731     1.007825032230
         H            4.120121691712     0.898598414763    -0.157486724731     1.007825032230
         H            3.887706691712     0.013246414763     1.353856275269     1.007825032230

  Basis Set: AUG-CC-PVTZ
    Blend: AUG-CC-PVTZ
  Basis Set: (AUG-CC-PVTZ AUX)
    Blend: AUG-CC-PVTZ-JKFIT
	 Reference Energy          =    -385.7408827249627166 [Eh]
	 Singles Energy            =      -0.0000000000000000 [Eh]
	 Same-Spin Energy          =      -0.4318171484840413 [Eh]
	 Opposite-Spin Energy      =      -1.4135588492726860 [Eh]
	 Correlation Energy        =      -1.8453759977567272 [Eh]
	 Total Energy              =    -387.5862587227194354 [Eh]

	 ================> DF-SCS-MP2 Energies <==================
	-----------------------------------------------------------
	 SCS Same-Spin Scale       =       0.3333333333333333 [-]
	 SCS Opposite-Spin Scale   =       1.2000000000000000 [-]
	 SCS Same-Spin Energy      =      -0.1439390494946804 [Eh]
	 SCS Opposite-Spin Energy  =      -1.6962706191272232 [Eh]
	 SCS Correlation Energy    =      -1.8402096686219036 [Eh]
	 SCS Total Energy          =    -387.5810923935846404 [Eh]
	-----------------------------------------------------------

  Dipole Moment: [D]
     X:     0.1381      Y:    -0.0082      Z:     0.0441     Total:     0.1452

*** Psi4 exiting successfully. Buy a developer a beer!
