                               Psi4 1.4a3.dev225

  ==> Input File <==

--------------------------------------------------------------------------
#psi4
#
memory 32 gb

molecule  {
0 1
  C       -2.1229620    -0.0000010    -0.5285820
  C       -3.0262580     0.7522420     0.4138790
  C       -3.0390766    -0.7520109     0.3909668
  C       -0.6463130    -0.0000010    -0.3104390
  C        0.0658190     1.2029900    -0.2211540
  C        0.0658190    -1.2029910    -0.2211540
  C        1.4498120     1.2013260    -0.0471800
  C        1.4498130    -1.2013260    -0.0471800
  C        2.1649180     0.0000000     0.0407490
  C        3.6537450     0.0000010     0.2729580
  H       -2.4338460    -0.0000040    -1.5729350
  H       -3.8872420     1.2699250     0.0031310
  H       -2.5562430     1.2534570     1.2541040
  H       -2.5562430    -1.2534530     1.2541090
  H       -3.8872430    -1.2699240     0.0031370
  H       -0.4732260     2.1464250    -0.2897140
  H       -0.4732250    -2.1464270    -0.2897140
  H        1.9843610     2.1482350     0.0181390
  H        1.9843620    -2.1482350     0.0181390
  H        4.1207180    -0.8853500    -0.1681390
  H        4.1207180     0.8853520    -0.1681380
  H        3.8883030     0.0000000     1.3432050
units angstrom
no_reorient  #important for SAPT in psi4, default
symmetry c1  #important for SAPT in psi4, default
}

set PROPERTIES_ORIGIN ["COM"]
properties('MP2/aug-cc-pvtz', properties = ['dipole'])
--------------------------------------------------------------------------

    Molecular point group: c1
  Charge       = 0
  Multiplicity = 1
  Basis Set: AUG-CC-PVTZ
    Blend: AUG-CC-PVTZ
  Basis Set: (AUG-CC-PVTZ AUX)
    Blend: AUG-CC-PVTZ-JKFIT

    Orbital Energies [Eh]
    ---------------------

    Doubly Occupied:

       1A    -11.238014     2A    -11.234389     3A    -11.232946
       4A    -11.229324     5A    -11.229137     6A    -11.227560
       7A    -11.227461     8A    -11.224652     9A    -11.223860
      10A    -11.222505    11A     -1.163822    12A     -1.130792
      13A     -1.039373    14A     -1.006830    15A     -0.936789
      16A     -0.833934    17A     -0.831668    18A     -0.808883
      19A     -0.765650    20A     -0.686444    21A     -0.655061
      22A     -0.633904    23A     -0.626597    24A     -0.598057
      25A     -0.577130    26A     -0.573200    27A     -0.538598
      28A     -0.527935    29A     -0.511000    30A     -0.489845
      31A     -0.483830    32A     -0.476220    33A     -0.423800
      34A     -0.414103    35A     -0.331566    36A     -0.312344

  @DF-RHF Final Energy:  -385.76873230791625

   => Energetics <=

    Nuclear Repulsion Energy =            482.5974379784611301
    One-Electron Energy =               -1477.3978892687396183
    Two-Electron Energy =                 609.0317189823622357
    Total Energy =                       -385.7687323079162525
  Basis Set: (AUG-CC-PVTZ AUX)
    Blend: AUG-CC-PVTZ-RI
    Molecular point group: c1

    Geometry (in Angstrom), charge = 0, multiplicity = 1:

       Center              X                  Y                   Z               Mass
    ------------   -----------------  -----------------  -----------------  -----------------
         C           -2.123065486138    -0.000021820097    -0.515944673905    12.000000000000
         C           -3.026361486138     0.752221179903     0.426516326095    12.000000000000
         C           -3.039180086138    -0.752031720097     0.403604126095    12.000000000000
         C           -0.646416486138    -0.000021820097    -0.297801673905    12.000000000000
         C            0.065715513862     1.202969179903    -0.208516673905    12.000000000000
         C            0.065715513862    -1.203011820097    -0.208516673905    12.000000000000
         C            1.449708513862     1.201305179903    -0.034542673905    12.000000000000
         C            1.449709513862    -1.201346820097    -0.034542673905    12.000000000000
         C            2.164814513862    -0.000020820097     0.053386326095    12.000000000000
         C            3.653641513862    -0.000019820097     0.285595326095    12.000000000000
         H           -2.433949486138    -0.000024820097    -1.560297673905     1.007825032230
         H           -3.887345486138     1.269904179903     0.015768326095     1.007825032230
         H           -2.556346486138     1.253436179903     1.266741326095     1.007825032230
         H           -2.556346486138    -1.253473820097     1.266746326095     1.007825032230
         H           -3.887346486138    -1.269944820097     0.015774326095     1.007825032230
         H           -0.473329486138     2.146404179903    -0.277076673905     1.007825032230
         H           -0.473328486138    -2.146447820097    -0.277076673905     1.007825032230
         H            1.984257513862     2.148214179903     0.030776326095     1.007825032230
         H            1.984258513862    -2.148255820097     0.030776326095     1.007825032230
         H            4.120614513862    -0.885370820097    -0.155501673905     1.007825032230
         H            4.120614513862     0.885331179903    -0.155500673905     1.007825032230
         H            3.888199513862    -0.000020820097     1.355842326095     1.007825032230

  Basis Set: AUG-CC-PVTZ
    Blend: AUG-CC-PVTZ
  Basis Set: (AUG-CC-PVTZ AUX)
    Blend: AUG-CC-PVTZ-JKFIT
	 Reference Energy          =    -385.7687323079162525 [Eh]
	 Singles Energy            =      -0.0000000000000000 [Eh]
	 Same-Spin Energy          =      -0.4317380666422430 [Eh]
	 Opposite-Spin Energy      =      -1.4114956804898018 [Eh]
	 Correlation Energy        =      -1.8432337471320448 [Eh]
	 Total Energy              =    -387.6119660550482990 [Eh]

	 ================> DF-SCS-MP2 Energies <==================
	-----------------------------------------------------------
	 SCS Same-Spin Scale       =       0.3333333333333333 [-]
	 SCS Opposite-Spin Scale   =       1.2000000000000000 [-]
	 SCS Same-Spin Energy      =      -0.1439126888807477 [Eh]
	 SCS Opposite-Spin Energy  =      -1.6937948165877621 [Eh]
	 SCS Correlation Energy    =      -1.8377075054685097 [Eh]
	 SCS Total Energy          =    -387.6064398133847817 [Eh]
	-----------------------------------------------------------

  Dipole Moment: [D]
     X:     0.1142      Y:    -0.0076      Z:     0.0225     Total:     0.1166

*** Psi4 exiting successfully. Buy a developer a beer!
