                               Psi4 1.4a3.dev225

  ==> Input File <==

--------------------------------------------------------------------------
#psi4
#
memory 32 gb

molecule  {
0 1
  C       -2.1229620    -0.0000010    -0.5285820
  C       -3.0262580     0.7522420     0.4138790
  C       -3.0262580    -0.7522400     0.4138820
  C       -0.6463130    -0.0000010    -0.3104390
  C        0.0658190     1.2029900    -0.2211540
  C        0.0658190    -1.2029910    -0.2211540
  C        1.4420425     1.0555300    -0.0480330
  C        1.4498130    -1.2013260    -0.0471800
  C        2.1649180     0.0000000     0.0407490
  C        3.6537450     0.0000010     0.2729580
  H       -2.4338460    -0.0000040    -1.5729350
  H       -3.8872420     1.2699250     0.0031310
  H       -2.5562430     1.2534570     1.2541040
  H       -2.5562430    -1.2534530     1.2541090
  H       -3.8872430    -1.2699240     0.0031370
  H       -0.4732260     2.1464250    -0.2897140
  H       -0.4732250    -2.1464270    -0.2897140
  H        1.9843610     2.1482350     0.0181390
  H        1.9843620    -2.1482350     0.0181390
  H        4.1207180    -0.8853500    -0.1681390
  H        4.1207180     0.8853520    -0.1681380
  H        3.8883030     0.0000000     1.3432050
units angstrom
no_reorient  #important for SAPT in psi4, default
symmetry c1  #important for SAPT in psi4, default
}

set PROPERTIES_ORIGIN ["COM"]
properties('MP2/aug-cc-pvtz', properties = ['dipole'])
--------------------------------------------------------------------------

    Molecular point group: c1
  Charge       = 0
  Multiplicity = 1
  Basis Set: AUG-CC-PVTZ
    Blend: AUG-CC-PVTZ
  Basis Set: (AUG-CC-PVTZ AUX)
    Blend: AUG-CC-PVTZ-JKFIT

    Orbital Energies [Eh]
    ---------------------

    Doubly Occupied:

       1A    -11.235384     2A    -11.233323     3A    -11.230340
       4A    -11.228921     5A    -11.226863     6A    -11.226009
       7A    -11.225411     8A    -11.224696     9A    -11.223757
      10A    -11.222373    11A     -1.172477    12A     -1.139318
      13A     -1.046824    14A     -1.003585    15A     -0.941233
      16A     -0.845422    17A     -0.831593    18A     -0.810352
      19A     -0.759966    20A     -0.687118    21A     -0.655546
      22A     -0.641011    23A     -0.622463    24A     -0.596736
      25A     -0.577117    26A     -0.565346    27A     -0.537387
      28A     -0.532112    29A     -0.513017    30A     -0.499075
      31A     -0.489763    32A     -0.455727    33A     -0.426246
      34A     -0.410705    35A     -0.334168    36A     -0.320416

  @DF-RHF Final Energy:  -385.74248541582358

   => Energetics <=

    Nuclear Repulsion Energy =            485.0710793489939761
    One-Electron Energy =               -1482.2435264279936291
    Two-Electron Energy =                 611.4299616631760728
    Total Energy =                       -385.7424854158235803
  Basis Set: (AUG-CC-PVTZ AUX)
    Blend: AUG-CC-PVTZ-RI
    Molecular point group: c1

    Geometry (in Angstrom), charge = 0, multiplicity = 1:

       Center              X                  Y                   Z               Mass
    ------------   -----------------  -----------------  -----------------  -----------------
         C           -2.123524168937     0.013243752309    -0.517948902709    12.000000000000
         C           -3.026820168937     0.765486752309     0.424512097291    12.000000000000
         C           -3.026820168937    -0.738995247691     0.424515097291    12.000000000000
         C           -0.646875168937     0.013243752309    -0.299805902709    12.000000000000
         C            0.065256831063     1.216234752309    -0.210520902709    12.000000000000
         C            0.065256831063    -1.189746247691    -0.210520902709    12.000000000000
         C            1.441480331063     1.068774752309    -0.037399902709    12.000000000000
         C            1.449250831063    -1.188081247691    -0.036546902709    12.000000000000
         C            2.164355831063     0.013244752309     0.051382097291    12.000000000000
         C            3.653182831063     0.013245752309     0.283591097291    12.000000000000
         H           -2.434408168937     0.013240752309    -1.562301902709     1.007825032230
         H           -3.887804168937     1.283169752309     0.013764097291     1.007825032230
         H           -2.556805168937     1.266701752309     1.264737097291     1.007825032230
         H           -2.556805168937    -1.240208247691     1.264742097291     1.007825032230
         H           -3.887805168937    -1.256679247691     0.013770097291     1.007825032230
         H           -0.473788168937     2.159669752309    -0.279080902709     1.007825032230
         H           -0.473787168937    -2.133182247691    -0.279080902709     1.007825032230
         H            1.983798831063     2.161479752309     0.028772097291     1.007825032230
         H            1.983799831063    -2.134990247691     0.028772097291     1.007825032230
         H            4.120155831063    -0.872105247691    -0.157505902709     1.007825032230
         H            4.120155831063     0.898596752309    -0.157504902709     1.007825032230
         H            3.887740831063     0.013244752309     1.353838097291     1.007825032230

  Basis Set: AUG-CC-PVTZ
    Blend: AUG-CC-PVTZ
  Basis Set: (AUG-CC-PVTZ AUX)
    Blend: AUG-CC-PVTZ-JKFIT
	 Reference Energy          =    -385.7424854158235803 [Eh]
	 Singles Energy            =      -0.0000000000000000 [Eh]
	 Same-Spin Energy          =      -0.4321378991495716 [Eh]
	 Opposite-Spin Energy      =      -1.4123673291909133 [Eh]
	 Correlation Energy        =      -1.8445052283404850 [Eh]
	 Total Energy              =    -387.5869906441640751 [Eh]

	 ================> DF-SCS-MP2 Energies <==================
	-----------------------------------------------------------
	 SCS Same-Spin Scale       =       0.3333333333333333 [-]
	 SCS Opposite-Spin Scale   =       1.2000000000000000 [-]
	 SCS Same-Spin Energy      =      -0.1440459663831905 [Eh]
	 SCS Opposite-Spin Energy  =      -1.6948407950290960 [Eh]
	 SCS Correlation Energy    =      -1.8388867614122866 [Eh]
	 SCS Total Energy          =    -387.5813721772358917 [Eh]
	-----------------------------------------------------------

  Dipole Moment: [D]
     X:     0.0202      Y:    -0.1066      Z:     0.0096     Total:     0.1089

*** Psi4 exiting successfully. Buy a developer a beer!
