                               Psi4 1.4a3.dev225

  ==> Input File <==

--------------------------------------------------------------------------
#psi4
#
memory 32 gb

molecule  {
0 1
  C       -2.1229620    -0.0000010    -0.5285820
  C       -3.0262580     0.7522420     0.4138790
  C       -3.0262580    -0.7522400     0.4138820
  C       -0.7278304     0.0529941    -0.3207598
  C        0.0658190     1.2029900    -0.2211540
  C        0.0658190    -1.2029910    -0.2211540
  C        1.4498120     1.2013260    -0.0471800
  C        1.4498130    -1.2013260    -0.0471800
  C        2.1649180     0.0000000     0.0407490
  C        3.6537450     0.0000010     0.2729580
  H       -2.4338460    -0.0000040    -1.5729350
  H       -3.8872420     1.2699250     0.0031310
  H       -2.5562430     1.2534570     1.2541040
  H       -2.5562430    -1.2534530     1.2541090
  H       -3.8872430    -1.2699240     0.0031370
  H       -0.4732260     2.1464250    -0.2897140
  H       -0.4732250    -2.1464270    -0.2897140
  H        1.9843610     2.1482350     0.0181390
  H        1.9843620    -2.1482350     0.0181390
  H        4.1207180    -0.8853500    -0.1681390
  H        4.1207180     0.8853520    -0.1681380
  H        3.8883030     0.0000000     1.3432050
units angstrom
no_reorient  #important for SAPT in psi4, default
symmetry c1  #important for SAPT in psi4, default
}

set PROPERTIES_ORIGIN ["COM"]
properties('MP2/aug-cc-pvtz', properties = ['dipole'])
--------------------------------------------------------------------------

    Molecular point group: c1
  Charge       = 0
  Multiplicity = 1
  Basis Set: AUG-CC-PVTZ
    Blend: AUG-CC-PVTZ
  Basis Set: (AUG-CC-PVTZ AUX)
    Blend: AUG-CC-PVTZ-JKFIT

    Orbital Energies [Eh]
    ---------------------

    Doubly Occupied:

       1A    -11.238823     2A    -11.238396     3A    -11.236859
       4A    -11.230598     5A    -11.229078     6A    -11.227562
       7A    -11.227361     8A    -11.226802     9A    -11.225509
      10A    -11.222583    11A     -1.166562    12A     -1.129205
      13A     -1.036206    14A     -1.002049    15A     -0.942144
      16A     -0.843163    17A     -0.833482    18A     -0.806214
      19A     -0.762452    20A     -0.690724    21A     -0.654897
      22A     -0.632369    23A     -0.627839    24A     -0.600528
      25A     -0.572985    26A     -0.570298    27A     -0.537832
      28A     -0.533989    29A     -0.514132    30A     -0.493566
      31A     -0.480527    32A     -0.476258    33A     -0.428427
      34A     -0.407573    35A     -0.331325    36A     -0.304267

  @DF-RHF Final Energy:  -385.75540629563432

   => Energetics <=

    Nuclear Repulsion Energy =            482.2908053979091392
    One-Electron Energy =               -1476.7272635748204266
    Two-Electron Energy =                 608.6810518812769715
    Total Energy =                       -385.7554062956343159
  Basis Set: (AUG-CC-PVTZ AUX)
    Blend: AUG-CC-PVTZ-RI
    Molecular point group: c1

    Geometry (in Angstrom), charge = 0, multiplicity = 1:

       Center              X                  Y                   Z               Mass
    ------------   -----------------  -----------------  -----------------  -----------------
         C           -2.116824580255    -0.004815319253    -0.517088805462    12.000000000000
         C           -3.020120580255     0.747427680747     0.425372194538    12.000000000000
         C           -3.020120580255    -0.757054319253     0.425375194538    12.000000000000
         C           -0.721692980255     0.048179780747    -0.309266605462    12.000000000000
         C            0.071956419745     1.198175680747    -0.209660805462    12.000000000000
         C            0.071956419745    -1.207805319253    -0.209660805462    12.000000000000
         C            1.455949419745     1.196511680747    -0.035686805462    12.000000000000
         C            1.455950419745    -1.206140319253    -0.035686805462    12.000000000000
         C            2.171055419745    -0.004814319253     0.052242194538    12.000000000000
         C            3.659882419745    -0.004813319253     0.284451194538    12.000000000000
         H           -2.427708580255    -0.004818319253    -1.561441805462     1.007825032230
         H           -3.881104580255     1.265110680747     0.014624194538     1.007825032230
         H           -2.550105580255     1.248642680747     1.265597194538     1.007825032230
         H           -2.550105580255    -1.258267319253     1.265602194538     1.007825032230
         H           -3.881105580255    -1.274738319253     0.014630194538     1.007825032230
         H           -0.467088580255     2.141610680747    -0.278220805462     1.007825032230
         H           -0.467087580255    -2.151241319253    -0.278220805462     1.007825032230
         H            1.990498419745     2.143420680747     0.029632194538     1.007825032230
         H            1.990499419745    -2.153049319253     0.029632194538     1.007825032230
         H            4.126855419745    -0.890164319253    -0.156645805462     1.007825032230
         H            4.126855419745     0.880537680747    -0.156644805462     1.007825032230
         H            3.894440419745    -0.004814319253     1.354698194538     1.007825032230

  Basis Set: AUG-CC-PVTZ
    Blend: AUG-CC-PVTZ
  Basis Set: (AUG-CC-PVTZ AUX)
    Blend: AUG-CC-PVTZ-JKFIT
	 Reference Energy          =    -385.7554062956343159 [Eh]
	 Singles Energy            =      -0.0000000000000000 [Eh]
	 Same-Spin Energy          =      -0.4329294359274687 [Eh]
	 Opposite-Spin Energy      =      -1.4137546155173537 [Eh]
	 Correlation Energy        =      -1.8466840514448224 [Eh]
	 Total Energy              =    -387.6020903470791268 [Eh]

	 ================> DF-SCS-MP2 Energies <==================
	-----------------------------------------------------------
	 SCS Same-Spin Scale       =       0.3333333333333333 [-]
	 SCS Opposite-Spin Scale   =       1.2000000000000000 [-]
	 SCS Same-Spin Energy      =      -0.1443098119758229 [Eh]
	 SCS Opposite-Spin Energy  =      -1.6965055386208243 [Eh]
	 SCS Correlation Energy    =      -1.8408153505966471 [Eh]
	 SCS Total Energy          =    -387.5962216462309584 [Eh]
	-----------------------------------------------------------

  Dipole Moment: [D]
     X:    -0.0158      Y:    -0.0124      Z:     0.0349     Total:     0.0403

*** Psi4 exiting successfully. Buy a developer a beer!
