                               Psi4 1.4a3.dev225

  ==> Input File <==

--------------------------------------------------------------------------
#psi4
#
memory 32 gb

molecule  {
0 1
  C       -2.1229620    -0.0000010    -0.5285820
  C       -3.1681947     0.7440002     0.3461660
  C       -3.0262580    -0.7522400     0.4138820
  C       -0.6463130    -0.0000010    -0.3104390
  C        0.0658190     1.2029900    -0.2211540
  C        0.0658190    -1.2029910    -0.2211540
  C        1.4498120     1.2013260    -0.0471800
  C        1.4498130    -1.2013260    -0.0471800
  C        2.1649180     0.0000000     0.0407490
  C        3.6537450     0.0000010     0.2729580
  H       -2.4338460    -0.0000040    -1.5729350
  H       -3.8872420     1.2699250     0.0031310
  H       -2.5562430     1.2534570     1.2541040
  H       -2.5562430    -1.2534530     1.2541090
  H       -3.8872430    -1.2699240     0.0031370
  H       -0.4732260     2.1464250    -0.2897140
  H       -0.4732250    -2.1464270    -0.2897140
  H        1.9843610     2.1482350     0.0181390
  H        1.9843620    -2.1482350     0.0181390
  H        4.1207180    -0.8853500    -0.1681390
  H        4.1207180     0.8853520    -0.1681380
  H        3.8883030     0.0000000     1.3432050
units angstrom
no_reorient  #important for SAPT in psi4, default
symmetry c1  #important for SAPT in psi4, default
}

set PROPERTIES_ORIGIN ["COM"]
properties('MP2/aug-cc-pvtz', properties = ['dipole'])
--------------------------------------------------------------------------

    Molecular point group: c1
  Charge       = 0
  Multiplicity = 1
  Basis Set: AUG-CC-PVTZ
    Blend: AUG-CC-PVTZ
  Basis Set: (AUG-CC-PVTZ AUX)
    Blend: AUG-CC-PVTZ-JKFIT

    Orbital Energies [Eh]
    ---------------------

    Doubly Occupied:

       1A    -11.238629     2A    -11.236263     3A    -11.235345
       4A    -11.230610     5A    -11.229450     6A    -11.228702
       7A    -11.228334     8A    -11.227658     9A    -11.227104
      10A    -11.222851    11A     -1.160432    12A     -1.126910
      13A     -1.040262    14A     -1.007347    15A     -0.938151
      16A     -0.840909    17A     -0.832275    18A     -0.815175
      19A     -0.765947    20A     -0.680997    21A     -0.666060
      22A     -0.634580    23A     -0.627687    24A     -0.595862
      25A     -0.577629    26A     -0.573571    27A     -0.539391
      28A     -0.528609    29A     -0.510508    30A     -0.488422
      31A     -0.483677    32A     -0.477129    33A     -0.426866
      34A     -0.398531    35A     -0.331999    36A     -0.312954

  @DF-RHF Final Energy:  -385.73873020858059

   => Energetics <=

    Nuclear Repulsion Energy =            481.2378836559485649
    One-Electron Energy =               -1474.5795792984574746
    Two-Electron Energy =                 607.6029654339283752
    Total Energy =                       -385.7387302085805914
  Basis Set: (AUG-CC-PVTZ AUX)
    Blend: AUG-CC-PVTZ-RI
    Molecular point group: c1

    Geometry (in Angstrom), charge = 0, multiplicity = 1:

       Center              X                  Y                   Z               Mass
    ------------   -----------------  -----------------  -----------------  -----------------
         C           -2.111335821139     0.000747714300    -0.511875041632    12.000000000000
         C           -3.156568521139     0.744748914300     0.362872958368    12.000000000000
         C           -3.014631821139    -0.751491285700     0.430588958368    12.000000000000
         C           -0.634686821139     0.000747714300    -0.293732041632    12.000000000000
         C            0.077445178861     1.203738714300    -0.204447041632    12.000000000000
         C            0.077445178861    -1.202242285700    -0.204447041632    12.000000000000
         C            1.461438178861     1.202074714300    -0.030473041632    12.000000000000
         C            1.461439178861    -1.200577285700    -0.030473041632    12.000000000000
         C            2.176544178861     0.000748714300     0.057455958368    12.000000000000
         C            3.665371178861     0.000749714300     0.289664958368    12.000000000000
         H           -2.422219821139     0.000744714300    -1.556228041632     1.007825032230
         H           -3.875615821139     1.270673714300     0.019837958368     1.007825032230
         H           -2.544616821139     1.254205714300     1.270810958368     1.007825032230
         H           -2.544616821139    -1.252704285700     1.270815958368     1.007825032230
         H           -3.875616821139    -1.269175285700     0.019843958368     1.007825032230
         H           -0.461599821139     2.147173714300    -0.273007041632     1.007825032230
         H           -0.461598821139    -2.145678285700    -0.273007041632     1.007825032230
         H            1.995987178861     2.148983714300     0.034845958368     1.007825032230
         H            1.995988178861    -2.147486285700     0.034845958368     1.007825032230
         H            4.132344178861    -0.884601285700    -0.151432041632     1.007825032230
         H            4.132344178861     0.886100714300    -0.151431041632     1.007825032230
         H            3.899929178861     0.000748714300     1.359911958368     1.007825032230

  Basis Set: AUG-CC-PVTZ
    Blend: AUG-CC-PVTZ
  Basis Set: (AUG-CC-PVTZ AUX)
    Blend: AUG-CC-PVTZ-JKFIT
	 Reference Energy          =    -385.7387302085805914 [Eh]
	 Singles Energy            =      -0.0000000000000000 [Eh]
	 Same-Spin Energy          =      -0.4320498858782607 [Eh]
	 Opposite-Spin Energy      =      -1.4131311143200231 [Eh]
	 Correlation Energy        =      -1.8451810001982838 [Eh]
	 Total Energy              =    -387.5839112087788862 [Eh]

	 ================> DF-SCS-MP2 Energies <==================
	-----------------------------------------------------------
	 SCS Same-Spin Scale       =       0.3333333333333333 [-]
	 SCS Opposite-Spin Scale   =       1.2000000000000000 [-]
	 SCS Same-Spin Energy      =      -0.1440166286260869 [Eh]
	 SCS Opposite-Spin Energy  =      -1.6957573371840278 [Eh]
	 SCS Correlation Energy    =      -1.8397739658101147 [Eh]
	 SCS Total Energy          =    -387.5785041743907300 [Eh]
	-----------------------------------------------------------

  Dipole Moment: [D]
     X:     0.1544      Y:    -0.0473      Z:    -0.0221     Total:     0.1629

*** Psi4 exiting successfully. Buy a developer a beer!
