                               Psi4 1.4a3.dev225

  ==> Input File <==

--------------------------------------------------------------------------
#psi4
#
memory 32 gb

molecule  {
0 1
  C       -2.1229620    -0.0000010    -0.5285820
  C       -3.0262580     0.7522420     0.4138790
  C       -3.0262580    -0.7522400     0.4138820
  C       -0.6463130    -0.0000010    -0.3104390
  C        0.0658190     1.2029900    -0.2211540
  C        0.0658190    -1.2029910    -0.2211540
  C        1.4498120     1.2013260    -0.0471800
  C        1.4498130    -1.2013260    -0.0471800
  C        2.1649180     0.0000000     0.0407490
  C        3.6537450     0.0000010     0.2729580
  H       -2.4338460    -0.0000040    -1.5729350
  H       -3.8872420     1.2699250     0.0031310
  H       -2.5562430     1.2534570     1.2541040
  H       -2.5562430    -1.2534530     1.2541090
  H       -3.8872430    -1.2699240     0.0031370
  H       -0.4732260     2.1464250    -0.2897140
  H       -0.4732250    -2.1464270    -0.2897140
  H        1.9843610     2.1482350     0.0181390
  H        1.9843620    -2.1482350     0.0181390
  H        4.1207180    -0.8853500    -0.1681390
  H        4.0353353     0.7234719    -0.0874867
  H        3.8883030     0.0000000     1.3432050
units angstrom
no_reorient  #important for SAPT in psi4, default
symmetry c1  #important for SAPT in psi4, default
}

set PROPERTIES_ORIGIN ["COM"]
properties('MP2/aug-cc-pvtz', properties = ['dipole'])
--------------------------------------------------------------------------

    Molecular point group: c1
  Charge       = 0
  Multiplicity = 1
  Basis Set: AUG-CC-PVTZ
    Blend: AUG-CC-PVTZ
  Basis Set: (AUG-CC-PVTZ AUX)
    Blend: AUG-CC-PVTZ-JKFIT

    Orbital Energies [Eh]
    ---------------------

    Doubly Occupied:

       1A    -11.236619     2A    -11.233642     3A    -11.232671
       4A    -11.228864     5A    -11.228405     6A    -11.227231
       7A    -11.226336     8A    -11.224393     9A    -11.223740
      10A    -11.197729    11A     -1.163131    12A     -1.130438
      13A     -1.046098    14A     -1.006263    15A     -0.952978
      16A     -0.836644    17A     -0.833432    18A     -0.808583
      19A     -0.766514    20A     -0.687883    21A     -0.654422
      22A     -0.640489    23A     -0.626724    24A     -0.600306
      25A     -0.585618    26A     -0.576464    27A     -0.553474
      28A     -0.528014    29A     -0.512113    30A     -0.489251
      31A     -0.484557    32A     -0.475979    33A     -0.424031
      34A     -0.412505    35A     -0.331055    36A     -0.311970

  @DF-RHF Final Energy:  -385.73566169518494

   => Energetics <=

    Nuclear Repulsion Energy =            483.6004652692606101
    One-Electron Energy =               -1479.2751218905191308
    Two-Electron Energy =                 609.9389949260735193
    Total Energy =                       -385.7356616951849446
  Basis Set: (AUG-CC-PVTZ AUX)
    Blend: AUG-CC-PVTZ-RI
    Molecular point group: c1

    Geometry (in Angstrom), charge = 0, multiplicity = 1:

       Center              X                  Y                   Z               Mass
    ------------   -----------------  -----------------  -----------------  -----------------
         C           -2.123578548266     0.001234074509    -0.518641731058    12.000000000000
         C           -3.026874548266     0.753477074509     0.423819268942    12.000000000000
         C           -3.026874548266    -0.751004925491     0.423822268942    12.000000000000
         C           -0.646929548266     0.001234074509    -0.300498731058    12.000000000000
         C            0.065202451734     1.204225074509    -0.211213731058    12.000000000000
         C            0.065202451734    -1.201755925491    -0.211213731058    12.000000000000
         C            1.449195451734     1.202561074509    -0.037239731058    12.000000000000
         C            1.449196451734    -1.200090925491    -0.037239731058    12.000000000000
         C            2.164301451734     0.001235074509     0.050689268942    12.000000000000
         C            3.653128451734     0.001236074509     0.282898268942    12.000000000000
         H           -2.434462548266     0.001231074509    -1.562994731058     1.007825032230
         H           -3.887858548266     1.271160074509     0.013071268942     1.007825032230
         H           -2.556859548266     1.254692074509     1.264044268942     1.007825032230
         H           -2.556859548266    -1.252217925491     1.264049268942     1.007825032230
         H           -3.887859548266    -1.268688925491     0.013077268942     1.007825032230
         H           -0.473842548266     2.147660074509    -0.279773731058     1.007825032230
         H           -0.473841548266    -2.145191925491    -0.279773731058     1.007825032230
         H            1.983744451734     2.149470074509     0.028079268942     1.007825032230
         H            1.983745451734    -2.146999925491     0.028079268942     1.007825032230
         H            4.120101451734    -0.884114925491    -0.158198731058     1.007825032230
         H            4.034718751734     0.724706974509    -0.077546431058     1.007825032230
         H            3.887686451734     0.001235074509     1.353145268942     1.007825032230

  Basis Set: AUG-CC-PVTZ
    Blend: AUG-CC-PVTZ
  Basis Set: (AUG-CC-PVTZ AUX)
    Blend: AUG-CC-PVTZ-JKFIT
	 Reference Energy          =    -385.7356616951849446 [Eh]
	 Singles Energy            =      -0.0000000000000000 [Eh]
	 Same-Spin Energy          =      -0.4317875470497217 [Eh]
	 Opposite-Spin Energy      =      -1.4108239774497469 [Eh]
	 Correlation Energy        =      -1.8426115244994685 [Eh]
	 Total Energy              =    -387.5782732196844336 [Eh]

	 ================> DF-SCS-MP2 Energies <==================
	-----------------------------------------------------------
	 SCS Same-Spin Scale       =       0.3333333333333333 [-]
	 SCS Opposite-Spin Scale   =       1.2000000000000000 [-]
	 SCS Same-Spin Energy      =      -0.1439291823499072 [Eh]
	 SCS Opposite-Spin Energy  =      -1.6929887729396962 [Eh]
	 SCS Correlation Energy    =      -1.8369179552896033 [Eh]
	 SCS Total Energy          =    -387.5725796504745517 [Eh]
	-----------------------------------------------------------

  Dipole Moment: [D]
     X:     0.1898      Y:     0.0483      Z:     0.0138     Total:     0.1964

*** Psi4 exiting successfully. Buy a developer a beer!
