                               Psi4 1.4a3.dev225

  ==> Input File <==

--------------------------------------------------------------------------
#psi4
#
memory 32 gb

molecule  {
0 1
  C       -2.1191658    -0.1041158    -0.5293988
  C       -3.0262580     0.7522420     0.4138790
  C       -3.0262580    -0.7522400     0.4138820
  C       -0.6463130    -0.0000010    -0.3104390
  C        0.0658190     1.2029900    -0.2211540
  C        0.0658190    -1.2029910    -0.2211540
  C        1.4498120     1.2013260    -0.0471800
  C        1.4498130    -1.2013260    -0.0471800
  C        2.1649180     0.0000000     0.0407490
  C        3.6537450     0.0000010     0.2729580
  H       -2.4338460    -0.0000040    -1.5729350
  H       -3.8872420     1.2699250     0.0031310
  H       -2.5562430     1.2534570     1.2541040
  H       -2.5562430    -1.2534530     1.2541090
  H       -3.8872430    -1.2699240     0.0031370
  H       -0.4732260     2.1464250    -0.2897140
  H       -0.4732250    -2.1464270    -0.2897140
  H        1.9843610     2.1482350     0.0181390
  H        1.9843620    -2.1482350     0.0181390
  H        4.1207180    -0.8853500    -0.1681390
  H        4.1207180     0.8853520    -0.1681380
  H        3.8883030     0.0000000     1.3432050
units angstrom
no_reorient  #important for SAPT in psi4, default
symmetry c1  #important for SAPT in psi4, default
}

set PROPERTIES_ORIGIN ["COM"]
properties('MP2/aug-cc-pvtz', properties = ['dipole'])
--------------------------------------------------------------------------

    Molecular point group: c1
  Charge       = 0
  Multiplicity = 1
  Basis Set: AUG-CC-PVTZ
    Blend: AUG-CC-PVTZ
  Basis Set: (AUG-CC-PVTZ AUX)
    Blend: AUG-CC-PVTZ-JKFIT

    Orbital Energies [Eh]
    ---------------------

    Doubly Occupied:

       1A    -11.238039     2A    -11.235199     3A    -11.234382
       4A    -11.230527     5A    -11.228226     6A    -11.228058
       7A    -11.226943     8A    -11.226772     9A    -11.222536
      10A    -11.222421    11A     -1.163448    12A     -1.129986
      13A     -1.039325    14A     -1.006923    15A     -0.936878
      16A     -0.836386    17A     -0.829609    18A     -0.809195
      19A     -0.765571    20A     -0.686922    21A     -0.652094
      22A     -0.634107    23A     -0.626216    24A     -0.598883
      25A     -0.577181    26A     -0.573230    27A     -0.538765
      28A     -0.528037    29A     -0.512285    30A     -0.490491
      31A     -0.483745    32A     -0.475698    33A     -0.442139
      34A     -0.393616    35A     -0.331633    36A     -0.311865

  @DF-RHF Final Energy:  -385.76347364293667

   => Energetics <=

    Nuclear Repulsion Energy =            482.5682418636401394
    One-Electron Energy =               -1477.3287710048905410
    Two-Electron Energy =                 608.9970554983136708
    Total Energy =                       -385.7634736429366740
  Basis Set: (AUG-CC-PVTZ AUX)
    Blend: AUG-CC-PVTZ-RI
    Molecular point group: c1

    Geometry (in Angstrom), charge = 0, multiplicity = 1:

       Center              X                  Y                   Z               Mass
    ------------   -----------------  -----------------  -----------------  -----------------
         C           -2.120778648792    -0.094657554097    -0.518768991278    12.000000000000
         C           -3.027870848792     0.761700245903     0.424508808722    12.000000000000
         C           -3.027870848792    -0.742781754097     0.424511808722    12.000000000000
         C           -0.647925848792     0.009457245903    -0.299809191278    12.000000000000
         C            0.064206151208     1.212448245903    -0.210524191278    12.000000000000
         C            0.064206151208    -1.193532754097    -0.210524191278    12.000000000000
         C            1.448199151208     1.210784245903    -0.036550191278    12.000000000000
         C            1.448200151208    -1.191867754097    -0.036550191278    12.000000000000
         C            2.163305151208     0.009458245903     0.051378808722    12.000000000000
         C            3.652132151208     0.009459245903     0.283587808722    12.000000000000
         H           -2.435458848792     0.009454245903    -1.562305191278     1.007825032230
         H           -3.888854848792     1.279383245903     0.013760808722     1.007825032230
         H           -2.557855848792     1.262915245903     1.264733808722     1.007825032230
         H           -2.557855848792    -1.243994754097     1.264738808722     1.007825032230
         H           -3.888855848792    -1.260465754097     0.013766808722     1.007825032230
         H           -0.474838848792     2.155883245903    -0.279084191278     1.007825032230
         H           -0.474837848792    -2.136968754097    -0.279084191278     1.007825032230
         H            1.982748151208     2.157693245903     0.028768808722     1.007825032230
         H            1.982749151208    -2.138776754097     0.028768808722     1.007825032230
         H            4.119105151208    -0.875891754097    -0.157509191278     1.007825032230
         H            4.119105151208     0.894810245903    -0.157508191278     1.007825032230
         H            3.886690151208     0.009458245903     1.353834808722     1.007825032230

  Basis Set: AUG-CC-PVTZ
    Blend: AUG-CC-PVTZ
  Basis Set: (AUG-CC-PVTZ AUX)
    Blend: AUG-CC-PVTZ-JKFIT
	 Reference Energy          =    -385.7634736429366740 [Eh]
	 Singles Energy            =      -0.0000000000000000 [Eh]
	 Same-Spin Energy          =      -0.4320653438134010 [Eh]
	 Opposite-Spin Energy      =      -1.4122554089165922 [Eh]
	 Correlation Energy        =      -1.8443207527299932 [Eh]
	 Total Energy              =    -387.6077943956666445 [Eh]

	 ================> DF-SCS-MP2 Energies <==================
	-----------------------------------------------------------
	 SCS Same-Spin Scale       =       0.3333333333333333 [-]
	 SCS Opposite-Spin Scale   =       1.2000000000000000 [-]
	 SCS Same-Spin Energy      =      -0.1440217812711337 [Eh]
	 SCS Opposite-Spin Energy  =      -1.6947064906999105 [Eh]
	 SCS Correlation Energy    =      -1.8387282719710443 [Eh]
	 SCS Total Energy          =    -387.6022019149077096 [Eh]
	-----------------------------------------------------------

  Dipole Moment: [D]
     X:     0.1271      Y:    -0.0651      Z:     0.0319     Total:     0.1463

*** Psi4 exiting successfully. Buy a developer a beer!
