                               Psi4 1.4a3.dev225

  ==> Input File <==

--------------------------------------------------------------------------
#psi4
#
memory 32 gb

molecule  {
0 1
  C       -2.1229620    -0.0000010    -0.5285820
  C       -3.0262580     0.7522420     0.4138790
  C       -3.1030327    -0.7439986     0.2766350
  C       -0.6463130    -0.0000010    -0.3104390
  C        0.0658190     1.2029900    -0.2211540
  C        0.0658190    -1.2029910    -0.2211540
  C        1.4498120     1.2013260    -0.0471800
  C        1.4498130    -1.2013260    -0.0471800
  C        2.1649180     0.0000000     0.0407490
  C        3.6537450     0.0000010     0.2729580
  H       -2.4338460    -0.0000040    -1.5729350
  H       -3.8872420     1.2699250     0.0031310
  H       -2.5562430     1.2534570     1.2541040
  H       -2.5562430    -1.2534530     1.2541090
  H       -3.8872430    -1.2699240     0.0031370
  H       -0.4732260     2.1464250    -0.2897140
  H       -0.4732250    -2.1464270    -0.2897140
  H        1.9843610     2.1482350     0.0181390
  H        1.9843620    -2.1482350     0.0181390
  H        4.1207180    -0.8853500    -0.1681390
  H        4.1207180     0.8853520    -0.1681380
  H        3.8883030     0.0000000     1.3432050
units angstrom
no_reorient  #important for SAPT in psi4, default
symmetry c1  #important for SAPT in psi4, default
}

set PROPERTIES_ORIGIN ["COM"]
properties('MP2/aug-cc-pvtz', properties = ['dipole'])
--------------------------------------------------------------------------

    Molecular point group: c1
  Charge       = 0
  Multiplicity = 1
  Basis Set: AUG-CC-PVTZ
    Blend: AUG-CC-PVTZ
  Basis Set: (AUG-CC-PVTZ AUX)
    Blend: AUG-CC-PVTZ-JKFIT

    Orbital Energies [Eh]
    ---------------------

    Doubly Occupied:

       1A    -11.238713     2A    -11.236376     3A    -11.234295
       4A    -11.230648     5A    -11.229885     6A    -11.228395
       7A    -11.227915     8A    -11.227888     9A    -11.224244
      10A    -11.222903    11A     -1.166860    12A     -1.134380
      13A     -1.040928    14A     -1.007529    15A     -0.937858
      16A     -0.836733    17A     -0.833175    18A     -0.813145
      19A     -0.766965    20A     -0.683095    21A     -0.669805
      22A     -0.634808    23A     -0.628662    24A     -0.596400
      25A     -0.577794    26A     -0.573579    27A     -0.539484
      28A     -0.527845    29A     -0.499133    30A     -0.488509
      31A     -0.484620    32A     -0.476018    33A     -0.426276
      34A     -0.410028    35A     -0.332097    36A     -0.312973

  @DF-RHF Final Energy:  -385.74213445198143

   => Energetics <=

    Nuclear Repulsion Energy =            482.4876068655174777
    One-Electron Energy =               -1477.0595580687186157
    Two-Electron Energy =                 608.8298167512197097
    Total Energy =                       -385.7421344519814284
  Basis Set: (AUG-CC-PVTZ AUX)
    Blend: AUG-CC-PVTZ-RI
    Molecular point group: c1

    Geometry (in Angstrom), charge = 0, multiplicity = 1:

       Center              X                  Y                   Z               Mass
    ------------   -----------------  -----------------  -----------------  -----------------
         C           -2.117255428310    -0.000749693222    -0.505558262450    12.000000000000
         C           -3.020551428310     0.751493306778     0.436902737550    12.000000000000
         C           -3.097326128310    -0.744747293222     0.299658737550    12.000000000000
         C           -0.640606428310    -0.000749693222    -0.287415262450    12.000000000000
         C            0.071525571690     1.202241306778    -0.198130262450    12.000000000000
         C            0.071525571690    -1.203739693222    -0.198130262450    12.000000000000
         C            1.455518571690     1.200577306778    -0.024156262450    12.000000000000
         C            1.455519571690    -1.202074693222    -0.024156262450    12.000000000000
         C            2.170624571690    -0.000748693222     0.063772737550    12.000000000000
         C            3.659451571690    -0.000747693222     0.295981737550    12.000000000000
         H           -2.428139428310    -0.000752693222    -1.549911262450     1.007825032230
         H           -3.881535428310     1.269176306778     0.026154737550     1.007825032230
         H           -2.550536428310     1.252708306778     1.277127737550     1.007825032230
         H           -2.550536428310    -1.254201693222     1.277132737550     1.007825032230
         H           -3.881536428310    -1.270672693222     0.026160737550     1.007825032230
         H           -0.467519428310     2.145676306778    -0.266690262450     1.007825032230
         H           -0.467518428310    -2.147175693222    -0.266690262450     1.007825032230
         H            1.990067571690     2.147486306778     0.041162737550     1.007825032230
         H            1.990068571690    -2.148983693222     0.041162737550     1.007825032230
         H            4.126424571690    -0.886098693222    -0.145115262450     1.007825032230
         H            4.126424571690     0.884603306778    -0.145114262450     1.007825032230
         H            3.894009571690    -0.000748693222     1.366228737550     1.007825032230

  Basis Set: AUG-CC-PVTZ
    Blend: AUG-CC-PVTZ
  Basis Set: (AUG-CC-PVTZ AUX)
    Blend: AUG-CC-PVTZ-JKFIT
	 Reference Energy          =    -385.7421344519814284 [Eh]
	 Singles Energy            =      -0.0000000000000000 [Eh]
	 Same-Spin Energy          =      -0.4322141799210071 [Eh]
	 Opposite-Spin Energy      =      -1.4127566429048692 [Eh]
	 Correlation Energy        =      -1.8449708228258763 [Eh]
	 Total Energy              =    -387.5871052748072998 [Eh]

	 ================> DF-SCS-MP2 Energies <==================
	-----------------------------------------------------------
	 SCS Same-Spin Scale       =       0.3333333333333333 [-]
	 SCS Opposite-Spin Scale   =       1.2000000000000000 [-]
	 SCS Same-Spin Energy      =      -0.1440713933070024 [Eh]
	 SCS Opposite-Spin Energy  =      -1.6953079714858430 [Eh]
	 SCS Correlation Energy    =      -1.8393793647928454 [Eh]
	 SCS Total Energy          =    -387.5815138167742475 [Eh]
	-----------------------------------------------------------

  Dipole Moment: [D]
     X:     0.1336      Y:    -0.0033      Z:    -0.0385     Total:     0.1391

*** Psi4 exiting successfully. Buy a developer a beer!
