                               Psi4 1.4a3.dev225

  ==> Input File <==

--------------------------------------------------------------------------
#psi4
#
memory 32 gb

molecule  {
0 1
  C       -2.1229620    -0.0000010    -0.5285820
  C       -3.0262580     0.7522420     0.4138790
  C       -3.0262580    -0.7522400     0.4138820
  C       -0.5176605    -0.0684317    -0.2941585
  C        0.0658190     1.2029900    -0.2211540
  C        0.0658190    -1.2029910    -0.2211540
  C        1.4498120     1.2013260    -0.0471800
  C        1.4498130    -1.2013260    -0.0471800
  C        2.1649180     0.0000000     0.0407490
  C        3.6537450     0.0000010     0.2729580
  H       -2.4338460    -0.0000040    -1.5729350
  H       -3.8872420     1.2699250     0.0031310
  H       -2.5562430     1.2534570     1.2541040
  H       -2.5562430    -1.2534530     1.2541090
  H       -3.8872430    -1.2699240     0.0031370
  H       -0.4732260     2.1464250    -0.2897140
  H       -0.4732250    -2.1464270    -0.2897140
  H        1.9843610     2.1482350     0.0181390
  H        1.9843620    -2.1482350     0.0181390
  H        4.1207180    -0.8853500    -0.1681390
  H        4.1207180     0.8853520    -0.1681380
  H        3.8883030     0.0000000     1.3432050
units angstrom
no_reorient  #important for SAPT in psi4, default
symmetry c1  #important for SAPT in psi4, default
}

set PROPERTIES_ORIGIN ["COM"]
properties('MP2/aug-cc-pvtz', properties = ['dipole'])
--------------------------------------------------------------------------

    Molecular point group: c1
  Charge       = 0
  Multiplicity = 1
  Basis Set: AUG-CC-PVTZ
    Blend: AUG-CC-PVTZ
  Basis Set: (AUG-CC-PVTZ AUX)
    Blend: AUG-CC-PVTZ-JKFIT

    Orbital Energies [Eh]
    ---------------------

    Doubly Occupied:

       1A    -11.236590     2A    -11.234588     3A    -11.230657
       4A    -11.228903     5A    -11.228397     6A    -11.227519
       7A    -11.222566     8A    -11.222351     9A    -11.220063
      10A    -11.214365    11A     -1.169003    12A     -1.128217
      13A     -1.047583    14A     -1.013466    15A     -0.931164
      16A     -0.837297    17A     -0.815734    18A     -0.811087
      19A     -0.768741    20A     -0.683959    21A     -0.650169
      22A     -0.639477    23A     -0.624056    24A     -0.596119
      25A     -0.587833    26A     -0.573703    27A     -0.539027
      28A     -0.523304    29A     -0.509740    30A     -0.499136
      31A     -0.493286    32A     -0.451492    33A     -0.416793
      34A     -0.408776    35A     -0.339646    36A     -0.317930

  @DF-RHF Final Energy:  -385.74482983745065

   => Energetics <=

    Nuclear Repulsion Energy =            483.4103388807635611
    One-Electron Energy =               -1479.0248686920444925
    Two-Electron Energy =                 609.8696999738302793
    Total Energy =                       -385.7448298374506521
  Basis Set: (AUG-CC-PVTZ AUX)
    Blend: AUG-CC-PVTZ-RI
    Molecular point group: c1

    Geometry (in Angstrom), charge = 0, multiplicity = 1:

       Center              X                  Y                   Z               Mass
    ------------   -----------------  -----------------  -----------------  -----------------
         C           -2.135917352841     0.006215542851    -0.519505386387    12.000000000000
         C           -3.039213352841     0.758458542851     0.422955613613    12.000000000000
         C           -3.039213352841    -0.746023457149     0.422958613613    12.000000000000
         C           -0.530615852841    -0.062215157149    -0.285081886387    12.000000000000
         C            0.052863647159     1.209206542851    -0.212077386387    12.000000000000
         C            0.052863647159    -1.196774457149    -0.212077386387    12.000000000000
         C            1.436856647159     1.207542542851    -0.038103386387    12.000000000000
         C            1.436857647159    -1.195109457149    -0.038103386387    12.000000000000
         C            2.151962647159     0.006216542851     0.049825613613    12.000000000000
         C            3.640789647159     0.006217542851     0.282034613613    12.000000000000
         H           -2.446801352841     0.006212542851    -1.563858386387     1.007825032230
         H           -3.900197352841     1.276141542851     0.012207613613     1.007825032230
         H           -2.569198352841     1.259673542851     1.263180613613     1.007825032230
         H           -2.569198352841    -1.247236457149     1.263185613613     1.007825032230
         H           -3.900198352841    -1.263707457149     0.012213613613     1.007825032230
         H           -0.486181352841     2.152641542851    -0.280637386387     1.007825032230
         H           -0.486180352841    -2.140210457149    -0.280637386387     1.007825032230
         H            1.971405647159     2.154451542851     0.027215613613     1.007825032230
         H            1.971406647159    -2.142018457149     0.027215613613     1.007825032230
         H            4.107762647159    -0.879133457149    -0.159062386387     1.007825032230
         H            4.107762647159     0.891568542851    -0.159061386387     1.007825032230
         H            3.875347647159     0.006216542851     1.352281613613     1.007825032230

  Basis Set: AUG-CC-PVTZ
    Blend: AUG-CC-PVTZ
  Basis Set: (AUG-CC-PVTZ AUX)
    Blend: AUG-CC-PVTZ-JKFIT
	 Reference Energy          =    -385.7448298374506521 [Eh]
	 Singles Energy            =      -0.0000000000000000 [Eh]
	 Same-Spin Energy          =      -0.4311063782530627 [Eh]
	 Opposite-Spin Energy      =      -1.4111197977827910 [Eh]
	 Correlation Energy        =      -1.8422261760358536 [Eh]
	 Total Energy              =    -387.5870560134865173 [Eh]

	 ================> DF-SCS-MP2 Energies <==================
	-----------------------------------------------------------
	 SCS Same-Spin Scale       =       0.3333333333333333 [-]
	 SCS Opposite-Spin Scale   =       1.2000000000000000 [-]
	 SCS Same-Spin Energy      =      -0.1437021260843542 [Eh]
	 SCS Opposite-Spin Energy  =      -1.6933437573393491 [Eh]
	 SCS Correlation Energy    =      -1.8370458834237033 [Eh]
	 SCS Total Energy          =    -387.5818757208743364 [Eh]
	-----------------------------------------------------------

  Dipole Moment: [D]
     X:     0.2985      Y:     0.0188      Z:     0.0209     Total:     0.2998

*** Psi4 exiting successfully. Buy a developer a beer!
