                               Psi4 1.4a3.dev225

  ==> Input File <==

--------------------------------------------------------------------------
#psi4
#
memory 32 gb

molecule  {
0 1
  C       -2.1229620    -0.0000010    -0.5285820
  C       -3.0262580     0.7522420     0.4138790
  C       -3.0262580    -0.7522400     0.4138820
  C       -0.6463130    -0.0000010    -0.3104390
  C        0.0658190     1.2029900    -0.2211540
  C        0.0658190    -1.2029910    -0.2211540
  C        1.4498120     1.2013260    -0.0471800
  C        1.4498130    -1.2013260    -0.0471800
  C        2.1649180     0.0000000     0.0407490
  C        3.6537450     0.0000010     0.2729580
  H       -2.4195806    -0.0000039    -1.5250132
  H       -3.8872420     1.2699250     0.0031310
  H       -2.5562430     1.2534570     1.2541040
  H       -2.5562430    -1.2534530     1.2541090
  H       -3.8872430    -1.2699240     0.0031370
  H       -0.4732260     2.1464250    -0.2897140
  H       -0.4732250    -2.1464270    -0.2897140
  H        1.9843610     2.1482350     0.0181390
  H        1.9843620    -2.1482350     0.0181390
  H        4.1207180    -0.8853500    -0.1681390
  H        4.1207180     0.8853520    -0.1681380
  H        3.8883030     0.0000000     1.3432050
units angstrom
no_reorient  #important for SAPT in psi4, default
symmetry c1  #important for SAPT in psi4, default
}

set PROPERTIES_ORIGIN ["COM"]
properties('MP2/aug-cc-pvtz', properties = ['dipole'])
--------------------------------------------------------------------------

    Molecular point group: c1
  Charge       = 0
  Multiplicity = 1
  Basis Set: AUG-CC-PVTZ
    Blend: AUG-CC-PVTZ
  Basis Set: (AUG-CC-PVTZ AUX)
    Blend: AUG-CC-PVTZ-JKFIT

    Orbital Energies [Eh]
    ---------------------

    Doubly Occupied:

       1A    -11.237769     2A    -11.233708     3A    -11.229010
       4A    -11.228851     5A    -11.227355     6A    -11.227308
       7A    -11.227258     8A    -11.224325     9A    -11.223724
      10A    -11.222368    11A     -1.163806    12A     -1.130477
      13A     -1.038973    14A     -1.006622    15A     -0.936747
      16A     -0.835123    17A     -0.833790    18A     -0.808624
      19A     -0.768885    20A     -0.689556    21A     -0.653553
      22A     -0.633618    23A     -0.626410    24A     -0.600776
      25A     -0.576927    26A     -0.573058    27A     -0.538340
      28A     -0.531254    29A     -0.512182    30A     -0.489670
      31A     -0.483571    32A     -0.477381    33A     -0.424531
      34A     -0.412512    35A     -0.331400    36A     -0.312432

  @DF-RHF Final Energy:  -385.76873767800345

   => Energetics <=

    Nuclear Repulsion Energy =            482.8897727064349965
    One-Electron Energy =               -1477.9732305662651015
    Two-Electron Energy =                 609.3147201818267149
    Total Energy =                       -385.7687376780033901
  Basis Set: (AUG-CC-PVTZ AUX)
    Blend: AUG-CC-PVTZ-RI
    Molecular point group: c1

    Geometry (in Angstrom), charge = 0, multiplicity = 1:

       Center              X                  Y                   Z               Mass
    ------------   -----------------  -----------------  -----------------  -----------------
         C           -2.124338824473    -0.000001008393    -0.518392017716    12.000000000000
         C           -3.027634824473     0.752241991607     0.424068982284    12.000000000000
         C           -3.027634824473    -0.752240008393     0.424071982284    12.000000000000
         C           -0.647689824473    -0.000001008393    -0.300249017716    12.000000000000
         C            0.064442175527     1.202989991607    -0.210964017716    12.000000000000
         C            0.064442175527    -1.202991008393    -0.210964017716    12.000000000000
         C            1.448435175527     1.201325991607    -0.036990017716    12.000000000000
         C            1.448436175527    -1.201326008393    -0.036990017716    12.000000000000
         C            2.163541175527    -0.000000008393     0.050938982284    12.000000000000
         C            3.652368175527     0.000000991607     0.283147982284    12.000000000000
         H           -2.420957424473    -0.000003908393    -1.514823217716     1.007825032230
         H           -3.888618824473     1.269924991607     0.013320982284     1.007825032230
         H           -2.557619824473     1.253456991607     1.264293982284     1.007825032230
         H           -2.557619824473    -1.253453008393     1.264298982284     1.007825032230
         H           -3.888619824473    -1.269924008393     0.013326982284     1.007825032230
         H           -0.474602824473     2.146424991607    -0.279524017716     1.007825032230
         H           -0.474601824473    -2.146427008393    -0.279524017716     1.007825032230
         H            1.982984175527     2.148234991607     0.028328982284     1.007825032230
         H            1.982985175527    -2.148235008393     0.028328982284     1.007825032230
         H            4.119341175527    -0.885350008393    -0.157949017716     1.007825032230
         H            4.119341175527     0.885351991607    -0.157948017716     1.007825032230
         H            3.886926175527    -0.000000008393     1.353394982284     1.007825032230

  Basis Set: AUG-CC-PVTZ
    Blend: AUG-CC-PVTZ
  Basis Set: (AUG-CC-PVTZ AUX)
    Blend: AUG-CC-PVTZ-JKFIT
	 Reference Energy          =    -385.7687376780034469 [Eh]
	 Singles Energy            =      -0.0000000000000000 [Eh]
	 Same-Spin Energy          =      -0.4316709976278937 [Eh]
	 Opposite-Spin Energy      =      -1.4112182531665507 [Eh]
	 Correlation Energy        =      -1.8428892507944443 [Eh]
	 Total Energy              =    -387.6116269287978753 [Eh]

	 ================> DF-SCS-MP2 Energies <==================
	-----------------------------------------------------------
	 SCS Same-Spin Scale       =       0.3333333333333333 [-]
	 SCS Opposite-Spin Scale   =       1.2000000000000000 [-]
	 SCS Same-Spin Energy      =      -0.1438903325426312 [Eh]
	 SCS Opposite-Spin Energy  =      -1.6934619037998608 [Eh]
	 SCS Correlation Energy    =      -1.8373522363424921 [Eh]
	 SCS Total Energy          =    -387.6060899143459437 [Eh]
	-----------------------------------------------------------

  Dipole Moment: [D]
     X:     0.1057      Y:    -0.0000      Z:     0.0155     Total:     0.1068

*** Psi4 exiting successfully. Buy a developer a beer!
