                               Psi4 1.4a3.dev225

  ==> Input File <==

--------------------------------------------------------------------------
#psi4
#
memory 32 gb

molecule  {
0 1
  C       -2.1229620    -0.0000010    -0.5285820
  C       -3.0262580     0.7522420     0.4138790
  C       -3.0262580    -0.7522400     0.4138820
  C       -0.7671632     0.0816099    -0.3257413
  C        0.0658190     1.2029900    -0.2211540
  C        0.0658190    -1.2029910    -0.2211540
  C        1.4498120     1.2013260    -0.0471800
  C        1.4498130    -1.2013260    -0.0471800
  C        2.1649180     0.0000000     0.0407490
  C        3.6537450     0.0000010     0.2729580
  H       -2.4338460    -0.0000040    -1.5729350
  H       -3.8872420     1.2699250     0.0031310
  H       -2.5562430     1.2534570     1.2541040
  H       -2.5562430    -1.2534530     1.2541090
  H       -3.8872430    -1.2699240     0.0031370
  H       -0.4732260     2.1464250    -0.2897140
  H       -0.4732250    -2.1464270    -0.2897140
  H        1.9843610     2.1482350     0.0181390
  H        1.9843620    -2.1482350     0.0181390
  H        4.1207180    -0.8853500    -0.1681390
  H        4.1207180     0.8853520    -0.1681380
  H        3.8883030     0.0000000     1.3432050
units angstrom
no_reorient  #important for SAPT in psi4, default
symmetry c1  #important for SAPT in psi4, default
}

set PROPERTIES_ORIGIN ["COM"]
properties('MP2/aug-cc-pvtz', properties = ['dipole'])
--------------------------------------------------------------------------

    Molecular point group: c1
  Charge       = 0
  Multiplicity = 1
  Basis Set: AUG-CC-PVTZ
    Blend: AUG-CC-PVTZ
  Basis Set: (AUG-CC-PVTZ AUX)
    Blend: AUG-CC-PVTZ-JKFIT

    Orbital Energies [Eh]
    ---------------------

    Doubly Occupied:

       1A    -11.240606     2A    -11.239864     3A    -11.239217
       4A    -11.229666     5A    -11.229350     6A    -11.228892
       7A    -11.227105     8A    -11.226499     9A    -11.226292
      10A    -11.222614    11A     -1.169889    12A     -1.128311
      13A     -1.035410    14A     -0.999798    15A     -0.945463
      16A     -0.848739    17A     -0.833770    18A     -0.805003
      19A     -0.760378    20A     -0.692948    21A     -0.656346
      22A     -0.633907    23A     -0.627168    24A     -0.600161
      25A     -0.572897    26A     -0.567618    27A     -0.538690
      28A     -0.536015    29A     -0.515136    30A     -0.496868
      31A     -0.479156    32A     -0.474110    33A     -0.430290
      34A     -0.402194    35A     -0.331839    36A     -0.299935

  @DF-RHF Final Energy:  -385.73993063222480

   => Energetics <=

    Nuclear Repulsion Energy =            482.1793349363206858
    One-Electron Energy =               -1476.4542366952568955
    Two-Electron Energy =                 608.5349711267114117
    Total Energy =                       -385.7399306322248549
  Basis Set: (AUG-CC-PVTZ AUX)
    Blend: AUG-CC-PVTZ-RI
    Molecular point group: c1

    Geometry (in Angstrom), charge = 0, multiplicity = 1:

       Center              X                  Y                   Z               Mass
    ------------   -----------------  -----------------  -----------------  -----------------
         C           -2.113251412996    -0.007414906357    -0.516636263749    12.000000000000
         C           -3.016547412996     0.744828093643     0.425824736251    12.000000000000
         C           -3.016547412996    -0.759653906357     0.425827736251    12.000000000000
         C           -0.757452612996     0.074195993643    -0.313795563749    12.000000000000
         C            0.075529587004     1.195576093643    -0.209208263749    12.000000000000
         C            0.075529587004    -1.210404906357    -0.209208263749    12.000000000000
         C            1.459522587004     1.193912093643    -0.035234263749    12.000000000000
         C            1.459523587004    -1.208739906357    -0.035234263749    12.000000000000
         C            2.174628587004    -0.007413906357     0.052694736251    12.000000000000
         C            3.663455587004    -0.007412906357     0.284903736251    12.000000000000
         H           -2.424135412996    -0.007417906357    -1.560989263749     1.007825032230
         H           -3.877531412996     1.262511093643     0.015076736251     1.007825032230
         H           -2.546532412996     1.246043093643     1.266049736251     1.007825032230
         H           -2.546532412996    -1.260866906357     1.266054736251     1.007825032230
         H           -3.877532412996    -1.277337906357     0.015082736251     1.007825032230
         H           -0.463515412996     2.139011093643    -0.277768263749     1.007825032230
         H           -0.463514412996    -2.153840906357    -0.277768263749     1.007825032230
         H            1.994071587004     2.140821093643     0.030084736251     1.007825032230
         H            1.994072587004    -2.155648906357     0.030084736251     1.007825032230
         H            4.130428587004    -0.892763906357    -0.156193263749     1.007825032230
         H            4.130428587004     0.877938093643    -0.156192263749     1.007825032230
         H            3.898013587004    -0.007413906357     1.355150736251     1.007825032230

  Basis Set: AUG-CC-PVTZ
    Blend: AUG-CC-PVTZ
  Basis Set: (AUG-CC-PVTZ AUX)
    Blend: AUG-CC-PVTZ-JKFIT
	 Reference Energy          =    -385.7399306322247980 [Eh]
	 Singles Energy            =      -0.0000000000000000 [Eh]
	 Same-Spin Energy          =      -0.4337656034927235 [Eh]
	 Opposite-Spin Energy      =      -1.4154667235311356 [Eh]
	 Correlation Energy        =      -1.8492323270238591 [Eh]
	 Total Energy              =    -387.5891629592486538 [Eh]

	 ================> DF-SCS-MP2 Energies <==================
	-----------------------------------------------------------
	 SCS Same-Spin Scale       =       0.3333333333333333 [-]
	 SCS Opposite-Spin Scale   =       1.2000000000000000 [-]
	 SCS Same-Spin Energy      =      -0.1445885344975745 [Eh]
	 SCS Opposite-Spin Energy  =      -1.6985600682373627 [Eh]
	 SCS Correlation Energy    =      -1.8431486027349373 [Eh]
	 SCS Total Energy          =    -387.5830792349597118 [Eh]
	-----------------------------------------------------------

  Dipole Moment: [D]
     X:    -0.0936      Y:    -0.0167      Z:     0.0378     Total:     0.1023

*** Psi4 exiting successfully. Buy a developer a beer!
