                               Psi4 1.4a3.dev225

  ==> Input File <==

--------------------------------------------------------------------------
#psi4
#
memory 32 gb

molecule  {
0 1
  C       -2.1229620    -0.0000010    -0.5285820
  C       -3.0262580     0.7522420     0.4138790
  C       -3.0262580    -0.7522400     0.4138820
  C       -0.5613183    -0.0471353    -0.2997457
  C        0.0658190     1.2029900    -0.2211540
  C        0.0658190    -1.2029910    -0.2211540
  C        1.4498120     1.2013260    -0.0471800
  C        1.4498130    -1.2013260    -0.0471800
  C        2.1649180     0.0000000     0.0407490
  C        3.6537450     0.0000010     0.2729580
  H       -2.4338460    -0.0000040    -1.5729350
  H       -3.8872420     1.2699250     0.0031310
  H       -2.5562430     1.2534570     1.2541040
  H       -2.5562430    -1.2534530     1.2541090
  H       -3.8872430    -1.2699240     0.0031370
  H       -0.4732260     2.1464250    -0.2897140
  H       -0.4732250    -2.1464270    -0.2897140
  H        1.9843610     2.1482350     0.0181390
  H        1.9843620    -2.1482350     0.0181390
  H        4.1207180    -0.8853500    -0.1681390
  H        4.1207180     0.8853520    -0.1681380
  H        3.8883030     0.0000000     1.3432050
units angstrom
no_reorient  #important for SAPT in psi4, default
symmetry c1  #important for SAPT in psi4, default
}

set PROPERTIES_ORIGIN ["COM"]
properties('MP2/aug-cc-pvtz', properties = ['dipole'])
--------------------------------------------------------------------------

    Molecular point group: c1
  Charge       = 0
  Multiplicity = 1
  Basis Set: AUG-CC-PVTZ
    Blend: AUG-CC-PVTZ
  Basis Set: (AUG-CC-PVTZ AUX)
    Blend: AUG-CC-PVTZ-JKFIT

    Orbital Energies [Eh]
    ---------------------

    Doubly Occupied:

       1A    -11.236989     2A    -11.234557     3A    -11.230299
       4A    -11.229233     5A    -11.228225     6A    -11.228059
       7A    -11.223252     8A    -11.222344     9A    -11.221417
      10A    -11.219257    11A     -1.165691    12A     -1.129330
      13A     -1.044195    14A     -1.011322    15A     -0.932667
      16A     -0.835880    17A     -0.820782    18A     -0.810676
      19A     -0.767995    20A     -0.684558    21A     -0.650754
      22A     -0.637371    23A     -0.624719    24A     -0.596788
      25A     -0.584720    26A     -0.573432    27A     -0.538904
      28A     -0.524584    29A     -0.510606    30A     -0.495104
      31A     -0.490210    32A     -0.460638    33A     -0.419331
      34A     -0.412008    35A     -0.335701    36A     -0.317047

  @DF-RHF Final Energy:  -385.75947824232202

   => Energetics <=

    Nuclear Repulsion Energy =            483.1062819922285030
    One-Electron Energy =               -1478.4342264035583412
    Two-Electron Energy =                 609.5684661690077064
    Total Energy =                       -385.7594782423220749
  Basis Set: (AUG-CC-PVTZ AUX)
    Blend: AUG-CC-PVTZ-RI
    Molecular point group: c1

    Geometry (in Angstrom), charge = 0, multiplicity = 1:

       Center              X                  Y                   Z               Mass
    ------------   -----------------  -----------------  -----------------  -----------------
         C           -2.131951283261     0.004280882740    -0.518997820180    12.000000000000
         C           -3.035247283261     0.756523882740     0.423463179820    12.000000000000
         C           -3.035247283261    -0.747958117260     0.423466179820    12.000000000000
         C           -0.570307583261    -0.042853417260    -0.290161520180    12.000000000000
         C            0.056829716739     1.207271882740    -0.211569820180    12.000000000000
         C            0.056829716739    -1.198709117260    -0.211569820180    12.000000000000
         C            1.440822716739     1.205607882740    -0.037595820180    12.000000000000
         C            1.440823716739    -1.197044117260    -0.037595820180    12.000000000000
         C            2.155928716739     0.004281882740     0.050333179820    12.000000000000
         C            3.644755716739     0.004282882740     0.282542179820    12.000000000000
         H           -2.442835283261     0.004277882740    -1.563350820180     1.007825032230
         H           -3.896231283261     1.274206882740     0.012715179820     1.007825032230
         H           -2.565232283261     1.257738882740     1.263688179820     1.007825032230
         H           -2.565232283261    -1.249171117260     1.263693179820     1.007825032230
         H           -3.896232283261    -1.265642117260     0.012721179820     1.007825032230
         H           -0.482215283261     2.150706882740    -0.280129820180     1.007825032230
         H           -0.482214283261    -2.142145117260    -0.280129820180     1.007825032230
         H            1.975371716739     2.152516882740     0.027723179820     1.007825032230
         H            1.975372716739    -2.143953117260     0.027723179820     1.007825032230
         H            4.111728716739    -0.881068117260    -0.158554820180     1.007825032230
         H            4.111728716739     0.889633882740    -0.158553820180     1.007825032230
         H            3.879313716739     0.004281882740     1.352789179820     1.007825032230

  Basis Set: AUG-CC-PVTZ
    Blend: AUG-CC-PVTZ
  Basis Set: (AUG-CC-PVTZ AUX)
    Blend: AUG-CC-PVTZ-JKFIT
	 Reference Energy          =    -385.7594782423220181 [Eh]
	 Singles Energy            =      -0.0000000000000000 [Eh]
	 Same-Spin Energy          =      -0.4311321647434415 [Eh]
	 Opposite-Spin Energy      =      -1.4108393532456025 [Eh]
	 Correlation Energy        =      -1.8419715179890441 [Eh]
	 Total Energy              =    -387.6014497603110840 [Eh]

	 ================> DF-SCS-MP2 Energies <==================
	-----------------------------------------------------------
	 SCS Same-Spin Scale       =       0.3333333333333333 [-]
	 SCS Opposite-Spin Scale   =       1.2000000000000000 [-]
	 SCS Same-Spin Energy      =      -0.1437107215811472 [Eh]
	 SCS Opposite-Spin Energy  =      -1.6930072238947229 [Eh]
	 SCS Correlation Energy    =      -1.8367179454758700 [Eh]
	 SCS Total Energy          =    -387.5961961877978865 [Eh]
	-----------------------------------------------------------

  Dipole Moment: [D]
     X:     0.2346      Y:     0.0131      Z:     0.0237     Total:     0.2361

*** Psi4 exiting successfully. Buy a developer a beer!
