                               Psi4 1.4a3.dev225

  ==> Input File <==

--------------------------------------------------------------------------
#psi4
#
memory 32 gb

molecule  {
0 1
  C       -2.1229620    -0.0000010    -0.5285820
  C       -3.0262580     0.7522420     0.4138790
  C       -3.0262580    -0.7522400     0.4138820
  C       -0.6463130    -0.0000010    -0.3104390
  C        0.0658190     1.2029900    -0.2211540
  C        0.0658190    -1.2029910    -0.2211540
  C        1.4498120     1.2013260    -0.0471800
  C        1.4498130    -1.2013260    -0.0471800
  C        2.1577210    -0.0000001     0.0928498
  C        3.6537450     0.0000010     0.2729580
  H       -2.4338460    -0.0000040    -1.5729350
  H       -3.8872420     1.2699250     0.0031310
  H       -2.5562430     1.2534570     1.2541040
  H       -2.5562430    -1.2534530     1.2541090
  H       -3.8872430    -1.2699240     0.0031370
  H       -0.4732260     2.1464250    -0.2897140
  H       -0.4732250    -2.1464270    -0.2897140
  H        1.9843610     2.1482350     0.0181390
  H        1.9843620    -2.1482350     0.0181390
  H        4.1207180    -0.8853500    -0.1681390
  H        4.1207180     0.8853520    -0.1681380
  H        3.8883030     0.0000000     1.3432050
units angstrom
no_reorient  #important for SAPT in psi4, default
symmetry c1  #important for SAPT in psi4, default
}

set PROPERTIES_ORIGIN ["COM"]
properties('MP2/aug-cc-pvtz', properties = ['dipole'])
--------------------------------------------------------------------------

    Molecular point group: c1
  Charge       = 0
  Multiplicity = 1
  Basis Set: AUG-CC-PVTZ
    Blend: AUG-CC-PVTZ
  Basis Set: (AUG-CC-PVTZ AUX)
    Blend: AUG-CC-PVTZ-JKFIT

    Orbital Energies [Eh]
    ---------------------

    Doubly Occupied:

       1A    -11.238233     2A    -11.233945     3A    -11.232902
       4A    -11.229103     5A    -11.228942     6A    -11.227484
       7A    -11.227416     8A    -11.224598     9A    -11.223945
      10A    -11.222512    11A     -1.163287    12A     -1.130082
      13A     -1.039112    14A     -1.006662    15A     -0.936678
      16A     -0.833834    17A     -0.831626    18A     -0.808661
      19A     -0.765759    20A     -0.686899    21A     -0.652429
      22A     -0.633487    23A     -0.626577    24A     -0.599172
      25A     -0.576999    26A     -0.573487    27A     -0.538578
      28A     -0.528905    29A     -0.512260    30A     -0.487549
      31A     -0.483808    32A     -0.477525    33A     -0.424158
      34A     -0.412726    35A     -0.331315    36A     -0.311963

  @DF-RHF Final Energy:  -385.76874919058213

   => Energetics <=

    Nuclear Repulsion Energy =            482.6283509239319187
    One-Electron Energy =               -1477.4689598037057294
    Two-Electron Energy =                 609.0718596891915695
    Total Energy =                       -385.7687491905821844
  Basis Set: (AUG-CC-PVTZ AUX)
    Blend: AUG-CC-PVTZ-RI
    Molecular point group: c1

    Geometry (in Angstrom), charge = 0, multiplicity = 1:

       Center              X                  Y                   Z               Mass
    ------------   -----------------  -----------------  -----------------  -----------------
         C           -2.123576177395    -0.000000998545    -0.522759462455    12.000000000000
         C           -3.026872177395     0.752242001455     0.419701537545    12.000000000000
         C           -3.026872177395    -0.752239998545     0.419704537545    12.000000000000
         C           -0.646927177395    -0.000000998545    -0.304616462455    12.000000000000
         C            0.065204822605     1.202990001455    -0.215331462455    12.000000000000
         C            0.065204822605    -1.202990998545    -0.215331462455    12.000000000000
         C            1.449197822605     1.201326001455    -0.041357462455    12.000000000000
         C            1.449198822605    -1.201325998545    -0.041357462455    12.000000000000
         C            2.157106822605    -0.000000098545     0.098672337545    12.000000000000
         C            3.653130822605     0.000001001455     0.278780537545    12.000000000000
         H           -2.434460177395    -0.000003998545    -1.567112462455     1.007825032230
         H           -3.887856177395     1.269925001455     0.008953537545     1.007825032230
         H           -2.556857177395     1.253457001455     1.259926537545     1.007825032230
         H           -2.556857177395    -1.253452998545     1.259931537545     1.007825032230
         H           -3.887857177395    -1.269923998545     0.008959537545     1.007825032230
         H           -0.473840177395     2.146425001455    -0.283891462455     1.007825032230
         H           -0.473839177395    -2.146426998545    -0.283891462455     1.007825032230
         H            1.983746822605     2.148235001455     0.023961537545     1.007825032230
         H            1.983747822605    -2.148234998545     0.023961537545     1.007825032230
         H            4.120103822605    -0.885349998545    -0.162316462455     1.007825032230
         H            4.120103822605     0.885352001455    -0.162315462455     1.007825032230
         H            3.887688822605     0.000000001455     1.349027537545     1.007825032230

  Basis Set: AUG-CC-PVTZ
    Blend: AUG-CC-PVTZ
  Basis Set: (AUG-CC-PVTZ AUX)
    Blend: AUG-CC-PVTZ-JKFIT
	 Reference Energy          =    -385.7687491905821275 [Eh]
	 Singles Energy            =      -0.0000000000000000 [Eh]
	 Same-Spin Energy          =      -0.4317404630057219 [Eh]
	 Opposite-Spin Energy      =      -1.4115668208166483 [Eh]
	 Correlation Energy        =      -1.8433072838223703 [Eh]
	 Total Energy              =    -387.6120564744044827 [Eh]

	 ================> DF-SCS-MP2 Energies <==================
	-----------------------------------------------------------
	 SCS Same-Spin Scale       =       0.3333333333333333 [-]
	 SCS Opposite-Spin Scale   =       1.2000000000000000 [-]
	 SCS Same-Spin Energy      =      -0.1439134876685740 [Eh]
	 SCS Opposite-Spin Energy  =      -1.6938801849799778 [Eh]
	 SCS Correlation Energy    =      -1.8377936726485518 [Eh]
	 SCS Total Energy          =    -387.6065428632306862 [Eh]
	-----------------------------------------------------------

  Dipole Moment: [D]
     X:     0.1314      Y:    -0.0000      Z:     0.0065     Total:     0.1316

*** Psi4 exiting successfully. Buy a developer a beer!
