                               Psi4 1.4a3.dev225

  ==> Input File <==

--------------------------------------------------------------------------
#psi4
#
memory 32 gb

molecule  {
0 1
  C       -2.1229620    -0.0000010    -0.5285820
  C       -3.0262580     0.7522420     0.4138790
  C       -2.9750228    -0.7485750     0.5054730
  C       -0.6463130    -0.0000010    -0.3104390
  C        0.0658190     1.2029900    -0.2211540
  C        0.0658190    -1.2029910    -0.2211540
  C        1.4498120     1.2013260    -0.0471800
  C        1.4498130    -1.2013260    -0.0471800
  C        2.1649180     0.0000000     0.0407490
  C        3.6537450     0.0000010     0.2729580
  H       -2.4338460    -0.0000040    -1.5729350
  H       -3.8872420     1.2699250     0.0031310
  H       -2.5562430     1.2534570     1.2541040
  H       -2.5562430    -1.2534530     1.2541090
  H       -3.8872430    -1.2699240     0.0031370
  H       -0.4732260     2.1464250    -0.2897140
  H       -0.4732250    -2.1464270    -0.2897140
  H        1.9843610     2.1482350     0.0181390
  H        1.9843620    -2.1482350     0.0181390
  H        4.1207180    -0.8853500    -0.1681390
  H        4.1207180     0.8853520    -0.1681380
  H        3.8883030     0.0000000     1.3432050
units angstrom
no_reorient  #important for SAPT in psi4, default
symmetry c1  #important for SAPT in psi4, default
}

set PROPERTIES_ORIGIN ["COM"]
properties('MP2/aug-cc-pvtz', properties = ['dipole'])
--------------------------------------------------------------------------

    Molecular point group: c1
  Charge       = 0
  Multiplicity = 1
  Basis Set: AUG-CC-PVTZ
    Blend: AUG-CC-PVTZ
  Basis Set: (AUG-CC-PVTZ AUX)
    Blend: AUG-CC-PVTZ-JKFIT

    Orbital Energies [Eh]
    ---------------------

    Doubly Occupied:

       1A    -11.237712     2A    -11.234564     3A    -11.233075
       4A    -11.228881     5A    -11.228512     6A    -11.227342
       7A    -11.227077     8A    -11.226834     9A    -11.225324
      10A    -11.222359    11A     -1.162031    12A     -1.127938
      13A     -1.038405    14A     -1.006538    15A     -0.936410
      16A     -0.837795    17A     -0.832185    18A     -0.811359
      19A     -0.766938    20A     -0.688260    21A     -0.645338
      22A     -0.633232    23A     -0.627843    24A     -0.605603
      25A     -0.576815    26A     -0.573016    27A     -0.538184
      28A     -0.529716    29A     -0.514215    30A     -0.487972
      31A     -0.483162    32A     -0.476252    33A     -0.426423
      34A     -0.404181    35A     -0.331358    36A     -0.312090

  @DF-RHF Final Energy:  -385.75589315797424

   => Energetics <=

    Nuclear Repulsion Energy =            482.7180251021244430
    One-Electron Energy =               -1477.6179563059829434
    Two-Electron Energy =                 609.1440380458842583
    Total Energy =                       -385.7558931579742421
  Basis Set: (AUG-CC-PVTZ AUX)
    Blend: AUG-CC-PVTZ-RI
    Molecular point group: c1

    Geometry (in Angstrom), charge = 0, multiplicity = 1:

       Center              X                  Y                   Z               Mass
    ------------   -----------------  -----------------  -----------------  -----------------
         C           -2.128884419471    -0.000333952602    -0.526346928634    12.000000000000
         C           -3.032180419471     0.751909047398     0.416114071366    12.000000000000
         C           -2.980945219471    -0.748907952602     0.507708071366    12.000000000000
         C           -0.652235419471    -0.000333952602    -0.308203928634    12.000000000000
         C            0.059896580529     1.202657047398    -0.218918928634    12.000000000000
         C            0.059896580529    -1.203323952602    -0.218918928634    12.000000000000
         C            1.443889580529     1.200993047398    -0.044944928634    12.000000000000
         C            1.443890580529    -1.201658952602    -0.044944928634    12.000000000000
         C            2.158995580529    -0.000332952602     0.042984071366    12.000000000000
         C            3.647822580529    -0.000331952602     0.275193071366    12.000000000000
         H           -2.439768419471    -0.000336952602    -1.570699928634     1.007825032230
         H           -3.893164419471     1.269592047398     0.005366071366     1.007825032230
         H           -2.562165419471     1.253124047398     1.256339071366     1.007825032230
         H           -2.562165419471    -1.253785952602     1.256344071366     1.007825032230
         H           -3.893165419471    -1.270256952602     0.005372071366     1.007825032230
         H           -0.479148419471     2.146092047398    -0.287478928634     1.007825032230
         H           -0.479147419471    -2.146759952602    -0.287478928634     1.007825032230
         H            1.978438580529     2.147902047398     0.020374071366     1.007825032230
         H            1.978439580529    -2.148567952602     0.020374071366     1.007825032230
         H            4.114795580529    -0.885682952602    -0.165903928634     1.007825032230
         H            4.114795580529     0.885019047398    -0.165902928634     1.007825032230
         H            3.882380580529    -0.000332952602     1.345440071366     1.007825032230

  Basis Set: AUG-CC-PVTZ
    Blend: AUG-CC-PVTZ
  Basis Set: (AUG-CC-PVTZ AUX)
    Blend: AUG-CC-PVTZ-JKFIT
	 Reference Energy          =    -385.7558931579742421 [Eh]
	 Singles Energy            =      -0.0000000000000000 [Eh]
	 Same-Spin Energy          =      -0.4318432445517077 [Eh]
	 Opposite-Spin Energy      =      -1.4123267334209482 [Eh]
	 Correlation Energy        =      -1.8441699779726559 [Eh]
	 Total Energy              =    -387.6000631359469253 [Eh]

	 ================> DF-SCS-MP2 Energies <==================
	-----------------------------------------------------------
	 SCS Same-Spin Scale       =       0.3333333333333333 [-]
	 SCS Opposite-Spin Scale   =       1.2000000000000000 [-]
	 SCS Same-Spin Energy      =      -0.1439477481839025 [Eh]
	 SCS Opposite-Spin Energy  =      -1.6947920801051377 [Eh]
	 SCS Correlation Energy    =      -1.8387398282890404 [Eh]
	 SCS Total Energy          =    -387.5946329862632638 [Eh]
	-----------------------------------------------------------

  Dipole Moment: [D]
     X:     0.1399      Y:     0.0595      Z:     0.0401     Total:     0.1572

*** Psi4 exiting successfully. Buy a developer a beer!
