                               Psi4 1.4a3.dev225

  ==> Input File <==

--------------------------------------------------------------------------
#psi4
#
memory 32 gb

molecule  {
0 1
  C       -2.1229620    -0.0000010    -0.5285820
  C       -3.0262580     0.7522420     0.4138790
  C       -3.0262580    -0.7522400     0.4138820
  C       -0.6463130    -0.0000010    -0.3104390
  C        0.0658190     1.2029900    -0.2211540
  C        0.0658190    -1.2029910    -0.2211540
  C        1.4498120     1.2013260    -0.0471800
  C        1.4489071    -1.1526462    -0.0472526
  C        2.1649180     0.0000000     0.0407490
  C        3.6537450     0.0000010     0.2729580
  H       -2.4338460    -0.0000040    -1.5729350
  H       -3.8872420     1.2699250     0.0031310
  H       -2.5562430     1.2534570     1.2541040
  H       -2.5562430    -1.2534530     1.2541090
  H       -3.8872430    -1.2699240     0.0031370
  H       -0.4732260     2.1464250    -0.2897140
  H       -0.4732250    -2.1464270    -0.2897140
  H        1.9843610     2.1482350     0.0181390
  H        1.9843620    -2.1482350     0.0181390
  H        4.1207180    -0.8853500    -0.1681390
  H        4.1207180     0.8853520    -0.1681380
  H        3.8883030     0.0000000     1.3432050
units angstrom
no_reorient  #important for SAPT in psi4, default
symmetry c1  #important for SAPT in psi4, default
}

set PROPERTIES_ORIGIN ["COM"]
properties('MP2/aug-cc-pvtz', properties = ['dipole'])
--------------------------------------------------------------------------

    Molecular point group: c1
  Charge       = 0
  Multiplicity = 1
  Basis Set: AUG-CC-PVTZ
    Blend: AUG-CC-PVTZ
  Basis Set: (AUG-CC-PVTZ AUX)
    Blend: AUG-CC-PVTZ-JKFIT

    Orbital Energies [Eh]
    ---------------------

    Doubly Occupied:

       1A    -11.234372     2A    -11.233040     3A    -11.232962
       4A    -11.228803     5A    -11.228602     6A    -11.227546
       7A    -11.226541     8A    -11.224848     9A    -11.224187
      10A    -11.222723    11A     -1.165579    12A     -1.133201
      13A     -1.041383    14A     -1.005573    15A     -0.937809
      16A     -0.836317    17A     -0.832361    18A     -0.809135
      19A     -0.764216    20A     -0.686545    21A     -0.653244
      22A     -0.636248    23A     -0.624222    24A     -0.597681
      25A     -0.574288    26A     -0.572850    27A     -0.536564
      28A     -0.530946    29A     -0.512480    30A     -0.492411
      31A     -0.485119    32A     -0.472947    33A     -0.424905
      34A     -0.412408    35A     -0.331226    36A     -0.315631

  @DF-RHF Final Energy:  -385.76678460064676

   => Energetics <=

    Nuclear Repulsion Energy =            483.4099741065124363
    One-Electron Energy =               -1479.0156900352301363
    Two-Electron Energy =                 609.8389313280708848
    Total Energy =                       -385.7667846006468153
  Basis Set: (AUG-CC-PVTZ AUX)
    Blend: AUG-CC-PVTZ-RI
    Molecular point group: c1

    Geometry (in Angstrom), charge = 0, multiplicity = 1:

       Center              X                  Y                   Z               Mass
    ------------   -----------------  -----------------  -----------------  -----------------
         C           -2.124147689022    -0.004423298124    -0.518019797731    12.000000000000
         C           -3.027443689022     0.747819701876     0.424441202269    12.000000000000
         C           -3.027443689022    -0.756662298124     0.424444202269    12.000000000000
         C           -0.647498689022    -0.004423298124    -0.299876797731    12.000000000000
         C            0.064633310978     1.198567701876    -0.210591797731    12.000000000000
         C            0.064633310978    -1.207413298124    -0.210591797731    12.000000000000
         C            1.448626310978     1.196903701876    -0.036617797731    12.000000000000
         C            1.447721410978    -1.157068498124    -0.036690397731    12.000000000000
         C            2.163732310978    -0.004422298124     0.051311202269    12.000000000000
         C            3.652559310978    -0.004421298124     0.283520202269    12.000000000000
         H           -2.435031689022    -0.004426298124    -1.562372797731     1.007825032230
         H           -3.888427689022     1.265502701876     0.013693202269     1.007825032230
         H           -2.557428689022     1.249034701876     1.264666202269     1.007825032230
         H           -2.557428689022    -1.257875298124     1.264671202269     1.007825032230
         H           -3.888428689022    -1.274346298124     0.013699202269     1.007825032230
         H           -0.474411689022     2.142002701876    -0.279151797731     1.007825032230
         H           -0.474410689022    -2.150849298124    -0.279151797731     1.007825032230
         H            1.983175310978     2.143812701876     0.028701202269     1.007825032230
         H            1.983176310978    -2.152657298124     0.028701202269     1.007825032230
         H            4.119532310978    -0.889772298124    -0.157576797731     1.007825032230
         H            4.119532310978     0.880929701876    -0.157575797731     1.007825032230
         H            3.887117310978    -0.004422298124     1.353767202269     1.007825032230

  Basis Set: AUG-CC-PVTZ
    Blend: AUG-CC-PVTZ
  Basis Set: (AUG-CC-PVTZ AUX)
    Blend: AUG-CC-PVTZ-JKFIT
	 Reference Energy          =    -385.7667846006467585 [Eh]
	 Singles Energy            =      -0.0000000000000000 [Eh]
	 Same-Spin Energy          =      -0.4317933374455827 [Eh]
	 Opposite-Spin Energy      =      -1.4114734972441174 [Eh]
	 Correlation Energy        =      -1.8432668346897001 [Eh]
	 Total Energy              =    -387.6100514353364588 [Eh]

	 ================> DF-SCS-MP2 Energies <==================
	-----------------------------------------------------------
	 SCS Same-Spin Scale       =       0.3333333333333333 [-]
	 SCS Opposite-Spin Scale   =       1.2000000000000000 [-]
	 SCS Same-Spin Energy      =      -0.1439311124818609 [Eh]
	 SCS Opposite-Spin Energy  =      -1.6937681966929408 [Eh]
	 SCS Correlation Energy    =      -1.8376993091748017 [Eh]
	 SCS Total Energy          =    -387.6044839098215675 [Eh]
	-----------------------------------------------------------

  Dipole Moment: [D]
     X:     0.0926      Y:     0.0212      Z:     0.0232     Total:     0.0978

*** Psi4 exiting successfully. Buy a developer a beer!
