                               Psi4 1.4a3.dev225

  ==> Input File <==

--------------------------------------------------------------------------
#psi4
#
memory 32 gb

molecule  {
0 1
  C       -2.1229620    -0.0000010    -0.5285820
  C       -3.0262580     0.7522420     0.4138790
  C       -3.0262580    -0.7522400     0.4138820
  C       -0.6463130    -0.0000010    -0.3104390
  C        0.0658190     1.2029900    -0.2211540
  C        0.0658190    -1.2029910    -0.2211540
  C        1.4498120     1.2013260    -0.0471800
  C        1.4498130    -1.2013260    -0.0471800
  C        2.1649180     0.0000000     0.0407490
  C        3.6537450     0.0000010     0.2729580
  H       -2.3767844    -0.0000034    -1.3812478
  H       -3.8872420     1.2699250     0.0031310
  H       -2.5562430     1.2534570     1.2541040
  H       -2.5562430    -1.2534530     1.2541090
  H       -3.8872430    -1.2699240     0.0031370
  H       -0.4732260     2.1464250    -0.2897140
  H       -0.4732250    -2.1464270    -0.2897140
  H        1.9843610     2.1482350     0.0181390
  H        1.9843620    -2.1482350     0.0181390
  H        4.1207180    -0.8853500    -0.1681390
  H        4.1207180     0.8853520    -0.1681380
  H        3.8883030     0.0000000     1.3432050
units angstrom
no_reorient  #important for SAPT in psi4, default
symmetry c1  #important for SAPT in psi4, default
}

set PROPERTIES_ORIGIN ["COM"]
properties('MP2/aug-cc-pvtz', properties = ['dipole'])
--------------------------------------------------------------------------

    Molecular point group: c1
  Charge       = 0
  Multiplicity = 1
  Basis Set: AUG-CC-PVTZ
    Blend: AUG-CC-PVTZ
  Basis Set: (AUG-CC-PVTZ AUX)
    Blend: AUG-CC-PVTZ-JKFIT

    Orbital Energies [Eh]
    ---------------------

    Doubly Occupied:

       1A    -11.237543     2A    -11.233004     3A    -11.228762
       4A    -11.228589     5A    -11.227181     6A    -11.227108
       7A    -11.223993     8A    -11.223296     9A    -11.222235
      10A    -11.209356    11A     -1.166382    12A     -1.132205
      13A     -1.038684    14A     -1.006430    15A     -0.937685
      16A     -0.852275    17A     -0.833516    18A     -0.808389
      19A     -0.779137    20A     -0.697689    21A     -0.656061
      22A     -0.633396    23A     -0.626671    24A     -0.604678
      25A     -0.576748    26A     -0.572924    27A     -0.538499
      28A     -0.538176    29A     -0.512033    30A     -0.489498
      31A     -0.483367    32A     -0.480010    33A     -0.425295
      34A     -0.412224    35A     -0.331236    36A     -0.313012

  @DF-RHF Final Energy:  -385.73561457806358

   => Energetics <=

    Nuclear Repulsion Energy =            483.8059718464646721
    One-Electron Energy =               -1479.6686080543711341
    Two-Electron Energy =                 610.1270216298428295
    Total Energy =                       -385.7356145780636325
  Basis Set: (AUG-CC-PVTZ AUX)
    Blend: AUG-CC-PVTZ-RI
    Molecular point group: c1

    Geometry (in Angstrom), charge = 0, multiplicity = 1:

       Center              X                  Y                   Z               Mass
    ------------   -----------------  -----------------  -----------------  -----------------
         C           -2.124665342818    -0.000001012207    -0.519488891746    12.000000000000
         C           -3.027961342818     0.752241987793     0.422972108254    12.000000000000
         C           -3.027961342818    -0.752240012207     0.422975108254    12.000000000000
         C           -0.648016342818    -0.000001012207    -0.301345891746    12.000000000000
         C            0.064115657182     1.202989987793    -0.212060891746    12.000000000000
         C            0.064115657182    -1.202991012207    -0.212060891746    12.000000000000
         C            1.448108657182     1.201325987793    -0.038086891746    12.000000000000
         C            1.448109657182    -1.201326012207    -0.038086891746    12.000000000000
         C            2.163214657182    -0.000000012207     0.049842108254    12.000000000000
         C            3.652041657182     0.000000987793     0.282051108254    12.000000000000
         H           -2.378487742818    -0.000003412207    -1.372154691746     1.007825032230
         H           -3.888945342818     1.269924987793     0.012224108254     1.007825032230
         H           -2.557946342818     1.253456987793     1.263197108254     1.007825032230
         H           -2.557946342818    -1.253453012207     1.263202108254     1.007825032230
         H           -3.888946342818    -1.269924012207     0.012230108254     1.007825032230
         H           -0.474929342818     2.146424987793    -0.280620891746     1.007825032230
         H           -0.474928342818    -2.146427012207    -0.280620891746     1.007825032230
         H            1.982657657182     2.148234987793     0.027232108254     1.007825032230
         H            1.982658657182    -2.148235012207     0.027232108254     1.007825032230
         H            4.119014657182    -0.885350012207    -0.159045891746     1.007825032230
         H            4.119014657182     0.885351987793    -0.159044891746     1.007825032230
         H            3.886599657182    -0.000000012207     1.352298108254     1.007825032230

  Basis Set: AUG-CC-PVTZ
    Blend: AUG-CC-PVTZ
  Basis Set: (AUG-CC-PVTZ AUX)
    Blend: AUG-CC-PVTZ-JKFIT
	 Reference Energy          =    -385.7356145780635757 [Eh]
	 Singles Energy            =      -0.0000000000000000 [Eh]
	 Same-Spin Energy          =      -0.4316345353644119 [Eh]
	 Opposite-Spin Energy      =      -1.4109794563271663 [Eh]
	 Correlation Energy        =      -1.8426139916915782 [Eh]
	 Total Energy              =    -387.5782285697551401 [Eh]

	 ================> DF-SCS-MP2 Energies <==================
	-----------------------------------------------------------
	 SCS Same-Spin Scale       =       0.3333333333333333 [-]
	 SCS Opposite-Spin Scale   =       1.2000000000000000 [-]
	 SCS Same-Spin Energy      =      -0.1438781784548039 [Eh]
	 SCS Opposite-Spin Energy  =      -1.6931753475925995 [Eh]
	 SCS Correlation Energy    =      -1.8370535260474035 [Eh]
	 SCS Total Energy          =    -387.5726681041109600 [Eh]
	-----------------------------------------------------------

  Dipole Moment: [D]
     X:     0.0896      Y:    -0.0000      Z:     0.0037     Total:     0.0897

*** Psi4 exiting successfully. Buy a developer a beer!
