                               Psi4 1.4a3.dev225

  ==> Input File <==

--------------------------------------------------------------------------
#psi4
#
memory 32 gb

molecule  {
0 1
  C       -2.1229620    -0.0000010    -0.5285820
  C       -3.0262580     0.7522420     0.4138790
  C       -3.0262580    -0.7522400     0.4138820
  C       -0.6463130    -0.0000010    -0.3104390
  C        0.0658190     1.2029900    -0.2211540
  C        0.0658190    -1.2029910    -0.2211540
  C        1.4498120     1.2013260    -0.0471800
  C        1.4498130    -1.2013260    -0.0471800
  C        2.1847428     0.0000001    -0.0625407
  C        3.6537450     0.0000010     0.2729580
  H       -2.4338460    -0.0000040    -1.5729350
  H       -3.8872420     1.2699250     0.0031310
  H       -2.5562430     1.2534570     1.2541040
  H       -2.5562430    -1.2534530     1.2541090
  H       -3.8872430    -1.2699240     0.0031370
  H       -0.4732260     2.1464250    -0.2897140
  H       -0.4732250    -2.1464270    -0.2897140
  H        1.9843610     2.1482350     0.0181390
  H        1.9843620    -2.1482350     0.0181390
  H        4.1207180    -0.8853500    -0.1681390
  H        4.1207180     0.8853520    -0.1681380
  H        3.8883030     0.0000000     1.3432050
units angstrom
no_reorient  #important for SAPT in psi4, default
symmetry c1  #important for SAPT in psi4, default
}

set PROPERTIES_ORIGIN ["COM"]
properties('MP2/aug-cc-pvtz', properties = ['dipole'])
--------------------------------------------------------------------------

    Molecular point group: c1
  Charge       = 0
  Multiplicity = 1
  Basis Set: AUG-CC-PVTZ
    Blend: AUG-CC-PVTZ
  Basis Set: (AUG-CC-PVTZ AUX)
    Blend: AUG-CC-PVTZ-JKFIT

    Orbital Energies [Eh]
    ---------------------

    Doubly Occupied:

       1A    -11.238846     2A    -11.235337     3A    -11.233533
       4A    -11.229778     5A    -11.229663     6A    -11.228444
       7A    -11.228359     8A    -11.225042     9A    -11.224389
      10A    -11.222210    11A     -1.163307    12A     -1.129590
      13A     -1.038955    14A     -1.006496    15A     -0.936162
      16A     -0.833667    17A     -0.831722    18A     -0.808465
      19A     -0.765895    20A     -0.687238    21A     -0.652773
      22A     -0.633262    23A     -0.626660    24A     -0.599628
      25A     -0.576518    26A     -0.572262    27A     -0.538018
      28A     -0.527103    29A     -0.512650    30A     -0.493310
      31A     -0.481856    32A     -0.472855    33A     -0.424346
      34A     -0.413217    35A     -0.331107    36A     -0.312527

  @DF-RHF Final Energy:  -385.76470273654655

   => Energetics <=

    Nuclear Repulsion Energy =            482.3371810487230960
    One-Electron Energy =               -1476.8733857196443751
    Two-Electron Energy =                 608.7715019343746690
    Total Energy =                       -385.7647027365466101
  Basis Set: (AUG-CC-PVTZ AUX)
    Blend: AUG-CC-PVTZ-RI
    Molecular point group: c1

    Geometry (in Angstrom), charge = 0, multiplicity = 1:

       Center              X                  Y                   Z               Mass
    ------------   -----------------  -----------------  -----------------  -----------------
         C           -2.126030958418    -0.000001016714    -0.508643095276    12.000000000000
         C           -3.029326958418     0.752241983286     0.433817904724    12.000000000000
         C           -3.029326958418    -0.752240016714     0.433820904724    12.000000000000
         C           -0.649381958418    -0.000001016714    -0.290500095276    12.000000000000
         C            0.062750041582     1.202989983286    -0.201215095276    12.000000000000
         C            0.062750041582    -1.202991016714    -0.201215095276    12.000000000000
         C            1.446743041582     1.201325983286    -0.027241095276    12.000000000000
         C            1.446744041582    -1.201326016714    -0.027241095276    12.000000000000
         C            2.181673841582     0.000000083286    -0.042601795276    12.000000000000
         C            3.650676041582     0.000000983286     0.292896904724    12.000000000000
         H           -2.436914958418    -0.000004016714    -1.552996095276     1.007825032230
         H           -3.890310958418     1.269924983286     0.023069904724     1.007825032230
         H           -2.559311958418     1.253456983286     1.274042904724     1.007825032230
         H           -2.559311958418    -1.253453016714     1.274047904724     1.007825032230
         H           -3.890311958418    -1.269924016714     0.023075904724     1.007825032230
         H           -0.476294958418     2.146424983286    -0.269775095276     1.007825032230
         H           -0.476293958418    -2.146427016714    -0.269775095276     1.007825032230
         H            1.981292041582     2.148234983286     0.038077904724     1.007825032230
         H            1.981293041582    -2.148235016714     0.038077904724     1.007825032230
         H            4.117649041582    -0.885350016714    -0.148200095276     1.007825032230
         H            4.117649041582     0.885351983286    -0.148199095276     1.007825032230
         H            3.885234041582    -0.000000016714     1.363143904724     1.007825032230

  Basis Set: AUG-CC-PVTZ
    Blend: AUG-CC-PVTZ
  Basis Set: (AUG-CC-PVTZ AUX)
    Blend: AUG-CC-PVTZ-JKFIT
	 Reference Energy          =    -385.7647027365465533 [Eh]
	 Singles Energy            =      -0.0000000000000000 [Eh]
	 Same-Spin Energy          =      -0.4319586807530826 [Eh]
	 Opposite-Spin Energy      =      -1.4121886389642908 [Eh]
	 Correlation Energy        =      -1.8441473197173734 [Eh]
	 Total Energy              =    -387.6088500562639183 [Eh]

	 ================> DF-SCS-MP2 Energies <==================
	-----------------------------------------------------------
	 SCS Same-Spin Scale       =       0.3333333333333333 [-]
	 SCS Opposite-Spin Scale   =       1.2000000000000000 [-]
	 SCS Same-Spin Energy      =      -0.1439862269176942 [Eh]
	 SCS Opposite-Spin Energy  =      -1.6946263667571488 [Eh]
	 SCS Correlation Energy    =      -1.8386125936748430 [Eh]
	 SCS Total Energy          =    -387.6033153302213918 [Eh]
	-----------------------------------------------------------

  Dipole Moment: [D]
     X:     0.0450      Y:    -0.0000      Z:     0.0729     Total:     0.0856

*** Psi4 exiting successfully. Buy a developer a beer!
