                               Psi4 1.4a3.dev225

  ==> Input File <==

--------------------------------------------------------------------------
#psi4
#
memory 32 gb

molecule  {
0 1
  C       -2.1229620    -0.0000010    -0.5285820
  C       -3.0262580     0.7522420     0.4138790
  C       -3.0262580    -0.7522400     0.4138820
  C       -0.6463130    -0.0000010    -0.3104390
  C        0.0658190     1.2029900    -0.2211540
  C        0.0658190    -1.2029910    -0.2211540
  C        1.4498120     1.2013260    -0.0471800
  C        1.4498130    -1.2013260    -0.0471800
  C        2.1523466    -0.0000001     0.1451700
  C        3.6537450     0.0000010     0.2729580
  H       -2.4338460    -0.0000040    -1.5729350
  H       -3.8872420     1.2699250     0.0031310
  H       -2.5562430     1.2534570     1.2541040
  H       -2.5562430    -1.2534530     1.2541090
  H       -3.8872430    -1.2699240     0.0031370
  H       -0.4732260     2.1464250    -0.2897140
  H       -0.4732250    -2.1464270    -0.2897140
  H        1.9843610     2.1482350     0.0181390
  H        1.9843620    -2.1482350     0.0181390
  H        4.1207180    -0.8853500    -0.1681390
  H        4.1207180     0.8853520    -0.1681380
  H        3.8883030     0.0000000     1.3432050
units angstrom
no_reorient  #important for SAPT in psi4, default
symmetry c1  #important for SAPT in psi4, default
}

set PROPERTIES_ORIGIN ["COM"]
properties('MP2/aug-cc-pvtz', properties = ['dipole'])
--------------------------------------------------------------------------

    Molecular point group: c1
  Charge       = 0
  Multiplicity = 1
  Basis Set: AUG-CC-PVTZ
    Blend: AUG-CC-PVTZ
  Basis Set: (AUG-CC-PVTZ AUX)
    Blend: AUG-CC-PVTZ-JKFIT

    Orbital Energies [Eh]
    ---------------------

    Doubly Occupied:

       1A    -11.239070     2A    -11.234049     3A    -11.232942
       4A    -11.229170     5A    -11.229027     6A    -11.227906
       7A    -11.227831     8A    -11.224625     9A    -11.223972
      10A    -11.222526    11A     -1.163122    12A     -1.129775
      13A     -1.039033    14A     -1.006454    15A     -0.936553
      16A     -0.833536    17A     -0.831445    18A     -0.808363
      19A     -0.765728    20A     -0.686819    21A     -0.652425
      22A     -0.632891    23A     -0.627002    24A     -0.598928
      25A     -0.576758    26A     -0.573750    27A     -0.538660
      28A     -0.529203    29A     -0.512287    30A     -0.485087
      31A     -0.483396    32A     -0.478637    33A     -0.424040
      34A     -0.412745    35A     -0.330885    36A     -0.311547

  @DF-RHF Final Energy:  -385.76581789280840

   => Energetics <=

    Nuclear Repulsion Energy =            482.5477824227628503
    One-Electron Energy =               -1477.3068288433664748
    Two-Electron Energy =                 608.9932285277952815
    Total Energy =                       -385.7658178928083998
  Basis Set: (AUG-CC-PVTZ AUX)
    Blend: AUG-CC-PVTZ-RI
    Molecular point group: c1

    Geometry (in Angstrom), charge = 0, multiplicity = 1:

       Center              X                  Y                   Z               Mass
    ------------   -----------------  -----------------  -----------------  -----------------
         C           -2.123087942890    -0.000000998545    -0.527512463148    12.000000000000
         C           -3.026383942890     0.752242001455     0.414948536852    12.000000000000
         C           -3.026383942890    -0.752239998545     0.414951536852    12.000000000000
         C           -0.646438942890    -0.000000998545    -0.309369463148    12.000000000000
         C            0.065693057110     1.202990001455    -0.220084463148    12.000000000000
         C            0.065693057110    -1.202990998545    -0.220084463148    12.000000000000
         C            1.449686057110     1.201326001455    -0.046110463148    12.000000000000
         C            1.449687057110    -1.201325998545    -0.046110463148    12.000000000000
         C            2.152220657110    -0.000000098545     0.146239536852    12.000000000000
         C            3.653619057110     0.000001001455     0.274027536852    12.000000000000
         H           -2.433971942890    -0.000003998545    -1.571865463148     1.007825032230
         H           -3.887367942890     1.269925001455     0.004200536852     1.007825032230
         H           -2.556368942890     1.253457001455     1.255173536852     1.007825032230
         H           -2.556368942890    -1.253452998545     1.255178536852     1.007825032230
         H           -3.887368942890    -1.269923998545     0.004206536852     1.007825032230
         H           -0.473351942890     2.146425001455    -0.288644463148     1.007825032230
         H           -0.473350942890    -2.146426998545    -0.288644463148     1.007825032230
         H            1.984235057110     2.148235001455     0.019208536852     1.007825032230
         H            1.984236057110    -2.148234998545     0.019208536852     1.007825032230
         H            4.120592057110    -0.885349998545    -0.167069463148     1.007825032230
         H            4.120592057110     0.885352001455    -0.167068463148     1.007825032230
         H            3.888177057110     0.000000001455     1.344274536852     1.007825032230

  Basis Set: AUG-CC-PVTZ
    Blend: AUG-CC-PVTZ
  Basis Set: (AUG-CC-PVTZ AUX)
    Blend: AUG-CC-PVTZ-JKFIT
	 Reference Energy          =    -385.7658178928083998 [Eh]
	 Singles Energy            =      -0.0000000000000000 [Eh]
	 Same-Spin Energy          =      -0.4318752420094381 [Eh]
	 Opposite-Spin Energy      =      -1.4119555475435228 [Eh]
	 Correlation Energy        =      -1.8438307895529609 [Eh]
	 Total Energy              =    -387.6096486823613532 [Eh]

	 ================> DF-SCS-MP2 Energies <==================
	-----------------------------------------------------------
	 SCS Same-Spin Scale       =       0.3333333333333333 [-]
	 SCS Opposite-Spin Scale   =       1.2000000000000000 [-]
	 SCS Same-Spin Energy      =      -0.1439584140031460 [Eh]
	 SCS Opposite-Spin Energy  =      -1.6943466570522274 [Eh]
	 SCS Correlation Energy    =      -1.8383050710553734 [Eh]
	 SCS Total Energy          =    -387.6041229638638015 [Eh]
	-----------------------------------------------------------

  Dipole Moment: [D]
     X:     0.1342      Y:    -0.0000      Z:    -0.0174     Total:     0.1353

*** Psi4 exiting successfully. Buy a developer a beer!
