                               Psi4 1.4a3.dev225

  ==> Input File <==

--------------------------------------------------------------------------
#psi4
#
memory 32 gb

molecule  {
0 1
  C       -2.1229620    -0.0000010    -0.5285820
  C       -3.0262580     0.7522420     0.4138790
  C       -3.0262580    -0.7522400     0.4138820
  C       -0.6463130    -0.0000010    -0.3104390
  C        0.0658190     1.2029900    -0.2211540
  C        0.0658190    -1.2029910    -0.2211540
  C        1.3505929     1.2014453    -0.0596523
  C        1.4498130    -1.2013260    -0.0471800
  C        2.1649180     0.0000000     0.0407490
  C        3.6537450     0.0000010     0.2729580
  H       -2.4338460    -0.0000040    -1.5729350
  H       -3.8872420     1.2699250     0.0031310
  H       -2.5562430     1.2534570     1.2541040
  H       -2.5562430    -1.2534530     1.2541090
  H       -3.8872430    -1.2699240     0.0031370
  H       -0.4732260     2.1464250    -0.2897140
  H       -0.4732250    -2.1464270    -0.2897140
  H        1.9843610     2.1482350     0.0181390
  H        1.9843620    -2.1482350     0.0181390
  H        4.1207180    -0.8853500    -0.1681390
  H        4.1207180     0.8853520    -0.1681380
  H        3.8883030     0.0000000     1.3432050
units angstrom
no_reorient  #important for SAPT in psi4, default
symmetry c1  #important for SAPT in psi4, default
}

set PROPERTIES_ORIGIN ["COM"]
properties('MP2/aug-cc-pvtz', properties = ['dipole'])
--------------------------------------------------------------------------

    Molecular point group: c1
  Charge       = 0
  Multiplicity = 1
  Basis Set: AUG-CC-PVTZ
    Blend: AUG-CC-PVTZ
  Basis Set: (AUG-CC-PVTZ AUX)
    Blend: AUG-CC-PVTZ-JKFIT

    Orbital Energies [Eh]
    ---------------------

    Doubly Occupied:

       1A    -11.242640     2A    -11.233800     3A    -11.232674
       4A    -11.227243     5A    -11.226619     6A    -11.225903
       7A    -11.225422     8A    -11.224470     9A    -11.223788
      10A    -11.216531    11A     -1.166360    12A     -1.131187
      13A     -1.039059    14A     -1.016253    15A     -0.938122
      16A     -0.834283    17A     -0.828489    18A     -0.803094
      19A     -0.768189    20A     -0.687316    21A     -0.653834
      22A     -0.638438    23A     -0.622516    24A     -0.593874
      25A     -0.577143    26A     -0.573695    27A     -0.541926
      28A     -0.528430    29A     -0.512227    30A     -0.495882
      31A     -0.482764    32A     -0.465346    33A     -0.424179
      34A     -0.411824    35A     -0.344615    36A     -0.304581

  @DF-RHF Final Energy:  -385.75568713375492

   => Energetics <=

    Nuclear Repulsion Energy =            483.5178408602812397
    One-Electron Energy =               -1479.2216233130961882
    Two-Electron Energy =                 609.9480953190600303
    Total Energy =                       -385.7556871337549182
  Basis Set: (AUG-CC-PVTZ AUX)
    Blend: AUG-CC-PVTZ-RI
    Molecular point group: c1

    Geometry (in Angstrom), charge = 0, multiplicity = 1:

       Center              X                  Y                   Z               Mass
    ------------   -----------------  -----------------  -----------------  -----------------
         C           -2.115216478750    -0.000011845375    -0.516893353591    12.000000000000
         C           -3.018512478750     0.752231154625     0.425567646409    12.000000000000
         C           -3.018512478750    -0.752250845375     0.425570646409    12.000000000000
         C           -0.638567478750    -0.000011845375    -0.298750353591    12.000000000000
         C            0.073564521250     1.202979154625    -0.209465353591    12.000000000000
         C            0.073564521250    -1.203001845375    -0.209465353591    12.000000000000
         C            1.358338421250     1.201434454625    -0.047963653591    12.000000000000
         C            1.457558521250    -1.201336845375    -0.035491353591    12.000000000000
         C            2.172663521250    -0.000010845375     0.052437646409    12.000000000000
         C            3.661490521250    -0.000009845375     0.284646646409    12.000000000000
         H           -2.426100478750    -0.000014845375    -1.561246353591     1.007825032230
         H           -3.879496478750     1.269914154625     0.014819646409     1.007825032230
         H           -2.548497478750     1.253446154625     1.265792646409     1.007825032230
         H           -2.548497478750    -1.253463845375     1.265797646409     1.007825032230
         H           -3.879497478750    -1.269934845375     0.014825646409     1.007825032230
         H           -0.465480478750     2.146414154625    -0.278025353591     1.007825032230
         H           -0.465479478750    -2.146437845375    -0.278025353591     1.007825032230
         H            1.992106521250     2.148224154625     0.029827646409     1.007825032230
         H            1.992107521250    -2.148245845375     0.029827646409     1.007825032230
         H            4.128463521250    -0.885360845375    -0.156450353591     1.007825032230
         H            4.128463521250     0.885341154625    -0.156449353591     1.007825032230
         H            3.896048521250    -0.000010845375     1.354893646409     1.007825032230

  Basis Set: AUG-CC-PVTZ
    Blend: AUG-CC-PVTZ
  Basis Set: (AUG-CC-PVTZ AUX)
    Blend: AUG-CC-PVTZ-JKFIT
	 Reference Energy          =    -385.7556871337549182 [Eh]
	 Singles Energy            =      -0.0000000000000000 [Eh]
	 Same-Spin Energy          =      -0.4316601325208078 [Eh]
	 Opposite-Spin Energy      =      -1.4118057102148913 [Eh]
	 Correlation Energy        =      -1.8434658427356991 [Eh]
	 Total Energy              =    -387.5991529764906431 [Eh]

	 ================> DF-SCS-MP2 Energies <==================
	-----------------------------------------------------------
	 SCS Same-Spin Scale       =       0.3333333333333333 [-]
	 SCS Opposite-Spin Scale   =       1.2000000000000000 [-]
	 SCS Same-Spin Energy      =      -0.1438867108402693 [Eh]
	 SCS Opposite-Spin Energy  =      -1.6941668522578694 [Eh]
	 SCS Correlation Energy    =      -1.8380535630981387 [Eh]
	 SCS Total Energy          =    -387.5937406968530468 [Eh]
	-----------------------------------------------------------

  Dipole Moment: [D]
     X:     0.1681      Y:    -0.0346      Z:     0.0347     Total:     0.1752

*** Psi4 exiting successfully. Buy a developer a beer!
