                               Psi4 1.4a3.dev225

  ==> Input File <==

--------------------------------------------------------------------------
#psi4
#
memory 32 gb

molecule  {
0 1
  C       -2.1229620    -0.0000010    -0.5285820
  C       -3.0262580     0.7522420     0.4138790
  C       -3.0262580    -0.7522400     0.4138820
  C       -0.6463130    -0.0000010    -0.3104390
  C        0.0658190     1.2029900    -0.2211540
  C        0.0658190    -1.2029910    -0.2211540
  C        1.4498120     1.2013260    -0.0471800
  C        1.4498130    -1.2013260    -0.0471800
  C        2.1649180     0.0000000     0.0407490
  C        3.6537450     0.0000010     0.2729580
  H       -2.4338460    -0.0000040    -1.5729350
  H       -3.8872420     1.2699250     0.0031310
  H       -2.5475824     1.2626925     1.2695862
  H       -2.5562430    -1.2534530     1.2541090
  H       -3.8872430    -1.2699240     0.0031370
  H       -0.4732260     2.1464250    -0.2897140
  H       -0.4732250    -2.1464270    -0.2897140
  H        1.9843610     2.1482350     0.0181390
  H        1.9843620    -2.1482350     0.0181390
  H        4.1207180    -0.8853500    -0.1681390
  H        4.1207180     0.8853520    -0.1681380
  H        3.8883030     0.0000000     1.3432050
units angstrom
no_reorient  #important for SAPT in psi4, default
symmetry c1  #important for SAPT in psi4, default
}

set PROPERTIES_ORIGIN ["COM"]
properties('MP2/aug-cc-pvtz', properties = ['dipole'])
--------------------------------------------------------------------------

    Molecular point group: c1
  Charge       = 0
  Multiplicity = 1
  Basis Set: AUG-CC-PVTZ
    Blend: AUG-CC-PVTZ
  Basis Set: (AUG-CC-PVTZ AUX)
    Blend: AUG-CC-PVTZ-JKFIT

    Orbital Energies [Eh]
    ---------------------

    Doubly Occupied:

       1A    -11.237912     2A    -11.234158     3A    -11.233161
       4A    -11.229157     5A    -11.228998     6A    -11.227443
       7A    -11.227374     8A    -11.226687     9A    -11.224450
      10A    -11.222448    11A     -1.163311    12A     -1.130055
      13A     -1.039095    14A     -1.006727    15A     -0.936618
      16A     -0.833364    17A     -0.831384    18A     -0.807793
      19A     -0.765484    20A     -0.686281    21A     -0.652632
      22A     -0.633733    23A     -0.626192    24A     -0.598543
      25A     -0.577027    26A     -0.573134    27A     -0.538437
      28A     -0.528110    29A     -0.510599    30A     -0.489774
      31A     -0.483688    32A     -0.476156    33A     -0.424356
      34A     -0.412791    35A     -0.331478    36A     -0.312259

  @DF-RHF Final Energy:  -385.76895617025127

   => Energetics <=

    Nuclear Repulsion Energy =            482.5380687939761515
    One-Electron Energy =               -1477.2924353445034740
    Two-Electron Energy =                 608.9854103802759937
    Total Energy =                       -385.7689561702512719
  Basis Set: (AUG-CC-PVTZ AUX)
    Blend: AUG-CC-PVTZ-RI
    Molecular point group: c1

    Geometry (in Angstrom), charge = 0, multiplicity = 1:

       Center              X                  Y                   Z               Mass
    ------------   -----------------  -----------------  -----------------  -----------------
         C           -2.124296062031    -0.000071470899    -0.518144516198    12.000000000000
         C           -3.027592062031     0.752171529101     0.424316483802    12.000000000000
         C           -3.027592062031    -0.752310470899     0.424319483802    12.000000000000
         C           -0.647647062031    -0.000071470899    -0.300001516198    12.000000000000
         C            0.064484937969     1.202919529101    -0.210716516198    12.000000000000
         C            0.064484937969    -1.203061470899    -0.210716516198    12.000000000000
         C            1.448477937969     1.201255529101    -0.036742516198    12.000000000000
         C            1.448478937969    -1.201396470899    -0.036742516198    12.000000000000
         C            2.163583937969    -0.000070470899     0.051186483802    12.000000000000
         C            3.652410937969    -0.000069470899     0.283395483802    12.000000000000
         H           -2.435180062031    -0.000074470899    -1.562497516198     1.007825032230
         H           -3.888576062031     1.269854529101     0.013568483802     1.007825032230
         H           -2.548916462031     1.262622029101     1.280023683802     1.007825032230
         H           -2.557577062031    -1.253523470899     1.264546483802     1.007825032230
         H           -3.888577062031    -1.269994470899     0.013574483802     1.007825032230
         H           -0.474560062031     2.146354529101    -0.279276516198     1.007825032230
         H           -0.474559062031    -2.146497470899    -0.279276516198     1.007825032230
         H            1.983026937969     2.148164529101     0.028576483802     1.007825032230
         H            1.983027937969    -2.148305470899     0.028576483802     1.007825032230
         H            4.119383937969    -0.885420470899    -0.157701516198     1.007825032230
         H            4.119383937969     0.885281529101    -0.157700516198     1.007825032230
         H            3.886968937969    -0.000070470899     1.353642483802     1.007825032230

  Basis Set: AUG-CC-PVTZ
    Blend: AUG-CC-PVTZ
  Basis Set: (AUG-CC-PVTZ AUX)
    Blend: AUG-CC-PVTZ-JKFIT
	 Reference Energy          =    -385.7689561702512719 [Eh]
	 Singles Energy            =      -0.0000000000000000 [Eh]
	 Same-Spin Energy          =      -0.4317280075506722 [Eh]
	 Opposite-Spin Energy      =      -1.4116104201898487 [Eh]
	 Correlation Energy        =      -1.8433384277405209 [Eh]
	 Total Energy              =    -387.6122945979918200 [Eh]

	 ================> DF-SCS-MP2 Energies <==================
	-----------------------------------------------------------
	 SCS Same-Spin Scale       =       0.3333333333333333 [-]
	 SCS Opposite-Spin Scale   =       1.2000000000000000 [-]
	 SCS Same-Spin Energy      =      -0.1439093358502241 [Eh]
	 SCS Opposite-Spin Energy  =      -1.6939325042278184 [Eh]
	 SCS Correlation Energy    =      -1.8378418400780425 [Eh]
	 SCS Total Energy          =    -387.6067980103293280 [Eh]
	-----------------------------------------------------------

  Dipole Moment: [D]
     X:     0.1141      Y:    -0.0049      Z:     0.0249     Total:     0.1169

*** Psi4 exiting successfully. Buy a developer a beer!
