                               Psi4 1.4a3.dev225

  ==> Input File <==

--------------------------------------------------------------------------
#psi4
#
memory 32 gb

molecule  {
0 1
  C       -2.1229620    -0.0000010    -0.5285820
  C       -3.0262580     0.7522420     0.4138790
  C       -2.9494833    -0.7439980     0.5511289
  C       -0.6463130    -0.0000010    -0.3104390
  C        0.0658190     1.2029900    -0.2211540
  C        0.0658190    -1.2029910    -0.2211540
  C        1.4498120     1.2013260    -0.0471800
  C        1.4498130    -1.2013260    -0.0471800
  C        2.1649180     0.0000000     0.0407490
  C        3.6537450     0.0000010     0.2729580
  H       -2.4338460    -0.0000040    -1.5729350
  H       -3.8872420     1.2699250     0.0031310
  H       -2.5562430     1.2534570     1.2541040
  H       -2.5562430    -1.2534530     1.2541090
  H       -3.8872430    -1.2699240     0.0031370
  H       -0.4732260     2.1464250    -0.2897140
  H       -0.4732250    -2.1464270    -0.2897140
  H        1.9843610     2.1482350     0.0181390
  H        1.9843620    -2.1482350     0.0181390
  H        4.1207180    -0.8853500    -0.1681390
  H        4.1207180     0.8853520    -0.1681380
  H        3.8883030     0.0000000     1.3432050
units angstrom
no_reorient  #important for SAPT in psi4, default
symmetry c1  #important for SAPT in psi4, default
}

set PROPERTIES_ORIGIN ["COM"]
properties('MP2/aug-cc-pvtz', properties = ['dipole'])
--------------------------------------------------------------------------

    Molecular point group: c1
  Charge       = 0
  Multiplicity = 1
  Basis Set: AUG-CC-PVTZ
    Blend: AUG-CC-PVTZ
  Basis Set: (AUG-CC-PVTZ AUX)
    Blend: AUG-CC-PVTZ-JKFIT

    Orbital Energies [Eh]
    ---------------------

    Doubly Occupied:

       1A    -11.237712     2A    -11.235794     3A    -11.232921
       4A    -11.228870     5A    -11.228793     6A    -11.228396
       7A    -11.227385     8A    -11.227020     9A    -11.226882
      10A    -11.222380    11A     -1.161628    12A     -1.127064
      13A     -1.038207    14A     -1.006549    15A     -0.936476
      16A     -0.842897    17A     -0.832460    18A     -0.813705
      19A     -0.767480    20A     -0.688333    21A     -0.644479
      22A     -0.633453    23A     -0.630110    24A     -0.607109
      25A     -0.576806    26A     -0.573028    27A     -0.538310
      28A     -0.529794    29A     -0.514426    30A     -0.486250
      31A     -0.482613    32A     -0.476398    33A     -0.426634
      34A     -0.398947    35A     -0.331382    36A     -0.312080

  @DF-RHF Final Energy:  -385.73847729449068

   => Energetics <=

    Nuclear Repulsion Energy =            482.7726561553518536
    One-Electron Energy =               -1477.6767270838697641
    Two-Electron Energy =                 609.1655936340272319
    Total Energy =                       -385.7384772944907354
  Basis Set: (AUG-CC-PVTZ AUX)
    Blend: AUG-CC-PVTZ-RI
    Molecular point group: c1

    Geometry (in Angstrom), charge = 0, multiplicity = 1:

       Center              X                  Y                   Z               Mass
    ------------   -----------------  -----------------  -----------------  -----------------
         C           -2.131204541741    -0.000749747728    -0.530494514543    12.000000000000
         C           -3.034500541741     0.751493252272     0.411966485457    12.000000000000
         C           -2.957725841741    -0.744746747728     0.549216385457    12.000000000000
         C           -0.654555541741    -0.000749747728    -0.312351514543    12.000000000000
         C            0.057576458259     1.202241252272    -0.223066514543    12.000000000000
         C            0.057576458259    -1.203739747728    -0.223066514543    12.000000000000
         C            1.441569458259     1.200577252272    -0.049092514543    12.000000000000
         C            1.441570458259    -1.202074747728    -0.049092514543    12.000000000000
         C            2.156675458259    -0.000748747728     0.038836485457    12.000000000000
         C            3.645502458259    -0.000747747728     0.271045485457    12.000000000000
         H           -2.442088541741    -0.000752747728    -1.574847514543     1.007825032230
         H           -3.895484541741     1.269176252272     0.001218485457     1.007825032230
         H           -2.564485541741     1.252708252272     1.252191485457     1.007825032230
         H           -2.564485541741    -1.254201747728     1.252196485457     1.007825032230
         H           -3.895485541741    -1.270672747728     0.001224485457     1.007825032230
         H           -0.481468541741     2.145676252272    -0.291626514543     1.007825032230
         H           -0.481467541741    -2.147175747728    -0.291626514543     1.007825032230
         H            1.976118458259     2.147486252272     0.016226485457     1.007825032230
         H            1.976119458259    -2.148983747728     0.016226485457     1.007825032230
         H            4.112475458259    -0.886098747728    -0.170051514543     1.007825032230
         H            4.112475458259     0.884603252272    -0.170050514543     1.007825032230
         H            3.880060458259    -0.000748747728     1.341292485457     1.007825032230

  Basis Set: AUG-CC-PVTZ
    Blend: AUG-CC-PVTZ
  Basis Set: (AUG-CC-PVTZ AUX)
    Blend: AUG-CC-PVTZ-JKFIT
	 Reference Energy          =    -385.7384772944906786 [Eh]
	 Singles Energy            =      -0.0000000000000000 [Eh]
	 Same-Spin Energy          =      -0.4320507754904622 [Eh]
	 Opposite-Spin Energy      =      -1.4132515705367685 [Eh]
	 Correlation Energy        =      -1.8453023460272306 [Eh]
	 Total Energy              =    -387.5837796405178892 [Eh]

	 ================> DF-SCS-MP2 Energies <==================
	-----------------------------------------------------------
	 SCS Same-Spin Scale       =       0.3333333333333333 [-]
	 SCS Opposite-Spin Scale   =       1.2000000000000000 [-]
	 SCS Same-Spin Energy      =      -0.1440169251634874 [Eh]
	 SCS Opposite-Spin Energy  =      -1.6959018846441223 [Eh]
	 SCS Correlation Energy    =      -1.8399188098076096 [Eh]
	 SCS Total Energy          =    -387.5783961042982924 [Eh]
	-----------------------------------------------------------

  Dipole Moment: [D]
     X:     0.1636      Y:     0.1063      Z:     0.0371     Total:     0.1986

*** Psi4 exiting successfully. Buy a developer a beer!
