                               Psi4 1.4a3.dev225

  ==> Input File <==

--------------------------------------------------------------------------
#psi4
#
memory 32 gb

molecule  {
0 1
  C       -2.1229620    -0.0000010    -0.5285820
  C       -3.0262580     0.7522420     0.4138790
  C       -3.0262580    -0.7522400     0.4138820
  C       -0.6463130    -0.0000010    -0.3104390
  C        0.0658190     1.2029900    -0.2211540
  C        0.0658190    -1.2029910    -0.2211540
  C        1.4498120     1.2013260    -0.0471800
  C        1.4498130    -1.2013260    -0.0471800
  C        2.1649180     0.0000000     0.0407490
  C        3.6537450     0.0000010     0.2729580
  H       -2.4338460    -0.0000040    -1.5729350
  H       -3.8872420     1.2699250     0.0031310
  H       -2.5562430     1.2534570     1.2541040
  H       -2.5562430    -1.2534530     1.2541090
  H       -3.9269066    -1.2937725    -0.0157851
  H       -0.4732260     2.1464250    -0.2897140
  H       -0.4732250    -2.1464270    -0.2897140
  H        1.9843610     2.1482350     0.0181390
  H        1.9843620    -2.1482350     0.0181390
  H        4.1207180    -0.8853500    -0.1681390
  H        4.1207180     0.8853520    -0.1681380
  H        3.8883030     0.0000000     1.3432050
units angstrom
no_reorient  #important for SAPT in psi4, default
symmetry c1  #important for SAPT in psi4, default
}

set PROPERTIES_ORIGIN ["COM"]
properties('MP2/aug-cc-pvtz', properties = ['dipole'])
--------------------------------------------------------------------------

    Molecular point group: c1
  Charge       = 0
  Multiplicity = 1
  Basis Set: AUG-CC-PVTZ
    Blend: AUG-CC-PVTZ
  Basis Set: (AUG-CC-PVTZ AUX)
    Blend: AUG-CC-PVTZ-JKFIT

    Orbital Energies [Eh]
    ---------------------

    Doubly Occupied:

       1A    -11.238096     2A    -11.234375     3A    -11.233394
       4A    -11.230099     5A    -11.229365     6A    -11.229203
       7A    -11.227632     8A    -11.227559     9A    -11.224742
      10A    -11.222575    11A     -1.163439    12A     -1.130034
      13A     -1.039154    14A     -1.006918    15A     -0.936636
      16A     -0.833182    17A     -0.830748    18A     -0.806231
      19A     -0.765742    20A     -0.686657    21A     -0.648793
      22A     -0.633761    23A     -0.626193    24A     -0.599657
      25A     -0.577200    26A     -0.573251    27A     -0.538480
      28A     -0.527987    29A     -0.508348    30A     -0.489642
      31A     -0.483845    32A     -0.476096    33A     -0.424507
      34A     -0.412670    35A     -0.331670    36A     -0.312466

  @DF-RHF Final Energy:  -385.76724502892193

   => Energetics <=

    Nuclear Repulsion Energy =            482.3831853248578341
    One-Electron Energy =               -1476.9801606303344670
    Two-Electron Energy =                 608.8297302765547556
    Total Energy =                       -385.7672450289219341
  Basis Set: (AUG-CC-PVTZ AUX)
    Blend: AUG-CC-PVTZ-RI
    Molecular point group: c1

    Geometry (in Angstrom), charge = 0, multiplicity = 1:

       Center              X                  Y                   Z               Mass
    ------------   -----------------  -----------------  -----------------  -----------------
         C           -2.123927367199     0.000180947141    -0.517882024783    12.000000000000
         C           -3.027223367199     0.752423947141     0.424578975217    12.000000000000
         C           -3.027223367199    -0.752058052859     0.424581975217    12.000000000000
         C           -0.647278367199     0.000180947141    -0.299739024783    12.000000000000
         C            0.064853632801     1.203171947141    -0.210454024783    12.000000000000
         C            0.064853632801    -1.202809052859    -0.210454024783    12.000000000000
         C            1.448846632801     1.201507947141    -0.036480024783    12.000000000000
         C            1.448847632801    -1.201144052859    -0.036480024783    12.000000000000
         C            2.163952632801     0.000181947141     0.051448975217    12.000000000000
         C            3.652779632801     0.000182947141     0.283657975217    12.000000000000
         H           -2.434811367199     0.000177947141    -1.562235024783     1.007825032230
         H           -3.888207367199     1.270106947141     0.013830975217     1.007825032230
         H           -2.557208367199     1.253638947141     1.264803975217     1.007825032230
         H           -2.557208367199    -1.253271052859     1.264808975217     1.007825032230
         H           -3.927871967199    -1.293590552859    -0.005085124783     1.007825032230
         H           -0.474191367199     2.146606947141    -0.279014024783     1.007825032230
         H           -0.474190367199    -2.146245052859    -0.279014024783     1.007825032230
         H            1.983395632801     2.148416947141     0.028838975217     1.007825032230
         H            1.983396632801    -2.148053052859     0.028838975217     1.007825032230
         H            4.119752632801    -0.885168052859    -0.157439024783     1.007825032230
         H            4.119752632801     0.885533947141    -0.157438024783     1.007825032230
         H            3.887337632801     0.000181947141     1.353904975217     1.007825032230

  Basis Set: AUG-CC-PVTZ
    Blend: AUG-CC-PVTZ
  Basis Set: (AUG-CC-PVTZ AUX)
    Blend: AUG-CC-PVTZ-JKFIT
	 Reference Energy          =    -385.7672450289219341 [Eh]
	 Singles Energy            =      -0.0000000000000000 [Eh]
	 Same-Spin Energy          =      -0.4317262480092927 [Eh]
	 Opposite-Spin Energy      =      -1.4118151588684236 [Eh]
	 Correlation Energy        =      -1.8435414068777163 [Eh]
	 Total Energy              =    -387.6107864357996391 [Eh]

	 ================> DF-SCS-MP2 Energies <==================
	-----------------------------------------------------------
	 SCS Same-Spin Scale       =       0.3333333333333333 [-]
	 SCS Opposite-Spin Scale   =       1.2000000000000000 [-]
	 SCS Same-Spin Energy      =      -0.1439087493364309 [Eh]
	 SCS Opposite-Spin Energy  =      -1.6941781906421083 [Eh]
	 SCS Correlation Energy    =      -1.8380869399785391 [Eh]
	 SCS Total Energy          =    -387.6053319689004866 [Eh]
	-----------------------------------------------------------

  Dipole Moment: [D]
     X:     0.1392      Y:     0.0171      Z:     0.0300     Total:     0.1434

*** Psi4 exiting successfully. Buy a developer a beer!
