                               Psi4 1.4a3.dev225

  ==> Input File <==

--------------------------------------------------------------------------
#psi4
#
memory 32 gb

molecule  {
0 1
  C       -2.1229620    -0.0000010    -0.5285820
  C       -3.0262580     0.7522420     0.4138790
  C       -3.0262580    -0.7522400     0.4138820
  C       -0.6253737    -0.0123435    -0.3078045
  C        0.0658190     1.2029900    -0.2211540
  C        0.0658190    -1.2029910    -0.2211540
  C        1.4498120     1.2013260    -0.0471800
  C        1.4498130    -1.2013260    -0.0471800
  C        2.1649180     0.0000000     0.0407490
  C        3.6537450     0.0000010     0.2729580
  H       -2.4338460    -0.0000040    -1.5729350
  H       -3.8872420     1.2699250     0.0031310
  H       -2.5562430     1.2534570     1.2541040
  H       -2.5562430    -1.2534530     1.2541090
  H       -3.8872430    -1.2699240     0.0031370
  H       -0.4732260     2.1464250    -0.2897140
  H       -0.4732250    -2.1464270    -0.2897140
  H        1.9843610     2.1482350     0.0181390
  H        1.9843620    -2.1482350     0.0181390
  H        4.1207180    -0.8853500    -0.1681390
  H        4.1207180     0.8853520    -0.1681380
  H        3.8883030     0.0000000     1.3432050
units angstrom
no_reorient  #important for SAPT in psi4, default
symmetry c1  #important for SAPT in psi4, default
}

set PROPERTIES_ORIGIN ["COM"]
properties('MP2/aug-cc-pvtz', properties = ['dipole'])
--------------------------------------------------------------------------

    Molecular point group: c1
  Charge       = 0
  Multiplicity = 1
  Basis Set: AUG-CC-PVTZ
    Blend: AUG-CC-PVTZ
  Basis Set: (AUG-CC-PVTZ AUX)
    Blend: AUG-CC-PVTZ-JKFIT

    Orbital Energies [Eh]
    ---------------------

    Doubly Occupied:

       1A    -11.237682     2A    -11.233725     3A    -11.232797
       4A    -11.229185     5A    -11.227990     6A    -11.227597
       7A    -11.226281     8A    -11.224225     9A    -11.223424
      10A    -11.222419    11A     -1.163406    12A     -1.130132
      13A     -1.040181    14A     -1.007911    15A     -0.935524
      16A     -0.834301    17A     -0.828920    18A     -0.809354
      19A     -0.766449    20A     -0.686248    21A     -0.651991
      22A     -0.634555    23A     -0.625901    24A     -0.598776
      25A     -0.578940    26A     -0.573196    27A     -0.538587
      28A     -0.527307    29A     -0.511881    30A     -0.490592
      31A     -0.485275    32A     -0.473102    33A     -0.423092
      34A     -0.413145    35A     -0.332055    36A     -0.313871

  @DF-RHF Final Energy:  -385.76936775040178

   => Energetics <=

    Nuclear Repulsion Energy =            482.7263640472856423
    One-Electron Energy =               -1477.6714312733361112
    Two-Electron Energy =                 609.1756994756486847
    Total Energy =                       -385.7693677504017842
  Basis Set: (AUG-CC-PVTZ AUX)
    Blend: AUG-CC-PVTZ-RI
    Molecular point group: c1

    Geometry (in Angstrom), charge = 0, multiplicity = 1:

       Center              X                  Y                   Z               Mass
    ------------   -----------------  -----------------  -----------------  -----------------
         C           -2.126132204577     0.001120240207    -0.518265722788    12.000000000000
         C           -3.029428204577     0.753363240207     0.424195277212    12.000000000000
         C           -3.029428204577    -0.751118759793     0.424198277212    12.000000000000
         C           -0.628543904577    -0.011222259793    -0.297488222788    12.000000000000
         C            0.062648795423     1.204111240207    -0.210837722788    12.000000000000
         C            0.062648795423    -1.201869759793    -0.210837722788    12.000000000000
         C            1.446641795423     1.202447240207    -0.036863722788    12.000000000000
         C            1.446642795423    -1.200204759793    -0.036863722788    12.000000000000
         C            2.161747795423     0.001121240207     0.051065277212    12.000000000000
         C            3.650574795423     0.001122240207     0.283274277212    12.000000000000
         H           -2.437016204577     0.001117240207    -1.562618722788     1.007825032230
         H           -3.890412204577     1.271046240207     0.013447277212     1.007825032230
         H           -2.559413204577     1.254578240207     1.264420277212     1.007825032230
         H           -2.559413204577    -1.252331759793     1.264425277212     1.007825032230
         H           -3.890413204577    -1.268802759793     0.013453277212     1.007825032230
         H           -0.476396204577     2.147546240207    -0.279397722788     1.007825032230
         H           -0.476395204577    -2.145305759793    -0.279397722788     1.007825032230
         H            1.981190795423     2.149356240207     0.028455277212     1.007825032230
         H            1.981191795423    -2.147113759793     0.028455277212     1.007825032230
         H            4.117547795423    -0.884228759793    -0.157822722788     1.007825032230
         H            4.117547795423     0.886473240207    -0.157821722788     1.007825032230
         H            3.885132795423     0.001121240207     1.353521277212     1.007825032230

  Basis Set: AUG-CC-PVTZ
    Blend: AUG-CC-PVTZ
  Basis Set: (AUG-CC-PVTZ AUX)
    Blend: AUG-CC-PVTZ-JKFIT
	 Reference Energy          =    -385.7693677504017842 [Eh]
	 Singles Energy            =      -0.0000000000000000 [Eh]
	 Same-Spin Energy          =      -0.4315046446185479 [Eh]
	 Opposite-Spin Energy      =      -1.4111724202590161 [Eh]
	 Correlation Energy        =      -1.8426770648775639 [Eh]
	 Total Energy              =    -387.6120448152793756 [Eh]

	 ================> DF-SCS-MP2 Energies <==================
	-----------------------------------------------------------
	 SCS Same-Spin Scale       =       0.3333333333333333 [-]
	 SCS Opposite-Spin Scale   =       1.2000000000000000 [-]
	 SCS Same-Spin Energy      =      -0.1438348815395160 [Eh]
	 SCS Opposite-Spin Energy  =      -1.6934069043108193 [Eh]
	 SCS Correlation Energy    =      -1.8372417858503352 [Eh]
	 SCS Total Energy          =    -387.6066095362521082 [Eh]
	-----------------------------------------------------------

  Dipole Moment: [D]
     X:     0.1454      Y:     0.0034      Z:     0.0279     Total:     0.1481

*** Psi4 exiting successfully. Buy a developer a beer!
