                               Psi4 1.4a3.dev225

  ==> Input File <==

--------------------------------------------------------------------------
#psi4
#
memory 32 gb

molecule  {
0 1
  C       -2.1229620    -0.0000010    -0.5285820
  C       -3.0262580     0.7522420     0.4138790
  C       -3.0262580    -0.7522400     0.4138820
  C       -0.6463130    -0.0000010    -0.3104390
  C        0.0658190     1.2029900    -0.2211540
  C        0.0658190    -1.2029910    -0.2211540
  C        1.4498120     1.2013260    -0.0471800
  C        1.4498130    -1.2013260    -0.0471800
  C        2.1649180     0.0000000     0.0407490
  C        3.5549395     0.0000009     0.2575475
  H       -2.4338460    -0.0000040    -1.5729350
  H       -3.8872420     1.2699250     0.0031310
  H       -2.5562430     1.2534570     1.2541040
  H       -2.5562430    -1.2534530     1.2541090
  H       -3.8872430    -1.2699240     0.0031370
  H       -0.4732260     2.1464250    -0.2897140
  H       -0.4732250    -2.1464270    -0.2897140
  H        1.9843610     2.1482350     0.0181390
  H        1.9843620    -2.1482350     0.0181390
  H        4.1207180    -0.8853500    -0.1681390
  H        4.1207180     0.8853520    -0.1681380
  H        3.8883030     0.0000000     1.3432050
units angstrom
no_reorient  #important for SAPT in psi4, default
symmetry c1  #important for SAPT in psi4, default
}

set PROPERTIES_ORIGIN ["COM"]
properties('MP2/aug-cc-pvtz', properties = ['dipole'])
--------------------------------------------------------------------------

    Molecular point group: c1
  Charge       = 0
  Multiplicity = 1
  Basis Set: AUG-CC-PVTZ
    Blend: AUG-CC-PVTZ
  Basis Set: (AUG-CC-PVTZ AUX)
    Blend: AUG-CC-PVTZ-JKFIT

    Orbital Energies [Eh]
    ---------------------

    Doubly Occupied:

       1A    -11.234643     2A    -11.233335     3A    -11.232750
       4A    -11.229551     5A    -11.229377     6A    -11.227823
       7A    -11.227698     8A    -11.226885     9A    -11.224936
      10A    -11.224283    11A     -1.165338    12A     -1.134299
      13A     -1.050300    14A     -1.007566    15A     -0.934957
      16A     -0.835247    17A     -0.828945    18A     -0.810015
      19A     -0.766440    20A     -0.688445    21A     -0.656707
      22A     -0.636222    23A     -0.632904    24A     -0.602233
      25A     -0.577346    26A     -0.564518    27A     -0.542287
      28A     -0.522036    29A     -0.512299    30A     -0.490911
      31A     -0.477931    32A     -0.477288    33A     -0.423581
      34A     -0.413117    35A     -0.332107    36A     -0.309763

  @DF-RHF Final Energy:  -385.75709436330459

   => Energetics <=

    Nuclear Repulsion Energy =            484.3626846311204872
    One-Electron Energy =               -1480.8713869982632332
    Two-Electron Energy =                 610.7516080038382142
    Total Energy =                       -385.7570943633045317
  Basis Set: (AUG-CC-PVTZ AUX)
    Blend: AUG-CC-PVTZ-RI
    Molecular point group: c1

    Geometry (in Angstrom), charge = 0, multiplicity = 1:

       Center              X                  Y                   Z               Mass
    ------------   -----------------  -----------------  -----------------  -----------------
         C           -2.115254052022    -0.000000998545    -0.516626434377    12.000000000000
         C           -3.018550052022     0.752242001455     0.425834565623    12.000000000000
         C           -3.018550052022    -0.752239998545     0.425837565623    12.000000000000
         C           -0.638605052022    -0.000000998545    -0.298483434377    12.000000000000
         C            0.073526947978     1.202990001455    -0.209198434377    12.000000000000
         C            0.073526947978    -1.202990998545    -0.209198434377    12.000000000000
         C            1.457519947978     1.201326001455    -0.035224434377    12.000000000000
         C            1.457520947978    -1.201325998545    -0.035224434377    12.000000000000
         C            2.172625947978     0.000000001455     0.052704565623    12.000000000000
         C            3.562647447978     0.000000901455     0.269503065623    12.000000000000
         H           -2.426138052022    -0.000003998545    -1.560979434377     1.007825032230
         H           -3.879534052022     1.269925001455     0.015086565623     1.007825032230
         H           -2.548535052022     1.253457001455     1.266059565623     1.007825032230
         H           -2.548535052022    -1.253452998545     1.266064565623     1.007825032230
         H           -3.879535052022    -1.269923998545     0.015092565623     1.007825032230
         H           -0.465518052022     2.146425001455    -0.277758434377     1.007825032230
         H           -0.465517052022    -2.146426998545    -0.277758434377     1.007825032230
         H            1.992068947978     2.148235001455     0.030094565623     1.007825032230
         H            1.992069947978    -2.148234998545     0.030094565623     1.007825032230
         H            4.128425947978    -0.885349998545    -0.156183434377     1.007825032230
         H            4.128425947978     0.885352001455    -0.156182434377     1.007825032230
         H            3.896010947978     0.000000001455     1.355160565623     1.007825032230

  Basis Set: AUG-CC-PVTZ
    Blend: AUG-CC-PVTZ
  Basis Set: (AUG-CC-PVTZ AUX)
    Blend: AUG-CC-PVTZ-JKFIT
	 Reference Energy          =    -385.7570943633045886 [Eh]
	 Singles Energy            =      -0.0000000000000000 [Eh]
	 Same-Spin Energy          =      -0.4329838763383942 [Eh]
	 Opposite-Spin Energy      =      -1.4129547406057141 [Eh]
	 Correlation Energy        =      -1.8459386169441083 [Eh]
	 Total Energy              =    -387.6030329802487131 [Eh]

	 ================> DF-SCS-MP2 Energies <==================
	-----------------------------------------------------------
	 SCS Same-Spin Scale       =       0.3333333333333333 [-]
	 SCS Opposite-Spin Scale   =       1.2000000000000000 [-]
	 SCS Same-Spin Energy      =      -0.1443279587794647 [Eh]
	 SCS Opposite-Spin Energy  =      -1.6955456887268570 [Eh]
	 SCS Correlation Energy    =      -1.8398736475063218 [Eh]
	 SCS Total Energy          =    -387.5969680108108832 [Eh]
	-----------------------------------------------------------

  Dipole Moment: [D]
     X:     0.1040      Y:    -0.0000      Z:     0.0313     Total:     0.1086

*** Psi4 exiting successfully. Buy a developer a beer!
