                               Psi4 1.4a3.dev225

  ==> Input File <==

--------------------------------------------------------------------------
#psi4
#
memory 32 gb

molecule  {
0 1
  C       -2.1229620    -0.0000010    -0.5285820
  C       -3.0499562     0.7520128     0.4025734
  C       -3.0262580    -0.7522400     0.4138820
  C       -0.6463130    -0.0000010    -0.3104390
  C        0.0658190     1.2029900    -0.2211540
  C        0.0658190    -1.2029910    -0.2211540
  C        1.4498120     1.2013260    -0.0471800
  C        1.4498130    -1.2013260    -0.0471800
  C        2.1649180     0.0000000     0.0407490
  C        3.6537450     0.0000010     0.2729580
  H       -2.4338460    -0.0000040    -1.5729350
  H       -3.8872420     1.2699250     0.0031310
  H       -2.5562430     1.2534570     1.2541040
  H       -2.5562430    -1.2534530     1.2541090
  H       -3.8872430    -1.2699240     0.0031370
  H       -0.4732260     2.1464250    -0.2897140
  H       -0.4732250    -2.1464270    -0.2897140
  H        1.9843610     2.1482350     0.0181390
  H        1.9843620    -2.1482350     0.0181390
  H        4.1207180    -0.8853500    -0.1681390
  H        4.1207180     0.8853520    -0.1681380
  H        3.8883030     0.0000000     1.3432050
units angstrom
no_reorient  #important for SAPT in psi4, default
symmetry c1  #important for SAPT in psi4, default
}

set PROPERTIES_ORIGIN ["COM"]
properties('MP2/aug-cc-pvtz', properties = ['dipole'])
--------------------------------------------------------------------------

    Molecular point group: c1
  Charge       = 0
  Multiplicity = 1
  Basis Set: AUG-CC-PVTZ
    Blend: AUG-CC-PVTZ
  Basis Set: (AUG-CC-PVTZ AUX)
    Blend: AUG-CC-PVTZ-JKFIT

    Orbital Energies [Eh]
    ---------------------

    Doubly Occupied:

       1A    -11.237992     2A    -11.234388     3A    -11.233162
       4A    -11.229305     5A    -11.229067     6A    -11.227541
       7A    -11.227408     8A    -11.224937     9A    -11.224204
      10A    -11.222490    11A     -1.162694    12A     -1.129570
      13A     -1.039259    14A     -1.006790    15A     -0.936826
      16A     -0.834001    17A     -0.831836    18A     -0.809286
      19A     -0.765537    20A     -0.686157    21A     -0.654465
      22A     -0.633850    23A     -0.626328    24A     -0.598019
      25A     -0.577096    26A     -0.573193    27A     -0.538555
      28A     -0.528490    29A     -0.512675    30A     -0.490005
      31A     -0.483670    32A     -0.476325    33A     -0.424836
      34A     -0.411062    35A     -0.331538    36A     -0.312333

  @DF-RHF Final Energy:  -385.76870846638286

   => Energetics <=

    Nuclear Repulsion Energy =            482.3804915410677836
    One-Electron Energy =               -1476.9686234372948093
    Two-Electron Energy =                 608.8194234298440506
    Total Energy =                       -385.7687084663829182
  Basis Set: (AUG-CC-PVTZ AUX)
    Blend: AUG-CC-PVTZ-RI
    Molecular point group: c1

    Geometry (in Angstrom), charge = 0, multiplicity = 1:

       Center              X                  Y                   Z               Mass
    ------------   -----------------  -----------------  -----------------  -----------------
         C           -2.122077134673     0.000019813922    -0.516999341831    12.000000000000
         C           -3.049071334673     0.752033613922     0.414156058169    12.000000000000
         C           -3.025373134673    -0.752219186078     0.425464658169    12.000000000000
         C           -0.645428134673     0.000019813922    -0.298856341831    12.000000000000
         C            0.066703865327     1.203010813922    -0.209571341831    12.000000000000
         C            0.066703865327    -1.202970186078    -0.209571341831    12.000000000000
         C            1.450696865327     1.201346813922    -0.035597341831    12.000000000000
         C            1.450697865327    -1.201305186078    -0.035597341831    12.000000000000
         C            2.165802865327     0.000020813922     0.052331658169    12.000000000000
         C            3.654629865327     0.000021813922     0.284540658169    12.000000000000
         H           -2.432961134673     0.000016813922    -1.561352341831     1.007825032230
         H           -3.886357134673     1.269945813922     0.014713658169     1.007825032230
         H           -2.555358134673     1.253477813922     1.265686658169     1.007825032230
         H           -2.555358134673    -1.253432186078     1.265691658169     1.007825032230
         H           -3.886358134673    -1.269903186078     0.014719658169     1.007825032230
         H           -0.472341134673     2.146445813922    -0.278131341831     1.007825032230
         H           -0.472340134673    -2.146406186078    -0.278131341831     1.007825032230
         H            1.985245865327     2.148255813922     0.029721658169     1.007825032230
         H            1.985246865327    -2.148214186078     0.029721658169     1.007825032230
         H            4.121602865327    -0.885329186078    -0.156556341831     1.007825032230
         H            4.121602865327     0.885372813922    -0.156555341831     1.007825032230
         H            3.889187865327     0.000020813922     1.354787658169     1.007825032230

  Basis Set: AUG-CC-PVTZ
    Blend: AUG-CC-PVTZ
  Basis Set: (AUG-CC-PVTZ AUX)
    Blend: AUG-CC-PVTZ-JKFIT
	 Reference Energy          =    -385.7687084663828614 [Eh]
	 Singles Energy            =      -0.0000000000000000 [Eh]
	 Same-Spin Energy          =      -0.4317066277170479 [Eh]
	 Opposite-Spin Energy      =      -1.4115442939610647 [Eh]
	 Correlation Energy        =      -1.8432509216781128 [Eh]
	 Total Energy              =    -387.6119593880609955 [Eh]

	 ================> DF-SCS-MP2 Energies <==================
	-----------------------------------------------------------
	 SCS Same-Spin Scale       =       0.3333333333333333 [-]
	 SCS Opposite-Spin Scale   =       1.2000000000000000 [-]
	 SCS Same-Spin Energy      =      -0.1439022092390160 [Eh]
	 SCS Opposite-Spin Energy  =      -1.6938531527532776 [Eh]
	 SCS Correlation Energy    =      -1.8377553619922935 [Eh]
	 SCS Total Energy          =    -387.6064638283751265 [Eh]
	-----------------------------------------------------------

  Dipole Moment: [D]
     X:     0.1154      Y:    -0.0002      Z:     0.0232     Total:     0.1177

*** Psi4 exiting successfully. Buy a developer a beer!
