                               Psi4 1.4a3.dev225

  ==> Input File <==

--------------------------------------------------------------------------
#psi4
#
memory 32 gb

molecule  {
0 1
  C       -2.1229620    -0.0000010    -0.5285820
  C       -3.0262580     0.7522420     0.4138790
  C       -2.9268051    -0.7108311     0.5290580
  C       -0.6463130    -0.0000010    -0.3104390
  C        0.0658190     1.2029900    -0.2211540
  C        0.0658190    -1.2029910    -0.2211540
  C        1.4498120     1.2013260    -0.0471800
  C        1.4498130    -1.2013260    -0.0471800
  C        2.1649180     0.0000000     0.0407490
  C        3.6537450     0.0000010     0.2729580
  H       -2.4338460    -0.0000040    -1.5729350
  H       -3.8872420     1.2699250     0.0031310
  H       -2.5562430     1.2534570     1.2541040
  H       -2.5562430    -1.2534530     1.2541090
  H       -3.8872430    -1.2699240     0.0031370
  H       -0.4732260     2.1464250    -0.2897140
  H       -0.4732250    -2.1464270    -0.2897140
  H        1.9843610     2.1482350     0.0181390
  H        1.9843620    -2.1482350     0.0181390
  H        4.1207180    -0.8853500    -0.1681390
  H        4.1207180     0.8853520    -0.1681380
  H        3.8883030     0.0000000     1.3432050
units angstrom
no_reorient  #important for SAPT in psi4, default
symmetry c1  #important for SAPT in psi4, default
}

set PROPERTIES_ORIGIN ["COM"]
properties('MP2/aug-cc-pvtz', properties = ['dipole'])
--------------------------------------------------------------------------

    Molecular point group: c1
  Charge       = 0
  Multiplicity = 1
  Basis Set: AUG-CC-PVTZ
    Blend: AUG-CC-PVTZ
  Basis Set: (AUG-CC-PVTZ AUX)
    Blend: AUG-CC-PVTZ-JKFIT

    Orbital Energies [Eh]
    ---------------------

    Doubly Occupied:

       1A    -11.237705     2A    -11.233468     3A    -11.232606
       4A    -11.229009     5A    -11.228244     6A    -11.227626
       7A    -11.227475     8A    -11.226916     9A    -11.225686
      10A    -11.222378    11A     -1.167374    12A     -1.133423
      13A     -1.039244    14A     -1.006554    15A     -0.936756
      16A     -0.837759    17A     -0.833850    18A     -0.811458
      19A     -0.768296    20A     -0.689441    21A     -0.649251
      22A     -0.633616    23A     -0.630759    24A     -0.606209
      25A     -0.576807    26A     -0.573034    27A     -0.538350
      28A     -0.529009    29A     -0.508252    30A     -0.485542
      31A     -0.481805    32A     -0.475188    33A     -0.431371
      34A     -0.402730    35A     -0.331361    36A     -0.312444

  @DF-RHF Final Energy:  -385.74131190012974

   => Energetics <=

    Nuclear Repulsion Energy =            483.6514115907124847
    One-Electron Energy =               -1479.4234615666728132
    Two-Electron Energy =                 610.0307380758305271
    Total Energy =                       -385.7413119001297446
  Basis Set: (AUG-CC-PVTZ AUX)
    Blend: AUG-CC-PVTZ-RI
    Molecular point group: c1

    Geometry (in Angstrom), charge = 0, multiplicity = 1:

       Center              X                  Y                   Z               Mass
    ------------   -----------------  -----------------  -----------------  -----------------
         C           -2.133264730736    -0.003762777087    -0.528489495393    12.000000000000
         C           -3.036560730736     0.748480222913     0.413971504607    12.000000000000
         C           -2.937107830736    -0.714592877087     0.529150504607    12.000000000000
         C           -0.656615730736    -0.003762777087    -0.310346495393    12.000000000000
         C            0.055516269264     1.199228222913    -0.221061495393    12.000000000000
         C            0.055516269264    -1.206752777087    -0.221061495393    12.000000000000
         C            1.439509269264     1.197564222913    -0.047087495393    12.000000000000
         C            1.439510269264    -1.205087777087    -0.047087495393    12.000000000000
         C            2.154615269264    -0.003761777087     0.040841504607    12.000000000000
         C            3.643442269264    -0.003760777087     0.273050504607    12.000000000000
         H           -2.444148730736    -0.003765777087    -1.572842495393     1.007825032230
         H           -3.897544730736     1.266163222913     0.003223504607     1.007825032230
         H           -2.566545730736     1.249695222913     1.254196504607     1.007825032230
         H           -2.566545730736    -1.257214777087     1.254201504607     1.007825032230
         H           -3.897545730736    -1.273685777087     0.003229504607     1.007825032230
         H           -0.483528730736     2.142663222913    -0.289621495393     1.007825032230
         H           -0.483527730736    -2.150188777087    -0.289621495393     1.007825032230
         H            1.974058269264     2.144473222913     0.018231504607     1.007825032230
         H            1.974059269264    -2.151996777087     0.018231504607     1.007825032230
         H            4.110415269264    -0.889111777087    -0.168046495393     1.007825032230
         H            4.110415269264     0.881590222913    -0.168045495393     1.007825032230
         H            3.878000269264    -0.003761777087     1.343297504607     1.007825032230

  Basis Set: AUG-CC-PVTZ
    Blend: AUG-CC-PVTZ
  Basis Set: (AUG-CC-PVTZ AUX)
    Blend: AUG-CC-PVTZ-JKFIT
	 Reference Energy          =    -385.7413119001297446 [Eh]
	 Singles Energy            =      -0.0000000000000000 [Eh]
	 Same-Spin Energy          =      -0.4321841101927106 [Eh]
	 Opposite-Spin Energy      =      -1.4128218044454330 [Eh]
	 Correlation Energy        =      -1.8450059146381437 [Eh]
	 Total Energy              =    -387.5863178147678809 [Eh]

	 ================> DF-SCS-MP2 Energies <==================
	-----------------------------------------------------------
	 SCS Same-Spin Scale       =       0.3333333333333333 [-]
	 SCS Opposite-Spin Scale   =       1.2000000000000000 [-]
	 SCS Same-Spin Energy      =      -0.1440613700642369 [Eh]
	 SCS Opposite-Spin Energy  =      -1.6953861653345197 [Eh]
	 SCS Correlation Energy    =      -1.8394475353987565 [Eh]
	 SCS Total Energy          =    -387.5807594355284778 [Eh]
	-----------------------------------------------------------

  Dipole Moment: [D]
     X:     0.1578      Y:     0.0823      Z:     0.0666     Total:     0.1900

*** Psi4 exiting successfully. Buy a developer a beer!
