                               Psi4 1.4a3.dev225

  ==> Input File <==

--------------------------------------------------------------------------
#psi4
#
memory 32 gb

molecule  {
0 1
  C       -2.1229620    -0.0000010    -0.5285820
  C       -3.0262580     0.7522420     0.4138790
  C       -2.9609905    -0.7255236     0.4918937
  C       -0.6463130    -0.0000010    -0.3104390
  C        0.0658190     1.2029900    -0.2211540
  C        0.0658190    -1.2029910    -0.2211540
  C        1.4498120     1.2013260    -0.0471800
  C        1.4498130    -1.2013260    -0.0471800
  C        2.1649180     0.0000000     0.0407490
  C        3.6537450     0.0000010     0.2729580
  H       -2.4338460    -0.0000040    -1.5729350
  H       -3.8872420     1.2699250     0.0031310
  H       -2.5562430     1.2534570     1.2541040
  H       -2.5562430    -1.2534530     1.2541090
  H       -3.8872430    -1.2699240     0.0031370
  H       -0.4732260     2.1464250    -0.2897140
  H       -0.4732250    -2.1464270    -0.2897140
  H        1.9843610     2.1482350     0.0181390
  H        1.9843620    -2.1482350     0.0181390
  H        4.1207180    -0.8853500    -0.1681390
  H        4.1207180     0.8853520    -0.1681380
  H        3.8883030     0.0000000     1.3432050
units angstrom
no_reorient  #important for SAPT in psi4, default
symmetry c1  #important for SAPT in psi4, default
}

set PROPERTIES_ORIGIN ["COM"]
properties('MP2/aug-cc-pvtz', properties = ['dipole'])
--------------------------------------------------------------------------

    Molecular point group: c1
  Charge       = 0
  Multiplicity = 1
  Basis Set: AUG-CC-PVTZ
    Blend: AUG-CC-PVTZ
  Basis Set: (AUG-CC-PVTZ AUX)
    Blend: AUG-CC-PVTZ-JKFIT

    Orbital Energies [Eh]
    ---------------------

    Doubly Occupied:

       1A    -11.237687     2A    -11.233269     3A    -11.232539
       4A    -11.228944     5A    -11.228395     6A    -11.227375
       7A    -11.226993     8A    -11.225876     9A    -11.224684
      10A    -11.222343    11A     -1.165738    12A     -1.132285
      13A     -1.039101    14A     -1.006520    15A     -0.936598
      16A     -0.835193    17A     -0.832960    18A     -0.809551
      19A     -0.767362    20A     -0.688878    21A     -0.647884
      22A     -0.633211    23A     -0.628896    24A     -0.605254
      25A     -0.576793    26A     -0.573001    27A     -0.538202
      28A     -0.528661    29A     -0.508869    30A     -0.487628
      31A     -0.483071    32A     -0.475693    33A     -0.430023
      34A     -0.406781    35A     -0.331323    36A     -0.312304

  @DF-RHF Final Energy:  -385.75666629327520

   => Energetics <=

    Nuclear Repulsion Energy =            483.2953634130988121
    One-Electron Energy =               -1478.7642909551013872
    Two-Electron Energy =                 609.7122612487273727
    Total Energy =                       -385.7566662932752024
  Basis Set: (AUG-CC-PVTZ AUX)
    Blend: AUG-CC-PVTZ-RI
    Molecular point group: c1

    Geometry (in Angstrom), charge = 0, multiplicity = 1:

       Center              X                  Y                   Z               Mass
    ------------   -----------------  -----------------  -----------------  -----------------
         C           -2.130159176288    -0.002428044753    -0.525113324360    12.000000000000
         C           -3.033455176288     0.749814955247     0.417347675640    12.000000000000
         C           -2.968187676288    -0.727950644753     0.495362375640    12.000000000000
         C           -0.653510176288    -0.002428044753    -0.306970324360    12.000000000000
         C            0.058621823712     1.200562955247    -0.217685324360    12.000000000000
         C            0.058621823712    -1.205418044753    -0.217685324360    12.000000000000
         C            1.442614823712     1.198898955247    -0.043711324360    12.000000000000
         C            1.442615823712    -1.203753044753    -0.043711324360    12.000000000000
         C            2.157720823712    -0.002427044753     0.044217675640    12.000000000000
         C            3.646547823712    -0.002426044753     0.276426675640    12.000000000000
         H           -2.441043176288    -0.002431044753    -1.569466324360     1.007825032230
         H           -3.894439176288     1.267497955247     0.006599675640     1.007825032230
         H           -2.563440176288     1.251029955247     1.257572675640     1.007825032230
         H           -2.563440176288    -1.255880044753     1.257577675640     1.007825032230
         H           -3.894440176288    -1.272351044753     0.006605675640     1.007825032230
         H           -0.480423176288     2.143997955247    -0.286245324360     1.007825032230
         H           -0.480422176288    -2.148854044753    -0.286245324360     1.007825032230
         H            1.977163823712     2.145807955247     0.021607675640     1.007825032230
         H            1.977164823712    -2.150662044753     0.021607675640     1.007825032230
         H            4.113520823712    -0.887777044753    -0.164670324360     1.007825032230
         H            4.113520823712     0.882924955247    -0.164669324360     1.007825032230
         H            3.881105823712    -0.002427044753     1.346673675640     1.007825032230

  Basis Set: AUG-CC-PVTZ
    Blend: AUG-CC-PVTZ
  Basis Set: (AUG-CC-PVTZ AUX)
    Blend: AUG-CC-PVTZ-JKFIT
	 Reference Energy          =    -385.7566662932752024 [Eh]
	 Singles Energy            =      -0.0000000000000000 [Eh]
	 Same-Spin Energy          =      -0.4319354688347529 [Eh]
	 Opposite-Spin Energy      =      -1.4120698511278347 [Eh]
	 Correlation Energy        =      -1.8440053199625877 [Eh]
	 Total Energy              =    -387.6006716132378074 [Eh]

	 ================> DF-SCS-MP2 Energies <==================
	-----------------------------------------------------------
	 SCS Same-Spin Scale       =       0.3333333333333333 [-]
	 SCS Opposite-Spin Scale   =       1.2000000000000000 [-]
	 SCS Same-Spin Energy      =      -0.1439784896115843 [Eh]
	 SCS Opposite-Spin Energy  =      -1.6944838213534015 [Eh]
	 SCS Correlation Energy    =      -1.8384623109649858 [Eh]
	 SCS Total Energy          =    -387.5951286042401875 [Eh]
	-----------------------------------------------------------

  Dipole Moment: [D]
     X:     0.1327      Y:     0.0430      Z:     0.0571     Total:     0.1507

*** Psi4 exiting successfully. Buy a developer a beer!
