                               Psi4 1.4a3.dev225

  ==> Input File <==

--------------------------------------------------------------------------
#psi4
#
memory 32 gb

molecule  {
0 1
  C       -2.1229620    -0.0000010    -0.5285820
  C       -3.0262580     0.7522420     0.4138790
  C       -3.0262580    -0.7522400     0.4138820
  C       -0.6463130    -0.0000010    -0.3104390
  C        0.0658190     1.2029900    -0.2211540
  C        0.0658190    -1.2029910    -0.2211540
  C        1.4489062     1.1526463    -0.0472526
  C        1.4498130    -1.2013260    -0.0471800
  C        2.1649180     0.0000000     0.0407490
  C        3.6537450     0.0000010     0.2729580
  H       -2.4338460    -0.0000040    -1.5729350
  H       -3.8872420     1.2699250     0.0031310
  H       -2.5562430     1.2534570     1.2541040
  H       -2.5562430    -1.2534530     1.2541090
  H       -3.8872430    -1.2699240     0.0031370
  H       -0.4732260     2.1464250    -0.2897140
  H       -0.4732250    -2.1464270    -0.2897140
  H        1.9843610     2.1482350     0.0181390
  H        1.9843620    -2.1482350     0.0181390
  H        4.1207180    -0.8853500    -0.1681390
  H        4.1207180     0.8853520    -0.1681380
  H        3.8883030     0.0000000     1.3432050
units angstrom
no_reorient  #important for SAPT in psi4, default
symmetry c1  #important for SAPT in psi4, default
}

set PROPERTIES_ORIGIN ["COM"]
properties('MP2/aug-cc-pvtz', properties = ['dipole'])
--------------------------------------------------------------------------

    Molecular point group: c1
  Charge       = 0
  Multiplicity = 1
  Basis Set: AUG-CC-PVTZ
    Blend: AUG-CC-PVTZ
  Basis Set: (AUG-CC-PVTZ AUX)
    Blend: AUG-CC-PVTZ-JKFIT

    Orbital Energies [Eh]
    ---------------------

    Doubly Occupied:

       1A    -11.234372     2A    -11.233040     3A    -11.232962
       4A    -11.228803     5A    -11.228602     6A    -11.227546
       7A    -11.226541     8A    -11.224848     9A    -11.224187
      10A    -11.222723    11A     -1.165579    12A     -1.133201
      13A     -1.041383    14A     -1.005573    15A     -0.937809
      16A     -0.836317    17A     -0.832361    18A     -0.809135
      19A     -0.764216    20A     -0.686545    21A     -0.653244
      22A     -0.636248    23A     -0.624222    24A     -0.597681
      25A     -0.574288    26A     -0.572850    27A     -0.536564
      28A     -0.530946    29A     -0.512480    30A     -0.492411
      31A     -0.485120    32A     -0.472947    33A     -0.424905
      34A     -0.412408    35A     -0.331226    36A     -0.315631

  @DF-RHF Final Energy:  -385.76678462688608

   => Energetics <=

    Nuclear Repulsion Energy =            483.4099715717634353
    One-Electron Energy =               -1479.0156849426957706
    Two-Electron Energy =                 609.8389287440462567
    Total Energy =                       -385.7667846268860785
  Basis Set: (AUG-CC-PVTZ AUX)
    Blend: AUG-CC-PVTZ-RI
    Molecular point group: c1

    Geometry (in Angstrom), charge = 0, multiplicity = 1:

       Center              X                  Y                   Z               Mass
    ------------   -----------------  -----------------  -----------------  -----------------
         C           -2.124147698107     0.004421273780    -0.518019797731    12.000000000000
         C           -3.027443698107     0.756664273780     0.424441202269    12.000000000000
         C           -3.027443698107    -0.747817726220     0.424444202269    12.000000000000
         C           -0.647498698107     0.004421273780    -0.299876797731    12.000000000000
         C            0.064633301893     1.207412273780    -0.210591797731    12.000000000000
         C            0.064633301893    -1.198568726220    -0.210591797731    12.000000000000
         C            1.447720501893     1.157068573780    -0.036690397731    12.000000000000
         C            1.448627301893    -1.196903726220    -0.036617797731    12.000000000000
         C            2.163732301893     0.004422273780     0.051311202269    12.000000000000
         C            3.652559301893     0.004423273780     0.283520202269    12.000000000000
         H           -2.435031698107     0.004418273780    -1.562372797731     1.007825032230
         H           -3.888427698107     1.274347273780     0.013693202269     1.007825032230
         H           -2.557428698107     1.257879273780     1.264666202269     1.007825032230
         H           -2.557428698107    -1.249030726220     1.264671202269     1.007825032230
         H           -3.888428698107    -1.265501726220     0.013699202269     1.007825032230
         H           -0.474411698107     2.150847273780    -0.279151797731     1.007825032230
         H           -0.474410698107    -2.142004726220    -0.279151797731     1.007825032230
         H            1.983175301893     2.152657273780     0.028701202269     1.007825032230
         H            1.983176301893    -2.143812726220     0.028701202269     1.007825032230
         H            4.119532301893    -0.880927726220    -0.157576797731     1.007825032230
         H            4.119532301893     0.889774273780    -0.157575797731     1.007825032230
         H            3.887117301893     0.004422273780     1.353767202269     1.007825032230

  Basis Set: AUG-CC-PVTZ
    Blend: AUG-CC-PVTZ
  Basis Set: (AUG-CC-PVTZ AUX)
    Blend: AUG-CC-PVTZ-JKFIT
	 Reference Energy          =    -385.7667846268860785 [Eh]
	 Singles Energy            =      -0.0000000000000000 [Eh]
	 Same-Spin Energy          =      -0.4317933456899095 [Eh]
	 Opposite-Spin Energy      =      -1.4114735040338231 [Eh]
	 Correlation Energy        =      -1.8432668497237326 [Eh]
	 Total Energy              =    -387.6100514766097831 [Eh]

	 ================> DF-SCS-MP2 Energies <==================
	-----------------------------------------------------------
	 SCS Same-Spin Scale       =       0.3333333333333333 [-]
	 SCS Opposite-Spin Scale   =       1.2000000000000000 [-]
	 SCS Same-Spin Energy      =      -0.1439311152299698 [Eh]
	 SCS Opposite-Spin Energy  =      -1.6937682048405878 [Eh]
	 SCS Correlation Energy    =      -1.8376993200705576 [Eh]
	 SCS Total Energy          =    -387.6044839469566341 [Eh]
	-----------------------------------------------------------

  Dipole Moment: [D]
     X:     0.0926      Y:    -0.0212      Z:     0.0232     Total:     0.0978

*** Psi4 exiting successfully. Buy a developer a beer!
