                               Psi4 1.4a3.dev225

  ==> Input File <==

--------------------------------------------------------------------------
#psi4
#
memory 32 gb

molecule  {
0 1
  C       -2.1229620    -0.0000010    -0.5285820
  C       -2.8959647     0.7937223     0.4924547
  C       -3.0262580    -0.7522400     0.4138820
  C       -0.6463130    -0.0000010    -0.3104390
  C        0.0658190     1.2029900    -0.2211540
  C        0.0658190    -1.2029910    -0.2211540
  C        1.4498120     1.2013260    -0.0471800
  C        1.4498130    -1.2013260    -0.0471800
  C        2.1649180     0.0000000     0.0407490
  C        3.6537450     0.0000010     0.2729580
  H       -2.4338460    -0.0000040    -1.5729350
  H       -3.8872420     1.2699250     0.0031310
  H       -2.5562430     1.2534570     1.2541040
  H       -2.5562430    -1.2534530     1.2541090
  H       -3.8872430    -1.2699240     0.0031370
  H       -0.4732260     2.1464250    -0.2897140
  H       -0.4732250    -2.1464270    -0.2897140
  H        1.9843610     2.1482350     0.0181390
  H        1.9843620    -2.1482350     0.0181390
  H        4.1207180    -0.8853500    -0.1681390
  H        4.1207180     0.8853520    -0.1681380
  H        3.8883030     0.0000000     1.3432050
units angstrom
no_reorient  #important for SAPT in psi4, default
symmetry c1  #important for SAPT in psi4, default
}

set PROPERTIES_ORIGIN ["COM"]
properties('MP2/aug-cc-pvtz', properties = ['dipole'])
--------------------------------------------------------------------------

    Molecular point group: c1
  Charge       = 0
  Multiplicity = 1
  Basis Set: AUG-CC-PVTZ
    Blend: AUG-CC-PVTZ
  Basis Set: (AUG-CC-PVTZ AUX)
    Blend: AUG-CC-PVTZ-JKFIT

    Orbital Energies [Eh]
    ---------------------

    Doubly Occupied:

       1A    -11.238003     2A    -11.237910     3A    -11.233222
       4A    -11.229410     5A    -11.228705     6A    -11.227841
       7A    -11.227359     8A    -11.227335     9A    -11.226659
      10A    -11.222584    11A     -1.162790    12A     -1.126721
      13A     -1.037516    14A     -1.006965    15A     -0.935844
      16A     -0.844174    17A     -0.832329    18A     -0.813923
      19A     -0.768531    20A     -0.689486    21A     -0.644765
      22A     -0.634308    23A     -0.629961    24A     -0.605351
      25A     -0.577177    26A     -0.573203    27A     -0.538929
      28A     -0.528755    29A     -0.515324    30A     -0.486574
      31A     -0.483113    32A     -0.476744    33A     -0.418025
      34A     -0.407844    35A     -0.331741    36A     -0.311860

  @DF-RHF Final Energy:  -385.73846146320409

   => Energetics <=

    Nuclear Repulsion Energy =            483.2368810304810722
    One-Electron Energy =               -1478.5887205657254526
    Two-Electron Energy =                 609.6133780720402910
    Total Energy =                       -385.7384614632040893
  Basis Set: (AUG-CC-PVTZ AUX)
    Blend: AUG-CC-PVTZ-RI
    Molecular point group: c1

    Geometry (in Angstrom), charge = 0, multiplicity = 1:

       Center              X                  Y                   Z               Mass
    ------------   -----------------  -----------------  -----------------  -----------------
         C           -2.136066410442    -0.003769263382    -0.525164560640    12.000000000000
         C           -2.909069110442     0.789954036618     0.495872139360    12.000000000000
         C           -3.039362410442    -0.756008263382     0.417299439360    12.000000000000
         C           -0.659417410442    -0.003769263382    -0.307021560640    12.000000000000
         C            0.052714589558     1.199221736618    -0.217736560640    12.000000000000
         C            0.052714589558    -1.206759263382    -0.217736560640    12.000000000000
         C            1.436707589558     1.197557736618    -0.043762560640    12.000000000000
         C            1.436708589558    -1.205094263382    -0.043762560640    12.000000000000
         C            2.151813589558    -0.003768263382     0.044166439360    12.000000000000
         C            3.640640589558    -0.003767263382     0.276375439360    12.000000000000
         H           -2.446950410442    -0.003772263382    -1.569517560640     1.007825032230
         H           -3.900346410442     1.266156736618     0.006548439360     1.007825032230
         H           -2.569347410442     1.249688736618     1.257521439360     1.007825032230
         H           -2.569347410442    -1.257221263382     1.257526439360     1.007825032230
         H           -3.900347410442    -1.273692263382     0.006554439360     1.007825032230
         H           -0.486330410442     2.142656736618    -0.286296560640     1.007825032230
         H           -0.486329410442    -2.150195263382    -0.286296560640     1.007825032230
         H            1.971256589558     2.144466736618     0.021556439360     1.007825032230
         H            1.971257589558    -2.152003263382     0.021556439360     1.007825032230
         H            4.107613589558    -0.889118263382    -0.164721560640     1.007825032230
         H            4.107613589558     0.881583736618    -0.164720560640     1.007825032230
         H            3.875198589558    -0.003768263382     1.346622439360     1.007825032230

  Basis Set: AUG-CC-PVTZ
    Blend: AUG-CC-PVTZ
  Basis Set: (AUG-CC-PVTZ AUX)
    Blend: AUG-CC-PVTZ-JKFIT
	 Reference Energy          =    -385.7384614632040893 [Eh]
	 Singles Energy            =      -0.0000000000000000 [Eh]
	 Same-Spin Energy          =      -0.4321181442142576 [Eh]
	 Opposite-Spin Energy      =      -1.4133848721538889 [Eh]
	 Correlation Energy        =      -1.8455030163681465 [Eh]
	 Total Energy              =    -387.5839644795722165 [Eh]

	 ================> DF-SCS-MP2 Energies <==================
	-----------------------------------------------------------
	 SCS Same-Spin Scale       =       0.3333333333333333 [-]
	 SCS Opposite-Spin Scale   =       1.2000000000000000 [-]
	 SCS Same-Spin Energy      =      -0.1440393814047525 [Eh]
	 SCS Opposite-Spin Energy  =      -1.6960618465846666 [Eh]
	 SCS Correlation Energy    =      -1.8401012279894191 [Eh]
	 SCS Total Energy          =    -387.5785626911934969 [Eh]
	-----------------------------------------------------------

  Dipole Moment: [D]
     X:     0.1864      Y:    -0.0893      Z:     0.0144     Total:     0.2072

*** Psi4 exiting successfully. Buy a developer a beer!
