                               Psi4 1.4a3.dev225

  ==> Input File <==

--------------------------------------------------------------------------
#psi4
#
memory 32 gb

molecule  {
0 1
  C       -2.1229620    -0.0000010    -0.5285820
  C       -3.0262580     0.7522420     0.4138790
  C       -3.0262580    -0.7522400     0.4138820
  C       -0.6463130    -0.0000010    -0.3104390
  C        0.0658190     1.2029900    -0.2211540
  C        0.0658190    -1.2029910    -0.2211540
  C        1.4498120     1.2013260    -0.0471800
  C        1.4498130    -1.2013260    -0.0471800
  C        2.1649180     0.0000000     0.0407490
  C        3.6537450     0.0000010     0.2729580
  H       -2.4338460    -0.0000040    -1.5729350
  H       -3.8872420     1.2699250     0.0031310
  H       -2.5562430     1.2534570     1.2541040
  H       -2.5562430    -1.2534530     1.2541090
  H       -3.8872430    -1.2699240     0.0031370
  H       -0.4732260     2.1464250    -0.2897140
  H       -0.4732250    -2.1464270    -0.2897140
  H        1.9843610     2.1482350     0.0181390
  H        1.9843620    -2.1482350     0.0181390
  H        4.1207180    -0.8853500    -0.1681390
  H        4.0780267     0.8044119    -0.1278124
  H        3.8883030     0.0000000     1.3432050
units angstrom
no_reorient  #important for SAPT in psi4, default
symmetry c1  #important for SAPT in psi4, default
}

set PROPERTIES_ORIGIN ["COM"]
properties('MP2/aug-cc-pvtz', properties = ['dipole'])
--------------------------------------------------------------------------

    Molecular point group: c1
  Charge       = 0
  Multiplicity = 1
  Basis Set: AUG-CC-PVTZ
    Blend: AUG-CC-PVTZ
  Basis Set: (AUG-CC-PVTZ AUX)
    Blend: AUG-CC-PVTZ-JKFIT

    Orbital Energies [Eh]
    ---------------------

    Doubly Occupied:

       1A    -11.237161     2A    -11.233822     3A    -11.232796
       4A    -11.228952     5A    -11.228665     6A    -11.227278
       7A    -11.226788     8A    -11.224495     9A    -11.223843
      10A    -11.210050    11A     -1.163181    12A     -1.130157
      13A     -1.041674    14A     -1.006448    15A     -0.943673
      16A     -0.834243    17A     -0.833353    18A     -0.808649
      19A     -0.766058    20A     -0.687241    21A     -0.652954
      22A     -0.636446    23A     -0.626557    24A     -0.599517
      25A     -0.578472    26A     -0.576520    27A     -0.548157
      28A     -0.528271    29A     -0.512194    30A     -0.489436
      31A     -0.484235    32A     -0.476095    33A     -0.424111
      34A     -0.412618    35A     -0.331229    36A     -0.312060

  @DF-RHF Final Energy:  -385.76355917430834

   => Energetics <=

    Nuclear Repulsion Energy =            483.0757893938299503
    One-Electron Energy =               -1478.3238960105022670
    Two-Electron Energy =                 609.4845474423640326
    Total Energy =                       -385.7635591743082841
  Basis Set: (AUG-CC-PVTZ AUX)
    Blend: AUG-CC-PVTZ-RI
    Molecular point group: c1

    Geometry (in Angstrom), charge = 0, multiplicity = 1:

       Center              X                  Y                   Z               Mass
    ------------   -----------------  -----------------  -----------------  -----------------
         C           -2.123904267027     0.000616533821    -0.518334061667    12.000000000000
         C           -3.027200267027     0.752859533821     0.424126938333    12.000000000000
         C           -3.027200267027    -0.751622466179     0.424129938333    12.000000000000
         C           -0.647255267027     0.000616533821    -0.300191061667    12.000000000000
         C            0.064876732973     1.203607533821    -0.210906061667    12.000000000000
         C            0.064876732973    -1.202373466179    -0.210906061667    12.000000000000
         C            1.448869732973     1.201943533821    -0.036932061667    12.000000000000
         C            1.448870732973    -1.200708466179    -0.036932061667    12.000000000000
         C            2.163975732973     0.000617533821     0.050996938333    12.000000000000
         C            3.652802732973     0.000618533821     0.283205938333    12.000000000000
         H           -2.434788267027     0.000613533821    -1.562687061667     1.007825032230
         H           -3.888184267027     1.270542533821     0.013378938333     1.007825032230
         H           -2.557185267027     1.254074533821     1.264351938333     1.007825032230
         H           -2.557185267027    -1.252835466179     1.264356938333     1.007825032230
         H           -3.888185267027    -1.269306466179     0.013384938333     1.007825032230
         H           -0.474168267027     2.147042533821    -0.279466061667     1.007825032230
         H           -0.474167267027    -2.145809466179    -0.279466061667     1.007825032230
         H            1.983418732973     2.148852533821     0.028386938333     1.007825032230
         H            1.983419732973    -2.147617466179     0.028386938333     1.007825032230
         H            4.119775732973    -0.884732466179    -0.157891061667     1.007825032230
         H            4.077084432973     0.805029433821    -0.117564461667     1.007825032230
         H            3.887360732973     0.000617533821     1.353452938333     1.007825032230

  Basis Set: AUG-CC-PVTZ
    Blend: AUG-CC-PVTZ
  Basis Set: (AUG-CC-PVTZ AUX)
    Blend: AUG-CC-PVTZ-JKFIT
	 Reference Energy          =    -385.7635591743083410 [Eh]
	 Singles Energy            =      -0.0000000000000000 [Eh]
	 Same-Spin Energy          =      -0.4317201666044047 [Eh]
	 Opposite-Spin Energy      =      -1.4109801641569921 [Eh]
	 Correlation Energy        =      -1.8427003307613967 [Eh]
	 Total Energy              =    -387.6062595050697155 [Eh]

	 ================> DF-SCS-MP2 Energies <==================
	-----------------------------------------------------------
	 SCS Same-Spin Scale       =       0.3333333333333333 [-]
	 SCS Opposite-Spin Scale   =       1.2000000000000000 [-]
	 SCS Same-Spin Energy      =      -0.1439067222014682 [Eh]
	 SCS Opposite-Spin Energy  =      -1.6931761969883905 [Eh]
	 SCS Correlation Energy    =      -1.8370829191898588 [Eh]
	 SCS Total Energy          =    -387.6006420934982089 [Eh]
	-----------------------------------------------------------

  Dipole Moment: [D]
     X:     0.1593      Y:     0.0294      Z:     0.0192     Total:     0.1631

*** Psi4 exiting successfully. Buy a developer a beer!
