                               Psi4 1.4a3.dev225

  ==> Input File <==

--------------------------------------------------------------------------
#psi4
#
memory 32 gb

molecule  {
0 1
  C       -2.1229620    -0.0000010    -0.5285820
  C       -3.0262580     0.7522420     0.4138790
  C       -3.0262580    -0.7522400     0.4138820
  C       -0.6463130    -0.0000010    -0.3104390
  C        0.0658190     1.2029900    -0.2211540
  C        0.0658190    -1.2029910    -0.2211540
  C        1.4498120     1.2013260    -0.0471800
  C        1.4498130    -1.2013260    -0.0471800
  C        2.1973464     0.0000002    -0.1136037
  C        3.6537450     0.0000010     0.2729580
  H       -2.4338460    -0.0000040    -1.5729350
  H       -3.8872420     1.2699250     0.0031310
  H       -2.5562430     1.2534570     1.2541040
  H       -2.5562430    -1.2534530     1.2541090
  H       -3.8872430    -1.2699240     0.0031370
  H       -0.4732260     2.1464250    -0.2897140
  H       -0.4732250    -2.1464270    -0.2897140
  H        1.9843610     2.1482350     0.0181390
  H        1.9843620    -2.1482350     0.0181390
  H        4.1207180    -0.8853500    -0.1681390
  H        4.1207180     0.8853520    -0.1681380
  H        3.8883030     0.0000000     1.3432050
units angstrom
no_reorient  #important for SAPT in psi4, default
symmetry c1  #important for SAPT in psi4, default
}

set PROPERTIES_ORIGIN ["COM"]
properties('MP2/aug-cc-pvtz', properties = ['dipole'])
--------------------------------------------------------------------------

    Molecular point group: c1
  Charge       = 0
  Multiplicity = 1
  Basis Set: AUG-CC-PVTZ
    Blend: AUG-CC-PVTZ
  Basis Set: (AUG-CC-PVTZ AUX)
    Blend: AUG-CC-PVTZ-JKFIT

    Orbital Energies [Eh]
    ---------------------

    Doubly Occupied:

       1A    -11.240014     2A    -11.236442     3A    -11.233979
       4A    -11.231182     5A    -11.231093     6A    -11.228602
       7A    -11.228512     8A    -11.225380     9A    -11.224726
      10A    -11.222003    11A     -1.163220    12A     -1.128954
      13A     -1.038750    14A     -1.006217    15A     -0.935704
      16A     -0.833332    17A     -0.831596    18A     -0.808037
      19A     -0.765952    20A     -0.687406    21A     -0.653010
      22A     -0.632563    23A     -0.627135    24A     -0.599664
      25A     -0.575995    26A     -0.571771    27A     -0.537742
      28A     -0.526171    29A     -0.512951    30A     -0.494706
      31A     -0.480067    32A     -0.470860    33A     -0.424359
      34A     -0.413577    35A     -0.330571    36A     -0.312524

  @DF-RHF Final Energy:  -385.75902046035640

   => Energetics <=

    Nuclear Repulsion Energy =            482.0667398191151847
    One-Electron Energy =               -1476.3219859932744384
    Two-Electron Energy =                 608.4962257138029145
    Total Energy =                       -385.7590204603563961
  Basis Set: (AUG-CC-PVTZ AUX)
    Blend: AUG-CC-PVTZ-RI
    Molecular point group: c1

    Geometry (in Angstrom), charge = 0, multiplicity = 1:

       Center              X                  Y                   Z               Mass
    ------------   -----------------  -----------------  -----------------  -----------------
         C           -2.127175925745    -0.000001025799    -0.504004304248    12.000000000000
         C           -3.030471925745     0.752241974201     0.438456695752    12.000000000000
         C           -3.030471925745    -0.752240025799     0.438459695752    12.000000000000
         C           -0.650526925745    -0.000001025799    -0.285861304248    12.000000000000
         C            0.061605074255     1.202989974201    -0.196576304248    12.000000000000
         C            0.061605074255    -1.202991025799    -0.196576304248    12.000000000000
         C            1.445598074255     1.201325974201    -0.022602304248    12.000000000000
         C            1.445599074255    -1.201326025799    -0.022602304248    12.000000000000
         C            2.193132474255     0.000000174201    -0.089026004248    12.000000000000
         C            3.649531074255     0.000000974201     0.297535695752    12.000000000000
         H           -2.438059925745    -0.000004025799    -1.548357304248     1.007825032230
         H           -3.891455925745     1.269924974201     0.027708695752     1.007825032230
         H           -2.560456925745     1.253456974201     1.278681695752     1.007825032230
         H           -2.560456925745    -1.253453025799     1.278686695752     1.007825032230
         H           -3.891456925745    -1.269924025799     0.027714695752     1.007825032230
         H           -0.477439925745     2.146424974201    -0.265136304248     1.007825032230
         H           -0.477438925745    -2.146427025799    -0.265136304248     1.007825032230
         H            1.980147074255     2.148234974201     0.042716695752     1.007825032230
         H            1.980148074255    -2.148235025799     0.042716695752     1.007825032230
         H            4.116504074255    -0.885350025799    -0.143561304248     1.007825032230
         H            4.116504074255     0.885351974201    -0.143560304248     1.007825032230
         H            3.884089074255    -0.000000025799     1.367782695752     1.007825032230

  Basis Set: AUG-CC-PVTZ
    Blend: AUG-CC-PVTZ
  Basis Set: (AUG-CC-PVTZ AUX)
    Blend: AUG-CC-PVTZ-JKFIT
	 Reference Energy          =    -385.7590204603563961 [Eh]
	 Singles Energy            =      -0.0000000000000000 [Eh]
	 Same-Spin Energy          =      -0.4322285997847708 [Eh]
	 Opposite-Spin Energy      =      -1.4129812033928357 [Eh]
	 Correlation Energy        =      -1.8452098031776065 [Eh]
	 Total Energy              =    -387.6042302635340207 [Eh]

	 ================> DF-SCS-MP2 Energies <==================
	-----------------------------------------------------------
	 SCS Same-Spin Scale       =       0.3333333333333333 [-]
	 SCS Opposite-Spin Scale   =       1.2000000000000000 [-]
	 SCS Same-Spin Energy      =      -0.1440761999282569 [Eh]
	 SCS Opposite-Spin Energy  =      -1.6955774440714029 [Eh]
	 SCS Correlation Energy    =      -1.8396536439996598 [Eh]
	 SCS Total Energy          =    -387.5986741043560642 [Eh]
	-----------------------------------------------------------

  Dipole Moment: [D]
     X:    -0.0096      Y:    -0.0000      Z:     0.0942     Total:     0.0946

*** Psi4 exiting successfully. Buy a developer a beer!
