                               Psi4 1.4a3.dev225

  ==> Input File <==

--------------------------------------------------------------------------
#psi4
#
memory 32 gb

molecule  {
0 1
  C       -2.1229620    -0.0000010    -0.5285820
  C       -3.0262580     0.7522420     0.4138790
  C       -3.0262580    -0.7522400     0.4138820
  C       -0.6463130    -0.0000010    -0.3104390
  C        0.0658190     1.2029900    -0.2211540
  C        0.0658190    -1.2029910    -0.2211540
  C        1.4994215     1.2012664    -0.0409439
  C        1.4498130    -1.2013260    -0.0471800
  C        2.1649180     0.0000000     0.0407490
  C        3.6537450     0.0000010     0.2729580
  H       -2.4338460    -0.0000040    -1.5729350
  H       -3.8872420     1.2699250     0.0031310
  H       -2.5562430     1.2534570     1.2541040
  H       -2.5562430    -1.2534530     1.2541090
  H       -3.8872430    -1.2699240     0.0031370
  H       -0.4732260     2.1464250    -0.2897140
  H       -0.4732250    -2.1464270    -0.2897140
  H        1.9843610     2.1482350     0.0181390
  H        1.9843620    -2.1482350     0.0181390
  H        4.1207180    -0.8853500    -0.1681390
  H        4.1207180     0.8853520    -0.1681380
  H        3.8883030     0.0000000     1.3432050
units angstrom
no_reorient  #important for SAPT in psi4, default
symmetry c1  #important for SAPT in psi4, default
}

set PROPERTIES_ORIGIN ["COM"]
properties('MP2/aug-cc-pvtz', properties = ['dipole'])
--------------------------------------------------------------------------

    Molecular point group: c1
  Charge       = 0
  Multiplicity = 1
  Basis Set: AUG-CC-PVTZ
    Blend: AUG-CC-PVTZ
  Basis Set: (AUG-CC-PVTZ AUX)
    Blend: AUG-CC-PVTZ-JKFIT

    Orbital Energies [Eh]
    ---------------------

    Doubly Occupied:

       1A    -11.235558     2A    -11.234652     3A    -11.233555
       4A    -11.233085     5A    -11.230137     6A    -11.228165
       7A    -11.227715     8A    -11.224780     9A    -11.224120
      10A    -11.220927    11A     -1.162542    12A     -1.130208
      13A     -1.040821    14A     -1.001873    15A     -0.935628
      16A     -0.836685    17A     -0.830752    18A     -0.810625
      19A     -0.765216    20A     -0.686983    21A     -0.652012
      22A     -0.633061    23A     -0.629092    24A     -0.601264
      25A     -0.576449    26A     -0.572921    27A     -0.537393
      28A     -0.527359    29A     -0.512355    30A     -0.490763
      31A     -0.486879    32A     -0.471604    33A     -0.424346
      34A     -0.413026    35A     -0.326749    36A     -0.315786

  @DF-RHF Final Energy:  -385.76639864791304

   => Energetics <=

    Nuclear Repulsion Energy =            482.2337460755321672
    One-Electron Energy =               -1476.6701115727780689
    Two-Electron Energy =                 608.6699668493329227
    Total Energy =                       -385.7663986479129790
  Basis Set: (AUG-CC-PVTZ AUX)
    Blend: AUG-CC-PVTZ-RI
    Molecular point group: c1

    Geometry (in Angstrom), charge = 0, multiplicity = 1:

       Center              X                  Y                   Z               Mass
    ------------   -----------------  -----------------  -----------------  -----------------
         C           -2.128736733620     0.000004406701    -0.518592908221    12.000000000000
         C           -3.032032733620     0.752247406701     0.423868091779    12.000000000000
         C           -3.032032733620    -0.752234593299     0.423871091779    12.000000000000
         C           -0.652087733620     0.000004406701    -0.300449908221    12.000000000000
         C            0.060044266380     1.202995406701    -0.211164908221    12.000000000000
         C            0.060044266380    -1.202985593299    -0.211164908221    12.000000000000
         C            1.493646766380     1.201271806701    -0.030954808221    12.000000000000
         C            1.444038266380    -1.201320593299    -0.037190908221    12.000000000000
         C            2.159143266380     0.000005406701     0.050738091779    12.000000000000
         C            3.647970266380     0.000006406701     0.282947091779    12.000000000000
         H           -2.439620733620     0.000001406701    -1.562945908221     1.007825032230
         H           -3.893016733620     1.269930406701     0.013120091779     1.007825032230
         H           -2.562017733620     1.253462406701     1.264093091779     1.007825032230
         H           -2.562017733620    -1.253447593299     1.264098091779     1.007825032230
         H           -3.893017733620    -1.269918593299     0.013126091779     1.007825032230
         H           -0.479000733620     2.146430406701    -0.279724908221     1.007825032230
         H           -0.478999733620    -2.146421593299    -0.279724908221     1.007825032230
         H            1.978586266380     2.148240406701     0.028128091779     1.007825032230
         H            1.978587266380    -2.148229593299     0.028128091779     1.007825032230
         H            4.114943266380    -0.885344593299    -0.158149908221     1.007825032230
         H            4.114943266380     0.885357406701    -0.158148908221     1.007825032230
         H            3.882528266380     0.000005406701     1.353194091779     1.007825032230

  Basis Set: AUG-CC-PVTZ
    Blend: AUG-CC-PVTZ
  Basis Set: (AUG-CC-PVTZ AUX)
    Blend: AUG-CC-PVTZ-JKFIT
	 Reference Energy          =    -385.7663986479130358 [Eh]
	 Singles Energy            =      -0.0000000000000000 [Eh]
	 Same-Spin Energy          =      -0.4316343055417430 [Eh]
	 Opposite-Spin Energy      =      -1.4117531957578517 [Eh]
	 Correlation Energy        =      -1.8433875012995946 [Eh]
	 Total Energy              =    -387.6097861492126526 [Eh]

	 ================> DF-SCS-MP2 Energies <==================
	-----------------------------------------------------------
	 SCS Same-Spin Scale       =       0.3333333333333333 [-]
	 SCS Opposite-Spin Scale   =       1.2000000000000000 [-]
	 SCS Same-Spin Energy      =      -0.1438781018472476 [Eh]
	 SCS Opposite-Spin Energy  =      -1.6941038349094220 [Eh]
	 SCS Correlation Energy    =      -1.8379819367566697 [Eh]
	 SCS Total Energy          =    -387.6043805846696841 [Eh]
	-----------------------------------------------------------

  Dipole Moment: [D]
     X:     0.0839      Y:     0.0118      Z:     0.0258     Total:     0.0886

*** Psi4 exiting successfully. Buy a developer a beer!
