                               Psi4 1.4a3.dev225

  ==> Input File <==

--------------------------------------------------------------------------
#psi4
#
memory 32 gb

molecule  {
0 1
  C       -2.1229620    -0.0000010    -0.5285820
  C       -3.0262580     0.7522420     0.4138790
  C       -3.0262580    -0.7522400     0.4138820
  C       -0.6463130    -0.0000010    -0.3104390
  C        0.0658190     1.2029900    -0.2211540
  C        0.0658190    -1.2029910    -0.2211540
  C        1.4498120     1.2013260    -0.0471800
  C        1.4498130    -1.2013260    -0.0471800
  C        2.1610921    -0.0000000     0.0667680
  C        3.6537450     0.0000010     0.2729580
  H       -2.4338460    -0.0000040    -1.5729350
  H       -3.8872420     1.2699250     0.0031310
  H       -2.5562430     1.2534570     1.2541040
  H       -2.5562430    -1.2534530     1.2541090
  H       -3.8872430    -1.2699240     0.0031370
  H       -0.4732260     2.1464250    -0.2897140
  H       -0.4732250    -2.1464270    -0.2897140
  H        1.9843610     2.1482350     0.0181390
  H        1.9843620    -2.1482350     0.0181390
  H        4.1207180    -0.8853500    -0.1681390
  H        4.1207180     0.8853520    -0.1681380
  H        3.8883030     0.0000000     1.3432050
units angstrom
no_reorient  #important for SAPT in psi4, default
symmetry c1  #important for SAPT in psi4, default
}

set PROPERTIES_ORIGIN ["COM"]
properties('MP2/aug-cc-pvtz', properties = ['dipole'])
--------------------------------------------------------------------------

    Molecular point group: c1
  Charge       = 0
  Multiplicity = 1
  Basis Set: AUG-CC-PVTZ
    Blend: AUG-CC-PVTZ
  Basis Set: (AUG-CC-PVTZ AUX)
    Blend: AUG-CC-PVTZ-JKFIT

    Orbital Energies [Eh]
    ---------------------

    Doubly Occupied:

       1A    -11.238010     2A    -11.233997     3A    -11.232932
       4A    -11.229127     5A    -11.228966     6A    -11.227409
       7A    -11.227341     8A    -11.224617     9A    -11.223965
      10A    -11.222489    11A     -1.163339    12A     -1.130147
      13A     -1.039129    14A     -1.006717    15A     -0.936685
      16A     -0.833919    17A     -0.831689    18A     -0.808741
      19A     -0.765777    20A     -0.686945    21A     -0.652453
      22A     -0.633659    23A     -0.626450    24A     -0.599280
      25A     -0.577043    26A     -0.573326    27A     -0.538516
      28A     -0.528695    29A     -0.512276    30A     -0.488691
      31A     -0.483818    32A     -0.476879    33A     -0.424207
      34A     -0.412751    35A     -0.331437    36A     -0.312129

  @DF-RHF Final Energy:  -385.76941075331405

   => Energetics <=

    Nuclear Repulsion Energy =            482.6353238158815202
    One-Electron Energy =               -1477.4823717299566397
    Two-Electron Energy =                 609.0776371607610145
    Total Energy =                       -385.7694107533141050
  Basis Set: (AUG-CC-PVTZ AUX)
    Blend: AUG-CC-PVTZ-RI
    Molecular point group: c1

    Geometry (in Angstrom), charge = 0, multiplicity = 1:

       Center              X                  Y                   Z               Mass
    ------------   -----------------  -----------------  -----------------  -----------------
         C           -2.123882423178    -0.000001007630    -0.520390075231    12.000000000000
         C           -3.027178423178     0.752241992370     0.422070924769    12.000000000000
         C           -3.027178423178    -0.752240007630     0.422073924769    12.000000000000
         C           -0.647233423178    -0.000001007630    -0.302247075231    12.000000000000
         C            0.064898576822     1.202989992370    -0.212962075231    12.000000000000
         C            0.064898576822    -1.202991007630    -0.212962075231    12.000000000000
         C            1.448891576822     1.201325992370    -0.038988075231    12.000000000000
         C            1.448892576822    -1.201326007630    -0.038988075231    12.000000000000
         C            2.160171676822    -0.000000007630     0.074959924769    12.000000000000
         C            3.652824576822     0.000000992370     0.281149924769    12.000000000000
         H           -2.434766423178    -0.000004007630    -1.564743075231     1.007825032230
         H           -3.888162423178     1.269924992370     0.011322924769     1.007825032230
         H           -2.557163423178     1.253456992370     1.262295924769     1.007825032230
         H           -2.557163423178    -1.253453007630     1.262300924769     1.007825032230
         H           -3.888163423178    -1.269924007630     0.011328924769     1.007825032230
         H           -0.474146423178     2.146424992370    -0.281522075231     1.007825032230
         H           -0.474145423178    -2.146427007630    -0.281522075231     1.007825032230
         H            1.983440576822     2.148234992370     0.026330924769     1.007825032230
         H            1.983441576822    -2.148235007630     0.026330924769     1.007825032230
         H            4.119797576822    -0.885350007630    -0.159947075231     1.007825032230
         H            4.119797576822     0.885351992370    -0.159946075231     1.007825032230
         H            3.887382576822    -0.000000007630     1.351396924769     1.007825032230

  Basis Set: AUG-CC-PVTZ
    Blend: AUG-CC-PVTZ
  Basis Set: (AUG-CC-PVTZ AUX)
    Blend: AUG-CC-PVTZ-JKFIT
	 Reference Energy          =    -385.7694107533140482 [Eh]
	 Singles Energy            =      -0.0000000000000000 [Eh]
	 Same-Spin Energy          =      -0.4317130382827609 [Eh]
	 Opposite-Spin Energy      =      -1.4114900427211301 [Eh]
	 Correlation Energy        =      -1.8432030810038911 [Eh]
	 Total Energy              =    -387.6126138343179264 [Eh]

	 ================> DF-SCS-MP2 Energies <==================
	-----------------------------------------------------------
	 SCS Same-Spin Scale       =       0.3333333333333333 [-]
	 SCS Opposite-Spin Scale   =       1.2000000000000000 [-]
	 SCS Same-Spin Energy      =      -0.1439043460942536 [Eh]
	 SCS Opposite-Spin Energy  =      -1.6937880512653560 [Eh]
	 SCS Correlation Energy    =      -1.8376923973596098 [Eh]
	 SCS Total Energy          =    -387.6071031506736517 [Eh]
	-----------------------------------------------------------

  Dipole Moment: [D]
     X:     0.1251      Y:    -0.0000      Z:     0.0180     Total:     0.1264

*** Psi4 exiting successfully. Buy a developer a beer!
