                               Psi4 1.4a3.dev225

  ==> Input File <==

--------------------------------------------------------------------------
#psi4
#
memory 32 gb

molecule  {
0 1
  C       -2.1195641     0.1041138    -0.5267025
  C       -3.0262580     0.7522420     0.4138790
  C       -3.0262580    -0.7522400     0.4138820
  C       -0.6463130    -0.0000010    -0.3104390
  C        0.0658190     1.2029900    -0.2211540
  C        0.0658190    -1.2029910    -0.2211540
  C        1.4498120     1.2013260    -0.0471800
  C        1.4498130    -1.2013260    -0.0471800
  C        2.1649180     0.0000000     0.0407490
  C        3.6537450     0.0000010     0.2729580
  H       -2.4338460    -0.0000040    -1.5729350
  H       -3.8872420     1.2699250     0.0031310
  H       -2.5562430     1.2534570     1.2541040
  H       -2.5562430    -1.2534530     1.2541090
  H       -3.8872430    -1.2699240     0.0031370
  H       -0.4732260     2.1464250    -0.2897140
  H       -0.4732250    -2.1464270    -0.2897140
  H        1.9843610     2.1482350     0.0181390
  H        1.9843620    -2.1482350     0.0181390
  H        4.1207180    -0.8853500    -0.1681390
  H        4.1207180     0.8853520    -0.1681380
  H        3.8883030     0.0000000     1.3432050
units angstrom
no_reorient  #important for SAPT in psi4, default
symmetry c1  #important for SAPT in psi4, default
}

set PROPERTIES_ORIGIN ["COM"]
properties('MP2/aug-cc-pvtz', properties = ['dipole'])
--------------------------------------------------------------------------

    Molecular point group: c1
  Charge       = 0
  Multiplicity = 1
  Basis Set: AUG-CC-PVTZ
    Blend: AUG-CC-PVTZ
  Basis Set: (AUG-CC-PVTZ AUX)
    Blend: AUG-CC-PVTZ-JKFIT

    Orbital Energies [Eh]
    ---------------------

    Doubly Occupied:

       1A    -11.238045     2A    -11.235242     3A    -11.234421
       4A    -11.230552     5A    -11.228250     6A    -11.228080
       7A    -11.226810     8A    -11.226795     9A    -11.222543
      10A    -11.222306    11A     -1.163722    12A     -1.130341
      13A     -1.039403    14A     -1.006944    15A     -0.936895
      16A     -0.836402    17A     -0.829515    18A     -0.809270
      19A     -0.765410    20A     -0.686895    21A     -0.652343
      22A     -0.634132    23A     -0.626315    24A     -0.598857
      25A     -0.577202    26A     -0.573239    27A     -0.538776
      28A     -0.527709    29A     -0.512293    30A     -0.490535
      31A     -0.483778    32A     -0.475472    33A     -0.442335
      34A     -0.393939    35A     -0.331655    36A     -0.311858

  @DF-RHF Final Energy:  -385.76343214105140

   => Energetics <=

    Nuclear Repulsion Energy =            482.5978419758417317
    One-Electron Energy =               -1477.3859872238554090
    Two-Electron Energy =                 609.0247131069622810
    Total Energy =                       -385.7634321410514531
  Basis Set: (AUG-CC-PVTZ AUX)
    Blend: AUG-CC-PVTZ-RI
    Molecular point group: c1

    Geometry (in Angstrom), charge = 0, multiplicity = 1:

       Center              X                  Y                   Z               Mass
    ------------   -----------------  -----------------  -----------------  -----------------
         C           -2.121140765440     0.094655538838    -0.516317635215    12.000000000000
         C           -3.027834665440     0.742783738838     0.424263864785    12.000000000000
         C           -3.027834665440    -0.761698261162     0.424266864785    12.000000000000
         C           -0.647889665440    -0.009459261162    -0.300054135215    12.000000000000
         C            0.064242334560     1.193531738838    -0.210769135215    12.000000000000
         C            0.064242334560    -1.212449261162    -0.210769135215    12.000000000000
         C            1.448235334560     1.191867738838    -0.036795135215    12.000000000000
         C            1.448236334560    -1.210784261162    -0.036795135215    12.000000000000
         C            2.163341334560    -0.009458261162     0.051133864785    12.000000000000
         C            3.652168334560    -0.009457261162     0.283342864785    12.000000000000
         H           -2.435422665440    -0.009462261162    -1.562550135215     1.007825032230
         H           -3.888818665440     1.260466738838     0.013515864785     1.007825032230
         H           -2.557819665440     1.243998738838     1.264488864785     1.007825032230
         H           -2.557819665440    -1.262911261162     1.264493864785     1.007825032230
         H           -3.888819665440    -1.279382261162     0.013521864785     1.007825032230
         H           -0.474802665440     2.136966738838    -0.279329135215     1.007825032230
         H           -0.474801665440    -2.155885261162    -0.279329135215     1.007825032230
         H            1.982784334560     2.138776738838     0.028523864785     1.007825032230
         H            1.982785334560    -2.157693261162     0.028523864785     1.007825032230
         H            4.119141334560    -0.894808261162    -0.157754135215     1.007825032230
         H            4.119141334560     0.875893738838    -0.157753135215     1.007825032230
         H            3.886726334560    -0.009458261162     1.353589864785     1.007825032230

  Basis Set: AUG-CC-PVTZ
    Blend: AUG-CC-PVTZ
  Basis Set: (AUG-CC-PVTZ AUX)
    Blend: AUG-CC-PVTZ-JKFIT
	 Reference Energy          =    -385.7634321410513962 [Eh]
	 Singles Energy            =      -0.0000000000000000 [Eh]
	 Same-Spin Energy          =      -0.4320717757820107 [Eh]
	 Opposite-Spin Energy      =      -1.4122399033462183 [Eh]
	 Correlation Energy        =      -1.8443116791282290 [Eh]
	 Total Energy              =    -387.6077438201796213 [Eh]

	 ================> DF-SCS-MP2 Energies <==================
	-----------------------------------------------------------
	 SCS Same-Spin Scale       =       0.3333333333333333 [-]
	 SCS Opposite-Spin Scale   =       1.2000000000000000 [-]
	 SCS Same-Spin Energy      =      -0.1440239252606702 [Eh]
	 SCS Opposite-Spin Energy  =      -1.6946878840154620 [Eh]
	 SCS Correlation Energy    =      -1.8387118092761323 [Eh]
	 SCS Total Energy          =    -387.6021439503275019 [Eh]
	-----------------------------------------------------------

  Dipole Moment: [D]
     X:     0.1281      Y:     0.0655      Z:     0.0316     Total:     0.1473

*** Psi4 exiting successfully. Buy a developer a beer!
