                               Psi4 1.4a3.dev225

  ==> Input File <==

--------------------------------------------------------------------------
#psi4
#
memory 32 gb

molecule  {
0 1
  C       -2.1229620    -0.0000010    -0.5285820
  C       -3.0262580     0.7522420     0.4138790
  C       -3.0518912    -0.7513236     0.3680586
  C       -0.6463130    -0.0000010    -0.3104390
  C        0.0658190     1.2029900    -0.2211540
  C        0.0658190    -1.2029910    -0.2211540
  C        1.4498120     1.2013260    -0.0471800
  C        1.4498130    -1.2013260    -0.0471800
  C        2.1649180     0.0000000     0.0407490
  C        3.6537450     0.0000010     0.2729580
  H       -2.4338460    -0.0000040    -1.5729350
  H       -3.8872420     1.2699250     0.0031310
  H       -2.5562430     1.2534570     1.2541040
  H       -2.5562430    -1.2534530     1.2541090
  H       -3.8872430    -1.2699240     0.0031370
  H       -0.4732260     2.1464250    -0.2897140
  H       -0.4732250    -2.1464270    -0.2897140
  H        1.9843610     2.1482350     0.0181390
  H        1.9843620    -2.1482350     0.0181390
  H        4.1207180    -0.8853500    -0.1681390
  H        4.1207180     0.8853520    -0.1681380
  H        3.8883030     0.0000000     1.3432050
units angstrom
no_reorient  #important for SAPT in psi4, default
symmetry c1  #important for SAPT in psi4, default
}

set PROPERTIES_ORIGIN ["COM"]
properties('MP2/aug-cc-pvtz', properties = ['dipole'])
--------------------------------------------------------------------------

    Molecular point group: c1
  Charge       = 0
  Multiplicity = 1
  Basis Set: AUG-CC-PVTZ
    Blend: AUG-CC-PVTZ
  Basis Set: (AUG-CC-PVTZ AUX)
    Blend: AUG-CC-PVTZ-JKFIT

    Orbital Energies [Eh]
    ---------------------

    Doubly Occupied:

       1A    -11.238124     2A    -11.234711     3A    -11.232995
       4A    -11.229532     5A    -11.229268     6A    -11.227696
       7A    -11.227533     8A    -11.224900     9A    -11.223749
      10A    -11.222566    11A     -1.164324    12A     -1.131461
      13A     -1.039641    14A     -1.006940    15A     -0.936951
      16A     -0.834119    17A     -0.831715    18A     -0.809297
      19A     -0.765618    20A     -0.685817    21A     -0.657847
      22A     -0.634068    23A     -0.626917    24A     -0.597068
      25A     -0.577237    26A     -0.573263    27A     -0.538771
      28A     -0.527521    29A     -0.509193    30A     -0.489815
      31A     -0.483973    32A     -0.476273    33A     -0.423701
      34A     -0.414721    35A     -0.331649    36A     -0.312439

  @DF-RHF Final Energy:  -385.76633424701208

   => Energetics <=

    Nuclear Repulsion Energy =            482.5754110167624162
    One-Electron Energy =               -1477.3406652531380132
    Two-Electron Energy =                 608.9989199893634577
    Total Energy =                       -385.7663342470120824
  Basis Set: (AUG-CC-PVTZ AUX)
    Blend: AUG-CC-PVTZ-RI
    Molecular point group: c1

    Geometry (in Angstrom), charge = 0, multiplicity = 1:

       Center              X                  Y                   Z               Mass
    ------------   -----------------  -----------------  -----------------  -----------------
         C           -2.121901350629    -0.000084257499    -0.513863590681    12.000000000000
         C           -3.025197350629     0.752158742501     0.428597409319    12.000000000000
         C           -3.050830550629    -0.751406857499     0.382777009319    12.000000000000
         C           -0.645252350629    -0.000084257499    -0.295720590681    12.000000000000
         C            0.066879649371     1.202906742501    -0.206435590681    12.000000000000
         C            0.066879649371    -1.203074257499    -0.206435590681    12.000000000000
         C            1.450872649371     1.201242742501    -0.032461590681    12.000000000000
         C            1.450873649371    -1.201409257499    -0.032461590681    12.000000000000
         C            2.165978649371    -0.000083257499     0.055467409319    12.000000000000
         C            3.654805649371    -0.000082257499     0.287676409319    12.000000000000
         H           -2.432785350629    -0.000087257499    -1.558216590681     1.007825032230
         H           -3.886181350629     1.269841742501     0.017849409319     1.007825032230
         H           -2.555182350629     1.253373742501     1.268822409319     1.007825032230
         H           -2.555182350629    -1.253536257499     1.268827409319     1.007825032230
         H           -3.886182350629    -1.270007257499     0.017855409319     1.007825032230
         H           -0.472165350629     2.146341742501    -0.274995590681     1.007825032230
         H           -0.472164350629    -2.146510257499    -0.274995590681     1.007825032230
         H            1.985421649371     2.148151742501     0.032857409319     1.007825032230
         H            1.985422649371    -2.148318257499     0.032857409319     1.007825032230
         H            4.121778649371    -0.885433257499    -0.153420590681     1.007825032230
         H            4.121778649371     0.885268742501    -0.153419590681     1.007825032230
         H            3.889363649371    -0.000083257499     1.357923409319     1.007825032230

  Basis Set: AUG-CC-PVTZ
    Blend: AUG-CC-PVTZ
  Basis Set: (AUG-CC-PVTZ AUX)
    Blend: AUG-CC-PVTZ-JKFIT
	 Reference Energy          =    -385.7663342470120824 [Eh]
	 Singles Energy            =      -0.0000000000000000 [Eh]
	 Same-Spin Energy          =      -0.4317876890942919 [Eh]
	 Opposite-Spin Energy      =      -1.4115894196554946 [Eh]
	 Correlation Energy        =      -1.8433771087497863 [Eh]
	 Total Energy              =    -387.6097113557618741 [Eh]

	 ================> DF-SCS-MP2 Energies <==================
	-----------------------------------------------------------
	 SCS Same-Spin Scale       =       0.3333333333333333 [-]
	 SCS Opposite-Spin Scale   =       1.2000000000000000 [-]
	 SCS Same-Spin Energy      =      -0.1439292296980973 [Eh]
	 SCS Opposite-Spin Energy  =      -1.6939073035865935 [Eh]
	 SCS Correlation Energy    =      -1.8378365332846907 [Eh]
	 SCS Total Energy          =    -387.6041707802967835 [Eh]
	-----------------------------------------------------------

  Dipole Moment: [D]
     X:     0.1147      Y:    -0.0122      Z:     0.0139     Total:     0.1161

*** Psi4 exiting successfully. Buy a developer a beer!
