                               Psi4 1.4a3.dev225

  ==> Input File <==

--------------------------------------------------------------------------
#psi4
#
memory 32 gb

molecule  {
0 1
  C       -2.1229620    -0.0000010    -0.5285820
  C       -3.0262580     0.7522420     0.4138790
  C       -3.0262580    -0.7522400     0.4138820
  C       -0.6463130    -0.0000010    -0.3104390
  C        0.0658190     1.2029900    -0.2211540
  C        0.0658190    -1.2029910    -0.2211540
  C        1.4498120     1.2013260    -0.0471800
  C        1.4498130    -1.2013260    -0.0471800
  C        2.1649180     0.0000000     0.0407490
  C        3.8513559     0.0000011     0.3037789
  H       -2.4338460    -0.0000040    -1.5729350
  H       -3.8872420     1.2699250     0.0031310
  H       -2.5562430     1.2534570     1.2541040
  H       -2.5562430    -1.2534530     1.2541090
  H       -3.8872430    -1.2699240     0.0031370
  H       -0.4732260     2.1464250    -0.2897140
  H       -0.4732250    -2.1464270    -0.2897140
  H        1.9843610     2.1482350     0.0181390
  H        1.9843620    -2.1482350     0.0181390
  H        4.1207180    -0.8853500    -0.1681390
  H        4.1207180     0.8853520    -0.1681380
  H        3.8883030     0.0000000     1.3432050
units angstrom
no_reorient  #important for SAPT in psi4, default
symmetry c1  #important for SAPT in psi4, default
}

set PROPERTIES_ORIGIN ["COM"]
properties('MP2/aug-cc-pvtz', properties = ['dipole'])
--------------------------------------------------------------------------

    Molecular point group: c1
  Charge       = 0
  Multiplicity = 1
  Basis Set: AUG-CC-PVTZ
    Blend: AUG-CC-PVTZ
  Basis Set: (AUG-CC-PVTZ AUX)
    Blend: AUG-CC-PVTZ-JKFIT

    Orbital Energies [Eh]
    ---------------------

    Doubly Occupied:

       1A    -11.244161     2A    -11.233560     3A    -11.232594
       4A    -11.228729     5A    -11.228580     6A    -11.227325
       7A    -11.227270     8A    -11.224325     9A    -11.223673
      10A    -11.222278    11A     -1.161600    12A     -1.125718
      13A     -1.024255    14A     -1.005668    15A     -0.942509
      16A     -0.834511    17A     -0.832377    18A     -0.807027
      19A     -0.764673    20A     -0.685539    21A     -0.649289
      22A     -0.632381    23A     -0.618688    24A     -0.597761
      25A     -0.593539    26A     -0.578661    27A     -0.570022
      28A     -0.512085    29A     -0.510385    30A     -0.489520
      31A     -0.486041    32A     -0.443057    33A     -0.424498
      34A     -0.412416    35A     -0.330686    36A     -0.314353

  @DF-RHF Final Energy:  -385.74244208348836

   => Energetics <=

    Nuclear Repulsion Energy =            479.4593032690066252
    One-Electron Energy =               -1471.1239844713666116
    Two-Electron Energy =                 605.9222391188717438
    Total Energy =                       -385.7424420834882994
  Basis Set: (AUG-CC-PVTZ AUX)
    Blend: AUG-CC-PVTZ-RI
    Molecular point group: c1

    Geometry (in Angstrom), charge = 0, multiplicity = 1:

       Center              X                  Y                   Z               Mass
    ------------   -----------------  -----------------  -----------------  -----------------
         C           -2.142181841947    -0.000001016714    -0.520826301278    12.000000000000
         C           -3.045477841947     0.752241983286     0.421634698722    12.000000000000
         C           -3.045477841947    -0.752240016714     0.421637698722    12.000000000000
         C           -0.665532841947    -0.000001016714    -0.302683301278    12.000000000000
         C            0.046599158053     1.202989983286    -0.213398301278    12.000000000000
         C            0.046599158053    -1.202991016714    -0.213398301278    12.000000000000
         C            1.430592158053     1.201325983286    -0.039424301278    12.000000000000
         C            1.430593158053    -1.201326016714    -0.039424301278    12.000000000000
         C            2.145698158053    -0.000000016714     0.048504698722    12.000000000000
         C            3.832136058053     0.000001083286     0.311534598722    12.000000000000
         H           -2.453065841947    -0.000004016714    -1.565179301278     1.007825032230
         H           -3.906461841947     1.269924983286     0.010886698722     1.007825032230
         H           -2.575462841947     1.253456983286     1.261859698722     1.007825032230
         H           -2.575462841947    -1.253453016714     1.261864698722     1.007825032230
         H           -3.906462841947    -1.269924016714     0.010892698722     1.007825032230
         H           -0.492445841947     2.146424983286    -0.281958301278     1.007825032230
         H           -0.492444841947    -2.146427016714    -0.281958301278     1.007825032230
         H            1.965141158053     2.148234983286     0.025894698722     1.007825032230
         H            1.965142158053    -2.148235016714     0.025894698722     1.007825032230
         H            4.101498158053    -0.885350016714    -0.160383301278     1.007825032230
         H            4.101498158053     0.885351983286    -0.160382301278     1.007825032230
         H            3.869083158053    -0.000000016714     1.350960698722     1.007825032230

  Basis Set: AUG-CC-PVTZ
    Blend: AUG-CC-PVTZ
  Basis Set: (AUG-CC-PVTZ AUX)
    Blend: AUG-CC-PVTZ-JKFIT
	 Reference Energy          =    -385.7424420834883563 [Eh]
	 Singles Energy            =      -0.0000000000000000 [Eh]
	 Same-Spin Energy          =      -0.4315326762563175 [Eh]
	 Opposite-Spin Energy      =      -1.4126369262284224 [Eh]
	 Correlation Energy        =      -1.8441696024847398 [Eh]
	 Total Energy              =    -387.5866116859730823 [Eh]

	 ================> DF-SCS-MP2 Energies <==================
	-----------------------------------------------------------
	 SCS Same-Spin Scale       =       0.3333333333333333 [-]
	 SCS Opposite-Spin Scale   =       1.2000000000000000 [-]
	 SCS Same-Spin Energy      =      -0.1438442254187725 [Eh]
	 SCS Opposite-Spin Energy  =      -1.6951643114741068 [Eh]
	 SCS Correlation Energy    =      -1.8390085368928792 [Eh]
	 SCS Total Energy          =    -387.5814506203812471 [Eh]
	-----------------------------------------------------------

  Dipole Moment: [D]
     X:     0.0414      Y:    -0.0000      Z:     0.0156     Total:     0.0443

*** Psi4 exiting successfully. Buy a developer a beer!
