                               Psi4 1.4a3.dev225

  ==> Input File <==

--------------------------------------------------------------------------
#psi4
#
memory 32 gb

molecule  {
0 1
  C       -2.1229620    -0.0000010    -0.5285820
  C       -3.0262580     0.7522420     0.4138790
  C       -3.0262580    -0.7522400     0.4138820
  C       -0.6463130    -0.0000010    -0.3104390
  C        0.0658190     1.2029900    -0.2211540
  C        0.0658190    -1.2029910    -0.2211540
  C        1.4696558     1.2013021    -0.0446855
  C        1.4498130    -1.2013260    -0.0471800
  C        2.1649180     0.0000000     0.0407490
  C        3.6537450     0.0000010     0.2729580
  H       -2.4338460    -0.0000040    -1.5729350
  H       -3.8872420     1.2699250     0.0031310
  H       -2.5562430     1.2534570     1.2541040
  H       -2.5562430    -1.2534530     1.2541090
  H       -3.8872430    -1.2699240     0.0031370
  H       -0.4732260     2.1464250    -0.2897140
  H       -0.4732250    -2.1464270    -0.2897140
  H        1.9843610     2.1482350     0.0181390
  H        1.9843620    -2.1482350     0.0181390
  H        4.1207180    -0.8853500    -0.1681390
  H        4.1207180     0.8853520    -0.1681380
  H        3.8883030     0.0000000     1.3432050
units angstrom
no_reorient  #important for SAPT in psi4, default
symmetry c1  #important for SAPT in psi4, default
}

set PROPERTIES_ORIGIN ["COM"]
properties('MP2/aug-cc-pvtz', properties = ['dipole'])
--------------------------------------------------------------------------

    Molecular point group: c1
  Charge       = 0
  Multiplicity = 1
  Basis Set: AUG-CC-PVTZ
    Blend: AUG-CC-PVTZ
  Basis Set: (AUG-CC-PVTZ AUX)
    Blend: AUG-CC-PVTZ-JKFIT

    Orbital Energies [Eh]
    ---------------------

    Doubly Occupied:

       1A    -11.236966     2A    -11.234226     3A    -11.233074
       4A    -11.230957     5A    -11.229490     6A    -11.227738
       7A    -11.227630     8A    -11.224706     9A    -11.224052
      10A    -11.221843    11A     -1.163000    12A     -1.130134
      13A     -1.039728    14A     -1.004740    15A     -0.936266
      16A     -0.835016    17A     -0.831360    18A     -0.809581
      19A     -0.765508    20A     -0.686979    21A     -0.652285
      22A     -0.633080    23A     -0.627598    24A     -0.600260
      25A     -0.576853    26A     -0.573046    27A     -0.537946
      28A     -0.528101    29A     -0.512331    30A     -0.488598
      31A     -0.486663    32A     -0.474516    33A     -0.424286
      34A     -0.412908    35A     -0.329375    36A     -0.313780

  @DF-RHF Final Energy:  -385.76899085076928

   => Energetics <=

    Nuclear Repulsion Energy =            482.4610576953507461
    One-Electron Energy =               -1477.1308603365753243
    Two-Electron Energy =                 608.9008117904552364
    Total Energy =                       -385.7689908507693417
  Basis Set: (AUG-CC-PVTZ AUX)
    Blend: AUG-CC-PVTZ-RI
    Molecular point group: c1

    Geometry (in Angstrom), charge = 0, multiplicity = 1:

       Center              X                  Y                   Z               Mass
    ------------   -----------------  -----------------  -----------------  -----------------
         C           -2.126032684463     0.000001163553    -0.518253004563    12.000000000000
         C           -3.029328684463     0.752244163553     0.424207995437    12.000000000000
         C           -3.029328684463    -0.752237836447     0.424210995437    12.000000000000
         C           -0.649383684463     0.000001163553    -0.300110004563    12.000000000000
         C            0.062748315537     1.202992163553    -0.210825004563    12.000000000000
         C            0.062748315537    -1.202988836447    -0.210825004563    12.000000000000
         C            1.466585115537     1.201304263553    -0.034356504563    12.000000000000
         C            1.446742315537    -1.201323836447    -0.036851004563    12.000000000000
         C            2.161847315537     0.000002163553     0.051077995437    12.000000000000
         C            3.650674315537     0.000003163553     0.283286995437    12.000000000000
         H           -2.436916684463    -0.000001836447    -1.562606004563     1.007825032230
         H           -3.890312684463     1.269927163553     0.013459995437     1.007825032230
         H           -2.559313684463     1.253459163553     1.264432995437     1.007825032230
         H           -2.559313684463    -1.253450836447     1.264437995437     1.007825032230
         H           -3.890313684463    -1.269921836447     0.013465995437     1.007825032230
         H           -0.476296684463     2.146427163553    -0.279385004563     1.007825032230
         H           -0.476295684463    -2.146424836447    -0.279385004563     1.007825032230
         H            1.981290315537     2.148237163553     0.028467995437     1.007825032230
         H            1.981291315537    -2.148232836447     0.028467995437     1.007825032230
         H            4.117647315537    -0.885347836447    -0.157810004563     1.007825032230
         H            4.117647315537     0.885354163553    -0.157809004563     1.007825032230
         H            3.885232315537     0.000002163553     1.353533995437     1.007825032230

  Basis Set: AUG-CC-PVTZ
    Blend: AUG-CC-PVTZ
  Basis Set: (AUG-CC-PVTZ AUX)
    Blend: AUG-CC-PVTZ-JKFIT
	 Reference Energy          =    -385.7689908507692849 [Eh]
	 Singles Energy            =      -0.0000000000000000 [Eh]
	 Same-Spin Energy          =      -0.4316878142012140 [Eh]
	 Opposite-Spin Energy      =      -1.4115599785218973 [Eh]
	 Correlation Energy        =      -1.8432477927231115 [Eh]
	 Total Energy              =    -387.6122386434923897 [Eh]

	 ================> DF-SCS-MP2 Energies <==================
	-----------------------------------------------------------
	 SCS Same-Spin Scale       =       0.3333333333333333 [-]
	 SCS Opposite-Spin Scale   =       1.2000000000000000 [-]
	 SCS Same-Spin Energy      =      -0.1438959380670713 [Eh]
	 SCS Opposite-Spin Energy  =      -1.6938719742262767 [Eh]
	 SCS Correlation Energy    =      -1.8377679122933479 [Eh]
	 SCS Total Energy          =    -387.6067587630626576 [Eh]
	-----------------------------------------------------------

  Dipole Moment: [D]
     X:     0.1031      Y:     0.0051      Z:     0.0279     Total:     0.1069

*** Psi4 exiting successfully. Buy a developer a beer!
