                               Psi4 1.4a3.dev225

  ==> Input File <==

--------------------------------------------------------------------------
#psi4
#
memory 32 gb

molecule  {
0 1
  C       -2.1229620    -0.0000010    -0.5285820
  C       -3.0262580     0.7522420     0.4138790
  C       -3.0262580    -0.7522400     0.4138820
  C       -0.6463130    -0.0000010    -0.3104390
  C        0.0658190     1.2029900    -0.2211540
  C        0.0658190    -1.2029910    -0.2211540
  C        1.4498120     1.2013260    -0.0471800
  C        1.4498130    -1.2013260    -0.0471800
  C        2.1649180     0.0000000     0.0407490
  C        3.6537450     0.0000010     0.2729580
  H       -2.4338460    -0.0000040    -1.5729350
  H       -3.8872420     1.2699250     0.0031310
  H       -2.5562430     1.2534570     1.2541040
  H       -2.5562430    -1.2534530     1.2541090
  H       -3.8872430    -1.2699240     0.0031370
  H       -0.4732260     2.1464250    -0.2897140
  H       -0.4732250    -2.1464270    -0.2897140
  H        1.9941752     2.1656201     0.0193382
  H        1.9843620    -2.1482350     0.0181390
  H        4.1207180    -0.8853500    -0.1681390
  H        4.1207180     0.8853520    -0.1681380
  H        3.8883030     0.0000000     1.3432050
units angstrom
no_reorient  #important for SAPT in psi4, default
symmetry c1  #important for SAPT in psi4, default
}

set PROPERTIES_ORIGIN ["COM"]
properties('MP2/aug-cc-pvtz', properties = ['dipole'])
--------------------------------------------------------------------------

    Molecular point group: c1
  Charge       = 0
  Multiplicity = 1
  Basis Set: AUG-CC-PVTZ
    Blend: AUG-CC-PVTZ
  Basis Set: (AUG-CC-PVTZ AUX)
    Blend: AUG-CC-PVTZ-JKFIT

    Orbital Energies [Eh]
    ---------------------

    Doubly Occupied:

       1A    -11.238148     2A    -11.234267     3A    -11.233088
       4A    -11.230324     5A    -11.229191     6A    -11.228740
       7A    -11.227576     8A    -11.224721     9A    -11.224069
      10A    -11.222441    11A     -1.163437    12A     -1.130159
      13A     -1.039172    14A     -1.006317    15A     -0.936557
      16A     -0.833548    17A     -0.831839    18A     -0.808425
      19A     -0.765200    20A     -0.686492    21A     -0.652515
      22A     -0.633863    23A     -0.625576    24A     -0.598578
      25A     -0.576062    26A     -0.573132    27A     -0.538007
      28A     -0.528542    29A     -0.512363    30A     -0.489844
      31A     -0.483196    32A     -0.476158    33A     -0.424315
      34A     -0.412841    35A     -0.331621    36A     -0.312392

  @DF-RHF Final Energy:  -385.76888753522258

   => Energetics <=

    Nuclear Repulsion Energy =            482.5179378651019988
    One-Electron Energy =               -1477.2482245816390787
    Two-Electron Energy =                 608.9613991813145049
    Total Energy =                       -385.7688875352225750
  Basis Set: (AUG-CC-PVTZ AUX)
    Blend: AUG-CC-PVTZ-RI
    Molecular point group: c1

    Geometry (in Angstrom), charge = 0, multiplicity = 1:

       Center              X                  Y                   Z               Mass
    ------------   -----------------  -----------------  -----------------  -----------------
         C           -2.124304863550    -0.000133649174    -0.518035542468    12.000000000000
         C           -3.027600863550     0.752109350826     0.424425457532    12.000000000000
         C           -3.027600863550    -0.752372649174     0.424428457532    12.000000000000
         C           -0.647655863550    -0.000133649174    -0.299892542468    12.000000000000
         C            0.064476136450     1.202857350826    -0.210607542468    12.000000000000
         C            0.064476136450    -1.203123649174    -0.210607542468    12.000000000000
         C            1.448469136450     1.201193350826    -0.036633542468    12.000000000000
         C            1.448470136450    -1.201458649174    -0.036633542468    12.000000000000
         C            2.163575136450    -0.000132649174     0.051295457532    12.000000000000
         C            3.652402136450    -0.000131649174     0.283504457532    12.000000000000
         H           -2.435188863550    -0.000136649174    -1.562388542468     1.007825032230
         H           -3.888584863550     1.269792350826     0.013677457532     1.007825032230
         H           -2.557585863550     1.253324350826     1.264650457532     1.007825032230
         H           -2.557585863550    -1.253585649174     1.264655457532     1.007825032230
         H           -3.888585863550    -1.270056649174     0.013683457532     1.007825032230
         H           -0.474568863550     2.146292350826    -0.279167542468     1.007825032230
         H           -0.474567863550    -2.146559649174    -0.279167542468     1.007825032230
         H            1.992832336450     2.165487450826     0.029884657532     1.007825032230
         H            1.983019136450    -2.148367649174     0.028685457532     1.007825032230
         H            4.119375136450    -0.885482649174    -0.157592542468     1.007825032230
         H            4.119375136450     0.885219350826    -0.157591542468     1.007825032230
         H            3.886960136450    -0.000132649174     1.353751457532     1.007825032230

  Basis Set: AUG-CC-PVTZ
    Blend: AUG-CC-PVTZ
  Basis Set: (AUG-CC-PVTZ AUX)
    Blend: AUG-CC-PVTZ-JKFIT
	 Reference Energy          =    -385.7688875352225750 [Eh]
	 Singles Energy            =      -0.0000000000000000 [Eh]
	 Same-Spin Energy          =      -0.4317563009072246 [Eh]
	 Opposite-Spin Energy      =      -1.4116487381885681 [Eh]
	 Correlation Energy        =      -1.8434050390957926 [Eh]
	 Total Energy              =    -387.6122925743183600 [Eh]

	 ================> DF-SCS-MP2 Energies <==================
	-----------------------------------------------------------
	 SCS Same-Spin Scale       =       0.3333333333333333 [-]
	 SCS Opposite-Spin Scale   =       1.2000000000000000 [-]
	 SCS Same-Spin Energy      =      -0.1439187669690749 [Eh]
	 SCS Opposite-Spin Energy  =      -1.6939784858262816 [Eh]
	 SCS Correlation Energy    =      -1.8378972527953565 [Eh]
	 SCS Total Energy          =    -387.6067847880179329 [Eh]
	-----------------------------------------------------------

  Dipole Moment: [D]
     X:     0.1086      Y:    -0.0082      Z:     0.0290     Total:     0.1127

*** Psi4 exiting successfully. Buy a developer a beer!
