                               Psi4 1.4a3.dev225

  ==> Input File <==

--------------------------------------------------------------------------
#psi4
#
memory 32 gb

molecule  {
0 1
  C       -2.1229620    -0.0000010    -0.5285820
  C       -3.0262580     0.7522420     0.4138790
  C       -3.0262580    -0.7522400     0.4138820
  C       -0.6463130    -0.0000010    -0.3104390
  C        0.0658190     1.2029900    -0.2211540
  C        0.0658190    -1.2029910    -0.2211540
  C        1.4495698     1.1769822    -0.0471898
  C        1.4498130    -1.2013260    -0.0471800
  C        2.1649180     0.0000000     0.0407490
  C        3.6537450     0.0000010     0.2729580
  H       -2.4338460    -0.0000040    -1.5729350
  H       -3.8872420     1.2699250     0.0031310
  H       -2.5562430     1.2534570     1.2541040
  H       -2.5562430    -1.2534530     1.2541090
  H       -3.8872430    -1.2699240     0.0031370
  H       -0.4732260     2.1464250    -0.2897140
  H       -0.4732250    -2.1464270    -0.2897140
  H        1.9843610     2.1482350     0.0181390
  H        1.9843620    -2.1482350     0.0181390
  H        4.1207180    -0.8853500    -0.1681390
  H        4.1207180     0.8853520    -0.1681380
  H        3.8883030     0.0000000     1.3432050
units angstrom
no_reorient  #important for SAPT in psi4, default
symmetry c1  #important for SAPT in psi4, default
}

set PROPERTIES_ORIGIN ["COM"]
properties('MP2/aug-cc-pvtz', properties = ['dipole'])
--------------------------------------------------------------------------

    Molecular point group: c1
  Charge       = 0
  Multiplicity = 1
  Basis Set: AUG-CC-PVTZ
    Blend: AUG-CC-PVTZ
  Basis Set: (AUG-CC-PVTZ AUX)
    Blend: AUG-CC-PVTZ-JKFIT

    Orbital Energies [Eh]
    ---------------------

    Doubly Occupied:

       1A    -11.235433     2A    -11.234226     3A    -11.233010
       4A    -11.228903     5A    -11.228749     6A    -11.227544
       7A    -11.226965     8A    -11.224746     9A    -11.224091
      10A    -11.222575    11A     -1.164392    12A     -1.131662
      13A     -1.040217    14A     -1.006143    15A     -0.937187
      16A     -0.834607    17A     -0.832453    18A     -0.808917
      19A     -0.765078    20A     -0.686711    21A     -0.652834
      22A     -0.634957    23A     -0.625181    24A     -0.598428
      25A     -0.575089    26A     -0.573615    27A     -0.537523
      28A     -0.529656    29A     -0.512388    30A     -0.490859
      31A     -0.484244    32A     -0.475290    33A     -0.424570
      34A     -0.412622    35A     -0.331257    36A     -0.313986

  @DF-RHF Final Energy:  -385.76894391275999

   => Energetics <=

    Nuclear Repulsion Energy =            483.0113397513363793
    One-Electron Energy =               -1478.2283557823943738
    Two-Electron Energy =                 609.4480721182978868
    Total Energy =                       -385.7689439127600508
  Basis Set: (AUG-CC-PVTZ AUX)
    Blend: AUG-CC-PVTZ-RI
    Molecular point group: c1

    Geometry (in Angstrom), charge = 0, multiplicity = 1:

       Center              X                  Y                   Z               Mass
    ------------   -----------------  -----------------  -----------------  -----------------
         C           -2.124207982495     0.002210491911    -0.518025502763    12.000000000000
         C           -3.027503982495     0.754453491911     0.424435497237    12.000000000000
         C           -3.027503982495    -0.750028508089     0.424438497237    12.000000000000
         C           -0.647558982495     0.002210491911    -0.299882502763    12.000000000000
         C            0.064573017505     1.205201491911    -0.210597502763    12.000000000000
         C            0.064573017505    -1.200779508089    -0.210597502763    12.000000000000
         C            1.448323817505     1.179193691911    -0.036633302763    12.000000000000
         C            1.448567017505    -1.199114508089    -0.036623502763    12.000000000000
         C            2.163672017505     0.002211491911     0.051305497237    12.000000000000
         C            3.652499017505     0.002212491911     0.283514497237    12.000000000000
         H           -2.435091982495     0.002207491911    -1.562378502763     1.007825032230
         H           -3.888487982495     1.272136491911     0.013687497237     1.007825032230
         H           -2.557488982495     1.255668491911     1.264660497237     1.007825032230
         H           -2.557488982495    -1.251241508089     1.264665497237     1.007825032230
         H           -3.888488982495    -1.267712508089     0.013693497237     1.007825032230
         H           -0.474471982495     2.148636491911    -0.279157502763     1.007825032230
         H           -0.474470982495    -2.144215508089    -0.279157502763     1.007825032230
         H            1.983115017505     2.150446491911     0.028695497237     1.007825032230
         H            1.983116017505    -2.146023508089     0.028695497237     1.007825032230
         H            4.119472017505    -0.883138508089    -0.157582502763     1.007825032230
         H            4.119472017505     0.887563491911    -0.157581502763     1.007825032230
         H            3.887057017505     0.002211491911     1.353761497237     1.007825032230

  Basis Set: AUG-CC-PVTZ
    Blend: AUG-CC-PVTZ
  Basis Set: (AUG-CC-PVTZ AUX)
    Blend: AUG-CC-PVTZ-JKFIT
	 Reference Energy          =    -385.7689439127599940 [Eh]
	 Singles Energy            =      -0.0000000000000000 [Eh]
	 Same-Spin Energy          =      -0.4317454598762804 [Eh]
	 Opposite-Spin Energy      =      -1.4114392228924419 [Eh]
	 Correlation Energy        =      -1.8431846827687224 [Eh]
	 Total Energy              =    -387.6121285955287021 [Eh]

	 ================> DF-SCS-MP2 Energies <==================
	-----------------------------------------------------------
	 SCS Same-Spin Scale       =       0.3333333333333333 [-]
	 SCS Opposite-Spin Scale   =       1.2000000000000000 [-]
	 SCS Same-Spin Energy      =      -0.1439151532920935 [Eh]
	 SCS Opposite-Spin Energy  =      -1.6937270674709304 [Eh]
	 SCS Correlation Energy    =      -1.8376422207630239 [Eh]
	 SCS Total Energy          =    -387.6065861335230238 [Eh]
	-----------------------------------------------------------

  Dipole Moment: [D]
     X:     0.1051      Y:    -0.0091      Z:     0.0263     Total:     0.1087

*** Psi4 exiting successfully. Buy a developer a beer!
