                               Psi4 1.4a3.dev225

  ==> Input File <==

--------------------------------------------------------------------------
#psi4
#
memory 32 gb

molecule  {
0 1
  C       -2.1229620    -0.0000010    -0.5285820
  C       -3.0262580     0.7522420     0.4138790
  C       -3.0418992    -0.7583512     0.3936463
  C       -0.6463130    -0.0000010    -0.3104390
  C        0.0658190     1.2029900    -0.2211540
  C        0.0658190    -1.2029910    -0.2211540
  C        1.4498120     1.2013260    -0.0471800
  C        1.4498130    -1.2013260    -0.0471800
  C        2.1649180     0.0000000     0.0407490
  C        3.6537450     0.0000010     0.2729580
  H       -2.4338460    -0.0000040    -1.5729350
  H       -3.8872420     1.2699250     0.0031310
  H       -2.5562430     1.2534570     1.2541040
  H       -2.5562430    -1.2534530     1.2541090
  H       -3.8872430    -1.2699240     0.0031370
  H       -0.4732260     2.1464250    -0.2897140
  H       -0.4732250    -2.1464270    -0.2897140
  H        1.9843610     2.1482350     0.0181390
  H        1.9843620    -2.1482350     0.0181390
  H        4.1207180    -0.8853500    -0.1681390
  H        4.1207180     0.8853520    -0.1681380
  H        3.8883030     0.0000000     1.3432050
units angstrom
no_reorient  #important for SAPT in psi4, default
symmetry c1  #important for SAPT in psi4, default
}

set PROPERTIES_ORIGIN ["COM"]
properties('MP2/aug-cc-pvtz', properties = ['dipole'])
--------------------------------------------------------------------------

    Molecular point group: c1
  Charge       = 0
  Multiplicity = 1
  Basis Set: AUG-CC-PVTZ
    Blend: AUG-CC-PVTZ
  Basis Set: (AUG-CC-PVTZ AUX)
    Blend: AUG-CC-PVTZ-JKFIT

    Orbital Energies [Eh]
    ---------------------

    Doubly Occupied:

       1A    -11.238031     2A    -11.234455     3A    -11.233371
       4A    -11.229357     5A    -11.229143     6A    -11.227588
       7A    -11.227470     8A    -11.224774     9A    -11.224129
      10A    -11.222518    11A     -1.162954    12A     -1.129663
      13A     -1.039199    14A     -1.006848    15A     -0.936747
      16A     -0.834253    17A     -0.831681    18A     -0.809389
      19A     -0.765612    20A     -0.686315    21A     -0.654646
      22A     -0.633935    23A     -0.626412    24A     -0.597746
      25A     -0.577148    26A     -0.573217    27A     -0.538634
      28A     -0.528223    29A     -0.512864    30A     -0.489697
      31A     -0.483822    32A     -0.476348    33A     -0.422326
      34A     -0.413898    35A     -0.331588    36A     -0.312303

  @DF-RHF Final Energy:  -385.76871807878445

   => Energetics <=

    Nuclear Repulsion Energy =            482.4600888385041344
    One-Electron Energy =               -1477.1250065500912569
    Two-Electron Energy =                 608.8961996328026771
    Total Energy =                       -385.7687180787844454
  Basis Set: (AUG-CC-PVTZ AUX)
    Blend: AUG-CC-PVTZ-RI
    Molecular point group: c1

    Geometry (in Angstrom), charge = 0, multiplicity = 1:

       Center              X                  Y                   Z               Mass
    ------------   -----------------  -----------------  -----------------  -----------------
         C           -2.122809068545     0.000554161078    -0.516188091654    12.000000000000
         C           -3.026105068545     0.752797161078     0.426272908346    12.000000000000
         C           -3.041746268545    -0.757796038922     0.406040208346    12.000000000000
         C           -0.646160068545     0.000554161078    -0.298045091654    12.000000000000
         C            0.065971931455     1.203545161078    -0.208760091654    12.000000000000
         C            0.065971931455    -1.202435838922    -0.208760091654    12.000000000000
         C            1.449964931455     1.201881161078    -0.034786091654    12.000000000000
         C            1.449965931455    -1.200770838922    -0.034786091654    12.000000000000
         C            2.165070931455     0.000555161078     0.053142908346    12.000000000000
         C            3.653897931455     0.000556161078     0.285351908346    12.000000000000
         H           -2.433693068545     0.000551161078    -1.560541091654     1.007825032230
         H           -3.887089068545     1.270480161078     0.015524908346     1.007825032230
         H           -2.556090068545     1.254012161078     1.266497908346     1.007825032230
         H           -2.556090068545    -1.252897838922     1.266502908346     1.007825032230
         H           -3.887090068545    -1.269368838922     0.015530908346     1.007825032230
         H           -0.473073068545     2.146980161078    -0.277320091654     1.007825032230
         H           -0.473072068545    -2.145871838922    -0.277320091654     1.007825032230
         H            1.984513931455     2.148790161078     0.030532908346     1.007825032230
         H            1.984514931455    -2.147679838922     0.030532908346     1.007825032230
         H            4.120870931455    -0.884794838922    -0.155745091654     1.007825032230
         H            4.120870931455     0.885907161078    -0.155744091654     1.007825032230
         H            3.888455931455     0.000555161078     1.355598908346     1.007825032230

  Basis Set: AUG-CC-PVTZ
    Blend: AUG-CC-PVTZ
  Basis Set: (AUG-CC-PVTZ AUX)
    Blend: AUG-CC-PVTZ-JKFIT
	 Reference Energy          =    -385.7687180787844454 [Eh]
	 Singles Energy            =      -0.0000000000000000 [Eh]
	 Same-Spin Energy          =      -0.4317140622337630 [Eh]
	 Opposite-Spin Energy      =      -1.4115533361983390 [Eh]
	 Correlation Energy        =      -1.8432673984321020 [Eh]
	 Total Energy              =    -387.6119854772165354 [Eh]

	 ================> DF-SCS-MP2 Energies <==================
	-----------------------------------------------------------
	 SCS Same-Spin Scale       =       0.3333333333333333 [-]
	 SCS Opposite-Spin Scale   =       1.2000000000000000 [-]
	 SCS Same-Spin Energy      =      -0.1439046874112543 [Eh]
	 SCS Opposite-Spin Energy  =      -1.6938640034380068 [Eh]
	 SCS Correlation Energy    =      -1.8377686908492612 [Eh]
	 SCS Total Energy          =    -387.6064867696337046 [Eh]
	-----------------------------------------------------------

  Dipole Moment: [D]
     X:     0.1181      Y:    -0.0029      Z:     0.0200     Total:     0.1198

*** Psi4 exiting successfully. Buy a developer a beer!
