                               Psi4 1.4a3.dev225

  ==> Input File <==

--------------------------------------------------------------------------
#psi4
#
memory 32 gb

molecule  {
0 1
  C       -2.1229620    -0.0000010    -0.5285820
  C       -3.0262580     0.7522420     0.4138790
  C       -3.0262580    -0.7522400     0.4138820
  C       -0.6463130    -0.0000010    -0.3104390
  C        0.0658190     1.2029900    -0.2211540
  C        0.0658190    -1.2029910    -0.2211540
  C        1.5490311     1.2012067    -0.0347077
  C        1.4498130    -1.2013260    -0.0471800
  C        2.1649180     0.0000000     0.0407490
  C        3.6537450     0.0000010     0.2729580
  H       -2.4338460    -0.0000040    -1.5729350
  H       -3.8872420     1.2699250     0.0031310
  H       -2.5562430     1.2534570     1.2541040
  H       -2.5562430    -1.2534530     1.2541090
  H       -3.8872430    -1.2699240     0.0031370
  H       -0.4732260     2.1464250    -0.2897140
  H       -0.4732250    -2.1464270    -0.2897140
  H        1.9843610     2.1482350     0.0181390
  H        1.9843620    -2.1482350     0.0181390
  H        4.1207180    -0.8853500    -0.1681390
  H        4.1207180     0.8853520    -0.1681380
  H        3.8883030     0.0000000     1.3432050
units angstrom
no_reorient  #important for SAPT in psi4, default
symmetry c1  #important for SAPT in psi4, default
}

set PROPERTIES_ORIGIN ["COM"]
properties('MP2/aug-cc-pvtz', properties = ['dipole'])
--------------------------------------------------------------------------

    Molecular point group: c1
  Charge       = 0
  Multiplicity = 1
  Basis Set: AUG-CC-PVTZ
    Blend: AUG-CC-PVTZ
  Basis Set: (AUG-CC-PVTZ AUX)
    Blend: AUG-CC-PVTZ-JKFIT

    Orbital Energies [Eh]
    ---------------------

    Doubly Occupied:

       1A    -11.238104     2A    -11.234311     3A    -11.233344
       4A    -11.233312     5A    -11.231260     6A    -11.228841
       7A    -11.227661     8A    -11.224896     9A    -11.224214
      10A    -11.219437    11A     -1.161981    12A     -1.130576
      13A     -1.043014    14A     -0.997565    15A     -0.934426
      16A     -0.839459    17A     -0.829774    18A     -0.812005
      19A     -0.765140    20A     -0.687068    21A     -0.651629
      22A     -0.637579    23A     -0.628750    24A     -0.602057
      25A     -0.575395    26A     -0.572798    27A     -0.536904
      28A     -0.525734    29A     -0.512378    30A     -0.496524
      31A     -0.484386    32A     -0.465408    33A     -0.424435
      34A     -0.413079    35A     -0.325489    36A     -0.316728

  @DF-RHF Final Energy:  -385.75780499384695

   => Energetics <=

    Nuclear Repulsion Energy =            481.8812484094601132
    One-Electron Energy =               -1475.9467901792925204
    Two-Electron Energy =                 608.3077367759855179
    Total Energy =                       -385.7578049938468894
  Basis Set: (AUG-CC-PVTZ AUX)
    Blend: AUG-CC-PVTZ-RI
    Molecular point group: c1

    Geometry (in Angstrom), charge = 0, multiplicity = 1:

       Center              X                  Y                   Z               Mass
    ------------   -----------------  -----------------  -----------------  -----------------
         C           -2.133243491300     0.000009830115    -0.519159432487    12.000000000000
         C           -3.036539491300     0.752252830115     0.423301567513    12.000000000000
         C           -3.036539491300    -0.752229169885     0.423304567513    12.000000000000
         C           -0.656594491300     0.000009830115    -0.301016432487    12.000000000000
         C            0.055537508700     1.203000830115    -0.211731432487    12.000000000000
         C            0.055537508700    -1.202980169885    -0.211731432487    12.000000000000
         C            1.538749608700     1.201217530115    -0.025285132487    12.000000000000
         C            1.439531508700    -1.201315169885    -0.037757432487    12.000000000000
         C            2.154636508700     0.000010830115     0.050171567513    12.000000000000
         C            3.643463508700     0.000011830115     0.282380567513    12.000000000000
         H           -2.444127491300     0.000006830115    -1.563512432487     1.007825032230
         H           -3.897523491300     1.269935830115     0.012553567513     1.007825032230
         H           -2.566524491300     1.253467830115     1.263526567513     1.007825032230
         H           -2.566524491300    -1.253442169885     1.263531567513     1.007825032230
         H           -3.897524491300    -1.269913169885     0.012559567513     1.007825032230
         H           -0.483507491300     2.146435830115    -0.280291432487     1.007825032230
         H           -0.483506491300    -2.146416169885    -0.280291432487     1.007825032230
         H            1.974079508700     2.148245830115     0.027561567513     1.007825032230
         H            1.974080508700    -2.148224169885     0.027561567513     1.007825032230
         H            4.110436508700    -0.885339169885    -0.158716432487     1.007825032230
         H            4.110436508700     0.885362830115    -0.158715432487     1.007825032230
         H            3.878021508700     0.000010830115     1.352627567513     1.007825032230

  Basis Set: AUG-CC-PVTZ
    Blend: AUG-CC-PVTZ
  Basis Set: (AUG-CC-PVTZ AUX)
    Blend: AUG-CC-PVTZ-JKFIT
	 Reference Energy          =    -385.7578049938469462 [Eh]
	 Singles Energy            =      -0.0000000000000000 [Eh]
	 Same-Spin Energy          =      -0.4315167141322790 [Eh]
	 Opposite-Spin Energy      =      -1.4122898844434488 [Eh]
	 Correlation Energy        =      -1.8438065985757279 [Eh]
	 Total Energy              =    -387.6016115924226710 [Eh]

	 ================> DF-SCS-MP2 Energies <==================
	-----------------------------------------------------------
	 SCS Same-Spin Scale       =       0.3333333333333333 [-]
	 SCS Opposite-Spin Scale   =       1.2000000000000000 [-]
	 SCS Same-Spin Energy      =      -0.1438389047107597 [Eh]
	 SCS Opposite-Spin Energy  =      -1.6947478613321385 [Eh]
	 SCS Correlation Energy    =      -1.8385867660428981 [Eh]
	 SCS Total Energy          =    -387.5963917598898547 [Eh]
	-----------------------------------------------------------

  Dipole Moment: [D]
     X:     0.0518      Y:     0.0204      Z:     0.0221     Total:     0.0599

*** Psi4 exiting successfully. Buy a developer a beer!
