                               Psi4 1.4a3.dev225

  ==> Input File <==

--------------------------------------------------------------------------
#psi4
#
memory 32 gb

molecule  {
0 1
  C       -2.1229620    -0.0000010    -0.5285820
  C       -3.0262580     0.7522420     0.4138790
  C       -3.0262580    -0.7522400     0.4138820
  C       -0.6463130    -0.0000010    -0.3104390
  C        0.0658190     1.2029900    -0.2211540
  C        0.0658190    -1.2029910    -0.2211540
  C        1.4498120     1.2013260    -0.0471800
  C        1.4498130    -1.2013260    -0.0471800
  C        2.1649180     0.0000000     0.0407490
  C        3.6537450     0.0000010     0.2729580
  H       -2.4281398    -0.0000039    -1.5537663
  H       -3.8872420     1.2699250     0.0031310
  H       -2.5562430     1.2534570     1.2541040
  H       -2.5562430    -1.2534530     1.2541090
  H       -3.8872430    -1.2699240     0.0031370
  H       -0.4732260     2.1464250    -0.2897140
  H       -0.4732250    -2.1464270    -0.2897140
  H        1.9843610     2.1482350     0.0181390
  H        1.9843620    -2.1482350     0.0181390
  H        4.1207180    -0.8853500    -0.1681390
  H        4.1207180     0.8853520    -0.1681380
  H        3.8883030     0.0000000     1.3432050
units angstrom
no_reorient  #important for SAPT in psi4, default
symmetry c1  #important for SAPT in psi4, default
}

set PROPERTIES_ORIGIN ["COM"]
properties('MP2/aug-cc-pvtz', properties = ['dipole'])
--------------------------------------------------------------------------

    Molecular point group: c1
  Charge       = 0
  Multiplicity = 1
  Basis Set: AUG-CC-PVTZ
    Blend: AUG-CC-PVTZ
  Basis Set: (AUG-CC-PVTZ AUX)
    Blend: AUG-CC-PVTZ-JKFIT

    Orbital Energies [Eh]
    ---------------------

    Doubly Occupied:

       1A    -11.237855     2A    -11.233909     3A    -11.230759
       4A    -11.229096     5A    -11.228934     6A    -11.227412
       7A    -11.227342     8A    -11.224528     9A    -11.223885
      10A    -11.222417    11A     -1.163524    12A     -1.130268
      13A     -1.039062    14A     -1.006688    15A     -0.936681
      16A     -0.833885    17A     -0.832978    18A     -0.808710
      19A     -0.766992    20A     -0.687992    21A     -0.652927
      22A     -0.633691    23A     -0.626388    24A     -0.599938
      25A     -0.576989    26A     -0.573107    27A     -0.538397
      28A     -0.529589    29A     -0.512254    30A     -0.489722
      31A     -0.483642    32A     -0.476686    33A     -0.424365
      34A     -0.412673    35A     -0.331455    36A     -0.312330

  @DF-RHF Final Energy:  -385.76964564134687

   => Energetics <=

    Nuclear Repulsion Energy =            482.7260682335140132
    One-Electron Energy =               -1477.6572895554588740
    Two-Electron Energy =                 609.1615756805979345
    Total Energy =                       -385.7696456413468695
  Basis Set: (AUG-CC-PVTZ AUX)
    Blend: AUG-CC-PVTZ-RI
    Molecular point group: c1

    Geometry (in Angstrom), charge = 0, multiplicity = 1:

       Center              X                  Y                   Z               Mass
    ------------   -----------------  -----------------  -----------------  -----------------
         C           -2.124273521110    -0.000001008393    -0.518172642757    12.000000000000
         C           -3.027569521110     0.752241991607     0.424288357243    12.000000000000
         C           -3.027569521110    -0.752240008393     0.424291357243    12.000000000000
         C           -0.647624521110    -0.000001008393    -0.300029642757    12.000000000000
         C            0.064507478890     1.202989991607    -0.210744642757    12.000000000000
         C            0.064507478890    -1.202991008393    -0.210744642757    12.000000000000
         C            1.448500478890     1.201325991607    -0.036770642757    12.000000000000
         C            1.448501478890    -1.201326008393    -0.036770642757    12.000000000000
         C            2.163606478890    -0.000000008393     0.051158357243    12.000000000000
         C            3.652433478890     0.000000991607     0.283367357243    12.000000000000
         H           -2.429451321110    -0.000003908393    -1.543356942757     1.007825032230
         H           -3.888553521110     1.269924991607     0.013540357243     1.007825032230
         H           -2.557554521110     1.253456991607     1.264513357243     1.007825032230
         H           -2.557554521110    -1.253453008393     1.264518357243     1.007825032230
         H           -3.888554521110    -1.269924008393     0.013546357243     1.007825032230
         H           -0.474537521110     2.146424991607    -0.279304642757     1.007825032230
         H           -0.474536521110    -2.146427008393    -0.279304642757     1.007825032230
         H            1.983049478890     2.148234991607     0.028548357243     1.007825032230
         H            1.983050478890    -2.148235008393     0.028548357243     1.007825032230
         H            4.119406478890    -0.885350008393    -0.157729642757     1.007825032230
         H            4.119406478890     0.885351991607    -0.157728642757     1.007825032230
         H            3.886991478890    -0.000000008393     1.353614357243     1.007825032230

  Basis Set: AUG-CC-PVTZ
    Blend: AUG-CC-PVTZ
  Basis Set: (AUG-CC-PVTZ AUX)
    Blend: AUG-CC-PVTZ-JKFIT
	 Reference Energy          =    -385.7696456413468695 [Eh]
	 Singles Energy            =      -0.0000000000000000 [Eh]
	 Same-Spin Energy          =      -0.4316942845098211 [Eh]
	 Opposite-Spin Energy      =      -1.4113696665003996 [Eh]
	 Correlation Energy        =      -1.8430639510102207 [Eh]
	 Total Energy              =    -387.6127095923570778 [Eh]

	 ================> DF-SCS-MP2 Energies <==================
	-----------------------------------------------------------
	 SCS Same-Spin Scale       =       0.3333333333333333 [-]
	 SCS Opposite-Spin Scale   =       1.2000000000000000 [-]
	 SCS Same-Spin Energy      =      -0.1438980948366070 [Eh]
	 SCS Opposite-Spin Energy  =      -1.6936435998004795 [Eh]
	 SCS Correlation Energy    =      -1.8375416946370866 [Eh]
	 SCS Total Energy          =    -387.6071873359839515 [Eh]
	-----------------------------------------------------------

  Dipole Moment: [D]
     X:     0.1113      Y:    -0.0000      Z:     0.0231     Total:     0.1137

*** Psi4 exiting successfully. Buy a developer a beer!
