                               Psi4 1.4a3.dev225

  ==> Input File <==

--------------------------------------------------------------------------
#psi4
#
memory 32 gb

molecule  {
0 1
  C       -2.1229620    -0.0000010    -0.5285820
  C       -3.0262580     0.7522420     0.4138790
  C       -3.0262580    -0.7522400     0.4138820
  C       -0.6042238    -0.0243158    -0.3051435
  C        0.0658190     1.2029900    -0.2211540
  C        0.0658190    -1.2029910    -0.2211540
  C        1.4498120     1.2013260    -0.0471800
  C        1.4498130    -1.2013260    -0.0471800
  C        2.1649180     0.0000000     0.0407490
  C        3.6537450     0.0000010     0.2729580
  H       -2.4338460    -0.0000040    -1.5729350
  H       -3.8872420     1.2699250     0.0031310
  H       -2.5562430     1.2534570     1.2541040
  H       -2.5562430    -1.2534530     1.2541090
  H       -3.8872430    -1.2699240     0.0031370
  H       -0.4732260     2.1464250    -0.2897140
  H       -0.4732250    -2.1464270    -0.2897140
  H        1.9843610     2.1482350     0.0181390
  H        1.9843620    -2.1482350     0.0181390
  H        4.1207180    -0.8853500    -0.1681390
  H        4.1207180     0.8853520    -0.1681380
  H        3.8883030     0.0000000     1.3432050
units angstrom
no_reorient  #important for SAPT in psi4, default
symmetry c1  #important for SAPT in psi4, default
}

set PROPERTIES_ORIGIN ["COM"]
properties('MP2/aug-cc-pvtz', properties = ['dipole'])
--------------------------------------------------------------------------

    Molecular point group: c1
  Charge       = 0
  Multiplicity = 1
  Basis Set: AUG-CC-PVTZ
    Blend: AUG-CC-PVTZ
  Basis Set: (AUG-CC-PVTZ AUX)
    Blend: AUG-CC-PVTZ-JKFIT

    Orbital Energies [Eh]
    ---------------------

    Doubly Occupied:

       1A    -11.237445     2A    -11.234054     3A    -11.231827
       4A    -11.229307     5A    -11.227915     6A    -11.227786
       7A    -11.224071     8A    -11.223883     9A    -11.222768
      10A    -11.222387    11A     -1.163804    12A     -1.129988
      13A     -1.041374    14A     -1.009070    15A     -0.934486
      16A     -0.834742    17A     -0.826148    18A     -0.809873
      19A     -0.767029    20A     -0.685588    21A     -0.651536
      22A     -0.635437    23A     -0.625468    24A     -0.598112
      25A     -0.580885    26A     -0.573258    27A     -0.538713
      28A     -0.526284    29A     -0.511456    30A     -0.491840
      31A     -0.486928    32A     -0.469330    33A     -0.421882
      34A     -0.413146    35A     -0.332929    36A     -0.315217

  @DF-RHF Final Energy:  -385.76765201121191

   => Energetics <=

    Nuclear Repulsion Energy =            482.8428345911221982
    One-Electron Energy =               -1477.9090438842770254
    Two-Electron Energy =                 609.2985572819428626
    Total Energy =                       -385.7676520112119078
  Basis Set: (AUG-CC-PVTZ AUX)
    Blend: AUG-CC-PVTZ-RI
    Molecular point group: c1

    Geometry (in Angstrom), charge = 0, multiplicity = 1:

       Center              X                  Y                   Z               Mass
    ------------   -----------------  -----------------  -----------------  -----------------
         C           -2.128053555974     0.002207857421    -0.518507459915    12.000000000000
         C           -3.031349555974     0.754450857421     0.423953540085    12.000000000000
         C           -3.031349555974    -0.750031142579     0.423956540085    12.000000000000
         C           -0.609315355974    -0.022106942579    -0.295068959915    12.000000000000
         C            0.060727444026     1.205198857421    -0.211079459915    12.000000000000
         C            0.060727444026    -1.200782142579    -0.211079459915    12.000000000000
         C            1.444720444026     1.203534857421    -0.037105459915    12.000000000000
         C            1.444721444026    -1.199117142579    -0.037105459915    12.000000000000
         C            2.159826444026     0.002208857421     0.050823540085    12.000000000000
         C            3.648653444026     0.002209857421     0.283032540085    12.000000000000
         H           -2.438937555974     0.002204857421    -1.562860459915     1.007825032230
         H           -3.892333555974     1.272133857421     0.013205540085     1.007825032230
         H           -2.561334555974     1.255665857421     1.264178540085     1.007825032230
         H           -2.561334555974    -1.251244142579     1.264183540085     1.007825032230
         H           -3.892334555974    -1.267715142579     0.013211540085     1.007825032230
         H           -0.478317555974     2.148633857421    -0.279639459915     1.007825032230
         H           -0.478316555974    -2.144218142579    -0.279639459915     1.007825032230
         H            1.979269444026     2.150443857421     0.028213540085     1.007825032230
         H            1.979270444026    -2.146026142579     0.028213540085     1.007825032230
         H            4.115626444026    -0.883141142579    -0.158064459915     1.007825032230
         H            4.115626444026     0.887560857421    -0.158063459915     1.007825032230
         H            3.883211444026     0.002208857421     1.353279540085     1.007825032230

  Basis Set: AUG-CC-PVTZ
    Blend: AUG-CC-PVTZ
  Basis Set: (AUG-CC-PVTZ AUX)
    Blend: AUG-CC-PVTZ-JKFIT
	 Reference Energy          =    -385.7676520112119078 [Eh]
	 Singles Energy            =      -0.0000000000000000 [Eh]
	 Same-Spin Energy          =      -0.4313381060370939 [Eh]
	 Opposite-Spin Energy      =      -1.4109595942392634 [Eh]
	 Correlation Energy        =      -1.8422977002763572 [Eh]
	 Total Energy              =    -387.6099497114882411 [Eh]

	 ================> DF-SCS-MP2 Energies <==================
	-----------------------------------------------------------
	 SCS Same-Spin Scale       =       0.3333333333333333 [-]
	 SCS Opposite-Spin Scale   =       1.2000000000000000 [-]
	 SCS Same-Spin Energy      =      -0.1437793686790313 [Eh]
	 SCS Opposite-Spin Energy  =      -1.6931515130871160 [Eh]
	 SCS Correlation Energy    =      -1.8369308817661472 [Eh]
	 SCS Total Energy          =    -387.6045828929780441 [Eh]
	-----------------------------------------------------------

  Dipole Moment: [D]
     X:     0.1749      Y:     0.0067      Z:     0.0264     Total:     0.1770

*** Psi4 exiting successfully. Buy a developer a beer!
