                               Psi4 1.4a3.dev225

  ==> Input File <==

--------------------------------------------------------------------------
#psi4
#
memory 32 gb

molecule  {
0 1
  C       -2.1226873    -0.0260495    -0.5288861
  C       -3.0262580     0.7522420     0.4138790
  C       -3.0262580    -0.7522400     0.4138820
  C       -0.6463130    -0.0000010    -0.3104390
  C        0.0658190     1.2029900    -0.2211540
  C        0.0658190    -1.2029910    -0.2211540
  C        1.4498120     1.2013260    -0.0471800
  C        1.4498130    -1.2013260    -0.0471800
  C        2.1649180     0.0000000     0.0407490
  C        3.6537450     0.0000010     0.2729580
  H       -2.4338460    -0.0000040    -1.5729350
  H       -3.8872420     1.2699250     0.0031310
  H       -2.5562430     1.2534570     1.2541040
  H       -2.5562430    -1.2534530     1.2541090
  H       -3.8872430    -1.2699240     0.0031370
  H       -0.4732260     2.1464250    -0.2897140
  H       -0.4732250    -2.1464270    -0.2897140
  H        1.9843610     2.1482350     0.0181390
  H        1.9843620    -2.1482350     0.0181390
  H        4.1207180    -0.8853500    -0.1681390
  H        4.1207180     0.8853520    -0.1681380
  H        3.8883030     0.0000000     1.3432050
units angstrom
no_reorient  #important for SAPT in psi4, default
symmetry c1  #important for SAPT in psi4, default
}

set PROPERTIES_ORIGIN ["COM"]
properties('MP2/aug-cc-pvtz', properties = ['dipole'])
--------------------------------------------------------------------------

    Molecular point group: c1
  Charge       = 0
  Multiplicity = 1
  Basis Set: AUG-CC-PVTZ
    Blend: AUG-CC-PVTZ
  Basis Set: (AUG-CC-PVTZ AUX)
    Blend: AUG-CC-PVTZ-JKFIT

    Orbital Energies [Eh]
    ---------------------

    Doubly Occupied:

       1A    -11.237927     2A    -11.234159     3A    -11.233102
       4A    -11.229415     5A    -11.228772     6A    -11.227607
       7A    -11.227239     8A    -11.225021     9A    -11.223709
      10A    -11.222459    11A     -1.163349    12A     -1.130110
      13A     -1.039134    14A     -1.006747    15A     -0.936667
      16A     -0.834214    17A     -0.831502    18A     -0.808796
      19A     -0.765799    20A     -0.686994    21A     -0.652441
      22A     -0.633768    23A     -0.626359    24A     -0.599348
      25A     -0.577044    26A     -0.573149    27A     -0.538460
      28A     -0.528454    29A     -0.512308    30A     -0.489802
      31A     -0.483695    32A     -0.476170    33A     -0.426777
      34A     -0.410139    35A     -0.331503    36A     -0.312242

  @DF-RHF Final Energy:  -385.76915523366921

   => Energetics <=

    Nuclear Repulsion Energy =            482.6139669465172801
    One-Electron Energy =               -1477.4374848701065730
    Two-Electron Energy =                 609.0543626899200262
    Total Energy =                       -385.7691552336692666
  Basis Set: (AUG-CC-PVTZ AUX)
    Blend: AUG-CC-PVTZ-RI
    Molecular point group: c1

    Geometry (in Angstrom), charge = 0, multiplicity = 1:

       Center              X                  Y                   Z               Mass
    ------------   -----------------  -----------------  -----------------  -----------------
         C           -2.123980240000    -0.023683145526    -0.518302867237    12.000000000000
         C           -3.027550940000     0.754608354474     0.424462232763    12.000000000000
         C           -3.027550940000    -0.749873645526     0.424465232763    12.000000000000
         C           -0.647605940000     0.002365354474    -0.299855767237    12.000000000000
         C            0.064526060000     1.205356354474    -0.210570767237    12.000000000000
         C            0.064526060000    -1.200624645526    -0.210570767237    12.000000000000
         C            1.448519060000     1.203692354474    -0.036596767237    12.000000000000
         C            1.448520060000    -1.198959645526    -0.036596767237    12.000000000000
         C            2.163625060000     0.002366354474     0.051332232763    12.000000000000
         C            3.652452060000     0.002367354474     0.283541232763    12.000000000000
         H           -2.435138940000     0.002362354474    -1.562351767237     1.007825032230
         H           -3.888534940000     1.272291354474     0.013714232763     1.007825032230
         H           -2.557535940000     1.255823354474     1.264687232763     1.007825032230
         H           -2.557535940000    -1.251086645526     1.264692232763     1.007825032230
         H           -3.888535940000    -1.267557645526     0.013720232763     1.007825032230
         H           -0.474518940000     2.148791354474    -0.279130767237     1.007825032230
         H           -0.474517940000    -2.144060645526    -0.279130767237     1.007825032230
         H            1.983068060000     2.150601354474     0.028722232763     1.007825032230
         H            1.983069060000    -2.145868645526     0.028722232763     1.007825032230
         H            4.119425060000    -0.882983645526    -0.157555767237     1.007825032230
         H            4.119425060000     0.887718354474    -0.157554767237     1.007825032230
         H            3.887010060000     0.002366354474     1.353788232763     1.007825032230

  Basis Set: AUG-CC-PVTZ
    Blend: AUG-CC-PVTZ
  Basis Set: (AUG-CC-PVTZ AUX)
    Blend: AUG-CC-PVTZ-JKFIT
	 Reference Energy          =    -385.7691552336692098 [Eh]
	 Singles Energy            =      -0.0000000000000000 [Eh]
	 Same-Spin Energy          =      -0.4317334891731945 [Eh]
	 Opposite-Spin Energy      =      -1.4115371688410852 [Eh]
	 Correlation Energy        =      -1.8432706580142797 [Eh]
	 Total Energy              =    -387.6124258916834719 [Eh]

	 ================> DF-SCS-MP2 Energies <==================
	-----------------------------------------------------------
	 SCS Same-Spin Scale       =       0.3333333333333333 [-]
	 SCS Opposite-Spin Scale   =       1.2000000000000000 [-]
	 SCS Same-Spin Energy      =      -0.1439111630577315 [Eh]
	 SCS Opposite-Spin Energy  =      -1.6938446026093021 [Eh]
	 SCS Correlation Energy    =      -1.8377557656670336 [Eh]
	 SCS Total Energy          =    -387.6069109993362645 [Eh]
	-----------------------------------------------------------

  Dipole Moment: [D]
     X:     0.1162      Y:    -0.0168      Z:     0.0294     Total:     0.1211

*** Psi4 exiting successfully. Buy a developer a beer!
