                               Psi4 1.4a3.dev225

  ==> Input File <==

--------------------------------------------------------------------------
#psi4
#
memory 32 gb

molecule  {
0 1
  C       -2.1229620    -0.0000010    -0.5285820
  C       -3.0262580     0.7522420     0.4138790
  C       -3.0262580    -0.7522400     0.4138820
  C       -0.6463130    -0.0000010    -0.3104390
  C        0.0658190     1.2029900    -0.2211540
  C        0.0658190    -1.2029910    -0.2211540
  C        1.4498120     1.2013260    -0.0471800
  C        1.4498130    -1.2013260    -0.0471800
  C        2.1649180     0.0000000     0.0407490
  C        3.6537450     0.0000010     0.2729580
  H       -2.4338460    -0.0000040    -1.5729350
  H       -3.8872420     1.2699250     0.0031310
  H       -2.5562430     1.2534570     1.2541040
  H       -2.5562430    -1.2534530     1.2541090
  H       -3.8079158    -1.2222270     0.0409812
  H       -0.4732260     2.1464250    -0.2897140
  H       -0.4732250    -2.1464270    -0.2897140
  H        1.9843610     2.1482350     0.0181390
  H        1.9843620    -2.1482350     0.0181390
  H        4.1207180    -0.8853500    -0.1681390
  H        4.1207180     0.8853520    -0.1681380
  H        3.8883030     0.0000000     1.3432050
units angstrom
no_reorient  #important for SAPT in psi4, default
symmetry c1  #important for SAPT in psi4, default
}

set PROPERTIES_ORIGIN ["COM"]
properties('MP2/aug-cc-pvtz', properties = ['dipole'])
--------------------------------------------------------------------------

    Molecular point group: c1
  Charge       = 0
  Multiplicity = 1
  Basis Set: AUG-CC-PVTZ
    Blend: AUG-CC-PVTZ
  Basis Set: (AUG-CC-PVTZ AUX)
    Blend: AUG-CC-PVTZ-JKFIT

    Orbital Energies [Eh]
    ---------------------

    Doubly Occupied:

       1A    -11.237650     2A    -11.233739     3A    -11.232438
       4A    -11.228859     5A    -11.228689     6A    -11.227192
       7A    -11.227112     8A    -11.223719     9A    -11.222270
      10A    -11.212380    11A     -1.163564    12A     -1.130816
      13A     -1.039294    14A     -1.006463    15A     -0.936961
      16A     -0.841117    17A     -0.831911    18A     -0.813495
      19A     -0.766029    20A     -0.688375    21A     -0.660358
      22A     -0.633694    23A     -0.626602    24A     -0.598951
      25A     -0.576794    26A     -0.572994    27A     -0.538611
      28A     -0.530532    29A     -0.518423    30A     -0.489780
      31A     -0.483457    32A     -0.476243    33A     -0.423957
      34A     -0.413021    35A     -0.331230    36A     -0.311965

  @DF-RHF Final Energy:  -385.76336948326770

   => Energetics <=

    Nuclear Repulsion Energy =            483.1395854638385572
    One-Electron Energy =               -1478.4485390454749449
    Two-Electron Energy =                 609.5455840983686358
    Total Energy =                       -385.7633694832677520
  Basis Set: (AUG-CC-PVTZ AUX)
    Blend: AUG-CC-PVTZ-RI
    Molecular point group: c1

    Geometry (in Angstrom), charge = 0, multiplicity = 1:

       Center              X                  Y                   Z               Mass
    ------------   -----------------  -----------------  -----------------  -----------------
         C           -2.124835220677    -0.000364917170    -0.518315129551    12.000000000000
         C           -3.028131220677     0.751878082830     0.424145870449    12.000000000000
         C           -3.028131220677    -0.752603917170     0.424148870449    12.000000000000
         C           -0.648186220677    -0.000364917170    -0.300172129551    12.000000000000
         C            0.063945779323     1.202626082830    -0.210887129551    12.000000000000
         C            0.063945779323    -1.203354917170    -0.210887129551    12.000000000000
         C            1.447938779323     1.200962082830    -0.036913129551    12.000000000000
         C            1.447939779323    -1.201689917170    -0.036913129551    12.000000000000
         C            2.163044779323    -0.000363917170     0.051015870449    12.000000000000
         C            3.651871779323    -0.000362917170     0.283224870449    12.000000000000
         H           -2.435719220677    -0.000367917170    -1.562668129551     1.007825032230
         H           -3.889115220677     1.269561082830     0.013397870449     1.007825032230
         H           -2.558116220677     1.253093082830     1.264370870449     1.007825032230
         H           -2.558116220677    -1.253816917170     1.264375870449     1.007825032230
         H           -3.809789020677    -1.222590917170     0.051248070449     1.007825032230
         H           -0.475099220677     2.146061082830    -0.279447129551     1.007825032230
         H           -0.475098220677    -2.146790917170    -0.279447129551     1.007825032230
         H            1.982487779323     2.147871082830     0.028405870449     1.007825032230
         H            1.982488779323    -2.148598917170     0.028405870449     1.007825032230
         H            4.118844779323    -0.885713917170    -0.157872129551     1.007825032230
         H            4.118844779323     0.884988082830    -0.157871129551     1.007825032230
         H            3.886429779323    -0.000363917170     1.353471870449     1.007825032230

  Basis Set: AUG-CC-PVTZ
    Blend: AUG-CC-PVTZ
  Basis Set: (AUG-CC-PVTZ AUX)
    Blend: AUG-CC-PVTZ-JKFIT
	 Reference Energy          =    -385.7633694832676952 [Eh]
	 Singles Energy            =      -0.0000000000000000 [Eh]
	 Same-Spin Energy          =      -0.4317132119240168 [Eh]
	 Opposite-Spin Energy      =      -1.4111019386006256 [Eh]
	 Correlation Energy        =      -1.8428151505246424 [Eh]
	 Total Energy              =    -387.6061846337923384 [Eh]

	 ================> DF-SCS-MP2 Energies <==================
	-----------------------------------------------------------
	 SCS Same-Spin Scale       =       0.3333333333333333 [-]
	 SCS Opposite-Spin Scale   =       1.2000000000000000 [-]
	 SCS Same-Spin Energy      =      -0.1439044039746722 [Eh]
	 SCS Opposite-Spin Energy  =      -1.6933223263207506 [Eh]
	 SCS Correlation Energy    =      -1.8372267302954228 [Eh]
	 SCS Total Energy          =    -387.6005962135631080 [Eh]
	-----------------------------------------------------------

  Dipole Moment: [D]
     X:     0.0814      Y:    -0.0250      Z:     0.0298     Total:     0.0903

*** Psi4 exiting successfully. Buy a developer a beer!
