                               Psi4 1.4a3.dev225

  ==> Input File <==

--------------------------------------------------------------------------
#psi4
#
memory 32 gb

molecule  {
0 1
  C       -2.1229620    -0.0000010    -0.5285820
  C       -3.0025598     0.7520129     0.4251846
  C       -3.0262580    -0.7522400     0.4138820
  C       -0.6463130    -0.0000010    -0.3104390
  C        0.0658190     1.2029900    -0.2211540
  C        0.0658190    -1.2029910    -0.2211540
  C        1.4498120     1.2013260    -0.0471800
  C        1.4498130    -1.2013260    -0.0471800
  C        2.1649180     0.0000000     0.0407490
  C        3.6537450     0.0000010     0.2729580
  H       -2.4338460    -0.0000040    -1.5729350
  H       -3.8872420     1.2699250     0.0031310
  H       -2.5562430     1.2534570     1.2541040
  H       -2.5562430    -1.2534530     1.2541090
  H       -3.8872430    -1.2699240     0.0031370
  H       -0.4732260     2.1464250    -0.2897140
  H       -0.4732250    -2.1464270    -0.2897140
  H        1.9843610     2.1482350     0.0181390
  H        1.9843620    -2.1482350     0.0181390
  H        4.1207180    -0.8853500    -0.1681390
  H        4.1207180     0.8853520    -0.1681380
  H        3.8883030     0.0000000     1.3432050
units angstrom
no_reorient  #important for SAPT in psi4, default
symmetry c1  #important for SAPT in psi4, default
}

set PROPERTIES_ORIGIN ["COM"]
properties('MP2/aug-cc-pvtz', properties = ['dipole'])
--------------------------------------------------------------------------

    Molecular point group: c1
  Charge       = 0
  Multiplicity = 1
  Basis Set: AUG-CC-PVTZ
    Blend: AUG-CC-PVTZ
  Basis Set: (AUG-CC-PVTZ AUX)
    Blend: AUG-CC-PVTZ-JKFIT

    Orbital Energies [Eh]
    ---------------------

    Doubly Occupied:

       1A    -11.237869     2A    -11.233891     3A    -11.232917
       4A    -11.229122     5A    -11.228882     6A    -11.227452
       7A    -11.227318     8A    -11.224610     9A    -11.223857
      10A    -11.222433    11A     -1.164128    12A     -1.130745
      13A     -1.039024    14A     -1.006706    15A     -0.936515
      16A     -0.834176    17A     -0.831708    18A     -0.808574
      19A     -0.766175    20A     -0.687749    21A     -0.650811
      22A     -0.633662    23A     -0.626648    24A     -0.600824
      25A     -0.576996    26A     -0.573110    27A     -0.538378
      28A     -0.528326    29A     -0.511702    30A     -0.489350
      31A     -0.483722    32A     -0.476052    33A     -0.423907
      34A     -0.413948    35A     -0.331472    36A     -0.312216

  @DF-RHF Final Energy:  -385.76872218086908

   => Energetics <=

    Nuclear Repulsion Energy =            482.8627633223063640
    One-Electron Energy =               -1477.9330170258924682
    Two-Electron Energy =                 609.3015315227170277
    Total Energy =                       -385.7687221808690765
  Basis Set: (AUG-CC-PVTZ AUX)
    Blend: AUG-CC-PVTZ-RI
    Molecular point group: c1

    Geometry (in Angstrom), charge = 0, multiplicity = 1:

       Center              X                  Y                   Z               Mass
    ------------   -----------------  -----------------  -----------------  -----------------
         C           -2.126382835378     0.000019804838    -0.519053444247    12.000000000000
         C           -3.005980635378     0.752033704838     0.434713155753    12.000000000000
         C           -3.029678835378    -0.752219195162     0.423410555753    12.000000000000
         C           -0.649733835378     0.000019804838    -0.300910444247    12.000000000000
         C            0.062398164622     1.203010804838    -0.211625444247    12.000000000000
         C            0.062398164622    -1.202970195162    -0.211625444247    12.000000000000
         C            1.446391164622     1.201346804838    -0.037651444247    12.000000000000
         C            1.446392164622    -1.201305195162    -0.037651444247    12.000000000000
         C            2.161497164622     0.000020804838     0.050277555753    12.000000000000
         C            3.650324164622     0.000021804838     0.282486555753    12.000000000000
         H           -2.437266835378     0.000016804838    -1.563406444247     1.007825032230
         H           -3.890662835378     1.269945804838     0.012659555753     1.007825032230
         H           -2.559663835378     1.253477804838     1.263632555753     1.007825032230
         H           -2.559663835378    -1.253432195162     1.263637555753     1.007825032230
         H           -3.890663835378    -1.269903195162     0.012665555753     1.007825032230
         H           -0.476646835378     2.146445804838    -0.280185444247     1.007825032230
         H           -0.476645835378    -2.146406195162    -0.280185444247     1.007825032230
         H            1.980940164622     2.148255804838     0.027667555753     1.007825032230
         H            1.980941164622    -2.148214195162     0.027667555753     1.007825032230
         H            4.117297164622    -0.885329195162    -0.158610444247     1.007825032230
         H            4.117297164622     0.885372804838    -0.158609444247     1.007825032230
         H            3.884882164622     0.000020804838     1.352733555753     1.007825032230

  Basis Set: AUG-CC-PVTZ
    Blend: AUG-CC-PVTZ
  Basis Set: (AUG-CC-PVTZ AUX)
    Blend: AUG-CC-PVTZ-JKFIT
	 Reference Energy          =    -385.7687221808690765 [Eh]
	 Singles Energy            =      -0.0000000000000000 [Eh]
	 Same-Spin Energy          =      -0.4317418775076401 [Eh]
	 Opposite-Spin Energy      =      -1.4115179132594395 [Eh]
	 Correlation Energy        =      -1.8432597907670796 [Eh]
	 Total Energy              =    -387.6119819716361690 [Eh]

	 ================> DF-SCS-MP2 Energies <==================
	-----------------------------------------------------------
	 SCS Same-Spin Scale       =       0.3333333333333333 [-]
	 SCS Opposite-Spin Scale   =       1.2000000000000000 [-]
	 SCS Same-Spin Energy      =      -0.1439139591692134 [Eh]
	 SCS Opposite-Spin Energy  =      -1.6938214959113274 [Eh]
	 SCS Correlation Energy    =      -1.8377354550805407 [Eh]
	 SCS Total Energy          =    -387.6064576359495959 [Eh]
	-----------------------------------------------------------

  Dipole Moment: [D]
     X:     0.1187      Y:    -0.0029      Z:     0.0344     Total:     0.1236

*** Psi4 exiting successfully. Buy a developer a beer!
