                               Psi4 1.4a3.dev225

  ==> Input File <==

--------------------------------------------------------------------------
#psi4
#
memory 32 gb

molecule  {
0 1
  C       -2.1229620    -0.0000010    -0.5285820
  C       -3.0262580     0.7522420     0.4138790
  C       -3.0262580    -0.7522400     0.4138820
  C       -0.6463130    -0.0000010    -0.3104390
  C        0.0658190     1.2029900    -0.2211540
  C        0.0658190    -1.2029910    -0.2211540
  C        1.4465660     1.2986323    -0.0476706
  C        1.4498130    -1.2013260    -0.0471800
  C        2.1649180     0.0000000     0.0407490
  C        3.6537450     0.0000010     0.2729580
  H       -2.4338460    -0.0000040    -1.5729350
  H       -3.8872420     1.2699250     0.0031310
  H       -2.5562430     1.2534570     1.2541040
  H       -2.5562430    -1.2534530     1.2541090
  H       -3.8872430    -1.2699240     0.0031370
  H       -0.4732260     2.1464250    -0.2897140
  H       -0.4732250    -2.1464270    -0.2897140
  H        1.9843610     2.1482350     0.0181390
  H        1.9843620    -2.1482350     0.0181390
  H        4.1207180    -0.8853500    -0.1681390
  H        4.1207180     0.8853520    -0.1681380
  H        3.8883030     0.0000000     1.3432050
units angstrom
no_reorient  #important for SAPT in psi4, default
symmetry c1  #important for SAPT in psi4, default
}

set PROPERTIES_ORIGIN ["COM"]
properties('MP2/aug-cc-pvtz', properties = ['dipole'])
--------------------------------------------------------------------------

    Molecular point group: c1
  Charge       = 0
  Multiplicity = 1
  Basis Set: AUG-CC-PVTZ
    Blend: AUG-CC-PVTZ
  Basis Set: (AUG-CC-PVTZ AUX)
    Blend: AUG-CC-PVTZ-JKFIT

    Orbital Energies [Eh]
    ---------------------

    Doubly Occupied:

       1A    -11.247445     2A    -11.234034     3A    -11.233081
       4A    -11.231024     5A    -11.230724     6A    -11.229610
       7A    -11.226767     8A    -11.224438     9A    -11.223748
      10A    -11.222198    11A     -1.160540    12A     -1.124658
      13A     -1.035531    14A     -1.009333    15A     -0.935376
      16A     -0.836360    17A     -0.826721    18A     -0.809558
      19A     -0.766726    20A     -0.689360    21A     -0.651796
      22A     -0.638165    23A     -0.626183    24A     -0.603599
      25A     -0.582154    26A     -0.571541    27A     -0.541381
      28A     -0.524651    29A     -0.512136    30A     -0.492416
      31A     -0.481351    32A     -0.466849    33A     -0.423129
      34A     -0.413294    35A     -0.333797    36A     -0.305342

  @DF-RHF Final Energy:  -385.75646518381262

   => Energetics <=

    Nuclear Repulsion Energy =            481.1305880031650304
    One-Electron Energy =               -1474.4440724568003134
    Two-Electron Energy =                 607.5570192698226037
    Total Energy =                       -385.7564651838126792
  Basis Set: (AUG-CC-PVTZ AUX)
    Blend: AUG-CC-PVTZ-RI
    Molecular point group: c1

    Geometry (in Angstrom), charge = 0, multiplicity = 1:

       Center              X                  Y                   Z               Mass
    ------------   -----------------  -----------------  -----------------  -----------------
         C           -2.123935103885    -0.008840746608    -0.517981824744    12.000000000000
         C           -3.027231103885     0.743402253392     0.424479175256    12.000000000000
         C           -3.027231103885    -0.761079746608     0.424482175256    12.000000000000
         C           -0.647286103885    -0.008840746608    -0.299838824744    12.000000000000
         C            0.064845896115     1.194150253392    -0.210553824744    12.000000000000
         C            0.064845896115    -1.211830746608    -0.210553824744    12.000000000000
         C            1.445592896115     1.289792553392    -0.037070424744    12.000000000000
         C            1.448839896115    -1.210165746608    -0.036579824744    12.000000000000
         C            2.163944896115    -0.008839746608     0.051349175256    12.000000000000
         C            3.652771896115    -0.008838746608     0.283558175256    12.000000000000
         H           -2.434819103885    -0.008843746608    -1.562334824744     1.007825032230
         H           -3.888215103885     1.261085253392     0.013731175256     1.007825032230
         H           -2.557216103885     1.244617253392     1.264704175256     1.007825032230
         H           -2.557216103885    -1.262292746608     1.264709175256     1.007825032230
         H           -3.888216103885    -1.278763746608     0.013737175256     1.007825032230
         H           -0.474199103885     2.137585253392    -0.279113824744     1.007825032230
         H           -0.474198103885    -2.155266746608    -0.279113824744     1.007825032230
         H            1.983387896115     2.139395253392     0.028739175256     1.007825032230
         H            1.983388896115    -2.157074746608     0.028739175256     1.007825032230
         H            4.119744896115    -0.894189746608    -0.157538824744     1.007825032230
         H            4.119744896115     0.876512253392    -0.157537824744     1.007825032230
         H            3.887329896115    -0.008839746608     1.353805175256     1.007825032230

  Basis Set: AUG-CC-PVTZ
    Blend: AUG-CC-PVTZ
  Basis Set: (AUG-CC-PVTZ AUX)
    Blend: AUG-CC-PVTZ-JKFIT
	 Reference Energy          =    -385.7564651838126224 [Eh]
	 Singles Energy            =      -0.0000000000000000 [Eh]
	 Same-Spin Energy          =      -0.4317205021621835 [Eh]
	 Opposite-Spin Energy      =      -1.4125348334758623 [Eh]
	 Correlation Energy        =      -1.8442553356380458 [Eh]
	 Total Energy              =    -387.6007205194506469 [Eh]

	 ================> DF-SCS-MP2 Energies <==================
	-----------------------------------------------------------
	 SCS Same-Spin Scale       =       0.3333333333333333 [-]
	 SCS Opposite-Spin Scale   =       1.2000000000000000 [-]
	 SCS Same-Spin Energy      =      -0.1439068340540612 [Eh]
	 SCS Opposite-Spin Energy  =      -1.6950418001710348 [Eh]
	 SCS Correlation Energy    =      -1.8389486342250960 [Eh]
	 SCS Total Energy          =    -387.5954138180377413 [Eh]
	-----------------------------------------------------------

  Dipole Moment: [D]
     X:     0.1377      Y:     0.0126      Z:     0.0397     Total:     0.1439

*** Psi4 exiting successfully. Buy a developer a beer!
