                               Psi4 1.4a3.dev225

  ==> Input File <==

--------------------------------------------------------------------------
#psi4
#
memory 32 gb

molecule  {
0 1
  C       -2.1229620    -0.0000010    -0.5285820
  C       -3.0262580     0.7522420     0.4138790
  C       -3.0262580    -0.7522400     0.4138820
  C       -0.6463130    -0.0000010    -0.3104390
  C        0.0658190     1.2029900    -0.2211540
  C        0.0658190    -1.2029910    -0.2211540
  C        1.4498120     1.2013260    -0.0471800
  C        1.4498130    -1.2013260    -0.0471800
  C        2.1649180     0.0000000     0.0407490
  C        3.7031477     0.0000010     0.2806632
  H       -2.4338460    -0.0000040    -1.5729350
  H       -3.8872420     1.2699250     0.0031310
  H       -2.5562430     1.2534570     1.2541040
  H       -2.5562430    -1.2534530     1.2541090
  H       -3.8872430    -1.2699240     0.0031370
  H       -0.4732260     2.1464250    -0.2897140
  H       -0.4732250    -2.1464270    -0.2897140
  H        1.9843610     2.1482350     0.0181390
  H        1.9843620    -2.1482350     0.0181390
  H        4.1207180    -0.8853500    -0.1681390
  H        4.1207180     0.8853520    -0.1681380
  H        3.8883030     0.0000000     1.3432050
units angstrom
no_reorient  #important for SAPT in psi4, default
symmetry c1  #important for SAPT in psi4, default
}

set PROPERTIES_ORIGIN ["COM"]
properties('MP2/aug-cc-pvtz', properties = ['dipole'])
--------------------------------------------------------------------------

    Molecular point group: c1
  Charge       = 0
  Multiplicity = 1
  Basis Set: AUG-CC-PVTZ
    Blend: AUG-CC-PVTZ
  Basis Set: (AUG-CC-PVTZ AUX)
    Blend: AUG-CC-PVTZ-JKFIT

    Orbital Energies [Eh]
    ---------------------

    Doubly Occupied:

       1A    -11.239951     2A    -11.233926     3A    -11.232863
       4A    -11.229012     5A    -11.228855     6A    -11.227363
       7A    -11.227303     8A    -11.224551     9A    -11.223898
      10A    -11.221219    11A     -1.162749    12A     -1.128673
      13A     -1.034550    14A     -1.006406    15A     -0.937921
      16A     -0.833458    17A     -0.832705    18A     -0.808256
      19A     -0.765473    20A     -0.686493    21A     -0.651261
      22A     -0.632982    23A     -0.623692    24A     -0.597925
      25A     -0.578806    26A     -0.576992    27A     -0.547479
      28A     -0.521859    29A     -0.512252    30A     -0.489594
      31A     -0.484867    32A     -0.471812    33A     -0.424430
      34A     -0.412675    35A     -0.331248    36A     -0.313052

  @DF-RHF Final Energy:  -385.76797354386679

   => Energetics <=

    Nuclear Repulsion Energy =            481.7967364729695419
    One-Electron Energy =               -1475.8163125950247831
    Two-Electron Energy =                 608.2516025781884537
    Total Energy =                       -385.7679735438667876
  Basis Set: (AUG-CC-PVTZ AUX)
    Blend: AUG-CC-PVTZ-RI
    Molecular point group: c1

    Geometry (in Angstrom), charge = 0, multiplicity = 1:

       Center              X                  Y                   Z               Mass
    ------------   -----------------  -----------------  -----------------  -----------------
         C           -2.128717946985    -0.000001007630    -0.518726367828    12.000000000000
         C           -3.032013946985     0.752241992370     0.423734632172    12.000000000000
         C           -3.032013946985    -0.752240007630     0.423737632172    12.000000000000
         C           -0.652068946985    -0.000001007630    -0.300583367828    12.000000000000
         C            0.060063053015     1.202989992370    -0.211298367828    12.000000000000
         C            0.060063053015    -1.202991007630    -0.211298367828    12.000000000000
         C            1.444056053015     1.201325992370    -0.037324367828    12.000000000000
         C            1.444057053015    -1.201326007630    -0.037324367828    12.000000000000
         C            2.159162053015    -0.000000007630     0.050604632172    12.000000000000
         C            3.697391753015     0.000000992370     0.290518832172    12.000000000000
         H           -2.439601946985    -0.000004007630    -1.563079367828     1.007825032230
         H           -3.892997946985     1.269924992370     0.012986632172     1.007825032230
         H           -2.561998946985     1.253456992370     1.263959632172     1.007825032230
         H           -2.561998946985    -1.253453007630     1.263964632172     1.007825032230
         H           -3.892998946985    -1.269924007630     0.012992632172     1.007825032230
         H           -0.478981946985     2.146424992370    -0.279858367828     1.007825032230
         H           -0.478980946985    -2.146427007630    -0.279858367828     1.007825032230
         H            1.978605053015     2.148234992370     0.027994632172     1.007825032230
         H            1.978606053015    -2.148235007630     0.027994632172     1.007825032230
         H            4.114962053015    -0.885350007630    -0.158283367828     1.007825032230
         H            4.114962053015     0.885351992370    -0.158282367828     1.007825032230
         H            3.882547053015    -0.000000007630     1.353060632172     1.007825032230

  Basis Set: AUG-CC-PVTZ
    Blend: AUG-CC-PVTZ
  Basis Set: (AUG-CC-PVTZ AUX)
    Blend: AUG-CC-PVTZ-JKFIT
	 Reference Energy          =    -385.7679735438667876 [Eh]
	 Singles Energy            =      -0.0000000000000000 [Eh]
	 Same-Spin Energy          =      -0.4313978240224826 [Eh]
	 Opposite-Spin Energy      =      -1.4113024930240341 [Eh]
	 Correlation Energy        =      -1.8427003170465166 [Eh]
	 Total Energy              =    -387.6106738609133231 [Eh]

	 ================> DF-SCS-MP2 Energies <==================
	-----------------------------------------------------------
	 SCS Same-Spin Scale       =       0.3333333333333333 [-]
	 SCS Opposite-Spin Scale   =       1.2000000000000000 [-]
	 SCS Same-Spin Energy      =      -0.1437992746741608 [Eh]
	 SCS Opposite-Spin Energy  =      -1.6935629916288408 [Eh]
	 SCS Correlation Energy    =      -1.8373622663030016 [Eh]
	 SCS Total Energy          =    -387.6053358101697768 [Eh]
	-----------------------------------------------------------

  Dipole Moment: [D]
     X:     0.1102      Y:    -0.0000      Z:     0.0273     Total:     0.1135

*** Psi4 exiting successfully. Buy a developer a beer!
