                               Psi4 1.4a3.dev225

  ==> Input File <==

--------------------------------------------------------------------------
#psi4
#
memory 32 gb

molecule  {
0 1
  C       -2.1229620    -0.0000010    -0.5285820
  C       -3.0262580     0.7522420     0.4138790
  C       -3.0262580    -0.7522400     0.4138820
  C       -0.6463130    -0.0000010    -0.3104390
  C        0.0658190     1.2029900    -0.2211540
  C        0.0658190    -1.2029910    -0.2211540
  C        1.4490316     1.2500078    -0.0473194
  C        1.4498130    -1.2013260    -0.0471800
  C        2.1649180     0.0000000     0.0407490
  C        3.6537450     0.0000010     0.2729580
  H       -2.4338460    -0.0000040    -1.5729350
  H       -3.8872420     1.2699250     0.0031310
  H       -2.5562430     1.2534570     1.2541040
  H       -2.5562430    -1.2534530     1.2541090
  H       -3.8872430    -1.2699240     0.0031370
  H       -0.4732260     2.1464250    -0.2897140
  H       -0.4732250    -2.1464270    -0.2897140
  H        1.9843610     2.1482350     0.0181390
  H        1.9843620    -2.1482350     0.0181390
  H        4.1207180    -0.8853500    -0.1681390
  H        4.1207180     0.8853520    -0.1681380
  H        3.8883030     0.0000000     1.3432050
units angstrom
no_reorient  #important for SAPT in psi4, default
symmetry c1  #important for SAPT in psi4, default
}

set PROPERTIES_ORIGIN ["COM"]
properties('MP2/aug-cc-pvtz', properties = ['dipole'])
--------------------------------------------------------------------------

    Molecular point group: c1
  Charge       = 0
  Multiplicity = 1
  Basis Set: AUG-CC-PVTZ
    Blend: AUG-CC-PVTZ
  Basis Set: (AUG-CC-PVTZ AUX)
    Blend: AUG-CC-PVTZ-JKFIT

    Orbital Energies [Eh]
    ---------------------

    Doubly Occupied:

       1A    -11.242807     2A    -11.234008     3A    -11.233007
       4A    -11.229948     5A    -11.229766     6A    -11.228428
       7A    -11.227082     8A    -11.224523     9A    -11.223861
      10A    -11.222287    11A     -1.161739    12A     -1.127279
      13A     -1.037181    14A     -1.007993    15A     -0.935850
      16A     -0.834801    17A     -0.828979    18A     -0.808846
      19A     -0.766689    20A     -0.687921    21A     -0.651993
      22A     -0.633273    23A     -0.628092    24A     -0.601596
      25A     -0.580192    26A     -0.572275    27A     -0.540063
      28A     -0.526342    29A     -0.512199    30A     -0.490145
      31A     -0.482763    32A     -0.473328    33A     -0.423653
      34A     -0.413077    35A     -0.332430    36A     -0.308757

  @DF-RHF Final Energy:  -385.76606879413555

   => Energetics <=

    Nuclear Repulsion Energy =            481.8598129911952697
    One-Electron Energy =               -1475.9254193366532490
    Two-Electron Energy =                 608.2995375513224872
    Total Energy =                       -385.7660687941355491
  Basis Set: (AUG-CC-PVTZ AUX)
    Blend: AUG-CC-PVTZ-RI
    Molecular point group: c1

    Geometry (in Angstrom), charge = 0, multiplicity = 1:

       Center              X                  Y                   Z               Mass
    ------------   -----------------  -----------------  -----------------  -----------------
         C           -2.124159090003    -0.004423479813    -0.518013729320    12.000000000000
         C           -3.027455090003     0.747819520187     0.424447270680    12.000000000000
         C           -3.027455090003    -0.756662479813     0.424450270680    12.000000000000
         C           -0.647510090003    -0.004423479813    -0.299870729320    12.000000000000
         C            0.064621909997     1.198567520187    -0.210585729320    12.000000000000
         C            0.064621909997    -1.207413479813    -0.210585729320    12.000000000000
         C            1.447834509997     1.245585320187    -0.036751129320    12.000000000000
         C            1.448615909997    -1.205748479813    -0.036611729320    12.000000000000
         C            2.163720909997    -0.004422479813     0.051317270680    12.000000000000
         C            3.652547909997    -0.004421479813     0.283526270680    12.000000000000
         H           -2.435043090003    -0.004426479813    -1.562366729320     1.007825032230
         H           -3.888439090003     1.265502520187     0.013699270680     1.007825032230
         H           -2.557440090003     1.249034520187     1.264672270680     1.007825032230
         H           -2.557440090003    -1.257875479813     1.264677270680     1.007825032230
         H           -3.888440090003    -1.274346479813     0.013705270680     1.007825032230
         H           -0.474423090003     2.142002520187    -0.279145729320     1.007825032230
         H           -0.474422090003    -2.150849479813    -0.279145729320     1.007825032230
         H            1.983163909997     2.143812520187     0.028707270680     1.007825032230
         H            1.983164909997    -2.152657479813     0.028707270680     1.007825032230
         H            4.119520909997    -0.889772479813    -0.157570729320     1.007825032230
         H            4.119520909997     0.880929520187    -0.157569729320     1.007825032230
         H            3.887105909997    -0.004422479813     1.353773270680     1.007825032230

  Basis Set: AUG-CC-PVTZ
    Blend: AUG-CC-PVTZ
  Basis Set: (AUG-CC-PVTZ AUX)
    Blend: AUG-CC-PVTZ-JKFIT
	 Reference Energy          =    -385.7660687941355491 [Eh]
	 Singles Energy            =      -0.0000000000000000 [Eh]
	 Same-Spin Energy          =      -0.4316869485419936 [Eh]
	 Opposite-Spin Energy      =      -1.4118396487598277 [Eh]
	 Correlation Energy        =      -1.8435265973018213 [Eh]
	 Total Energy              =    -387.6095953914373808 [Eh]

	 ================> DF-SCS-MP2 Energies <==================
	-----------------------------------------------------------
	 SCS Same-Spin Scale       =       0.3333333333333333 [-]
	 SCS Opposite-Spin Scale   =       1.2000000000000000 [-]
	 SCS Same-Spin Energy      =      -0.1438956495139979 [Eh]
	 SCS Opposite-Spin Energy  =      -1.6942075785117932 [Eh]
	 SCS Correlation Energy    =      -1.8381032280257910 [Eh]
	 SCS Total Energy          =    -387.6041720221613218 [Eh]
	-----------------------------------------------------------

  Dipole Moment: [D]
     X:     0.1304      Y:     0.0105      Z:     0.0347     Total:     0.1354

*** Psi4 exiting successfully. Buy a developer a beer!
