                               Psi4 1.4a3.dev225

  ==> Input File <==

--------------------------------------------------------------------------
#psi4
#
memory 32 gb

molecule  {
0 1
  C       -2.1229620    -0.0000010    -0.5285820
  C       -3.0262580     0.7522420     0.4138790
  C       -3.0262580    -0.7522400     0.4138820
  C       -0.6463130    -0.0000010    -0.3104390
  C        0.0658190     1.2029900    -0.2211540
  C        0.0658190    -1.2029910    -0.2211540
  C        1.4498120     1.2013260    -0.0471800
  C        1.4498130    -1.2013260    -0.0471800
  C        2.1649180     0.0000000     0.0407490
  C        3.6537450     0.0000010     0.2729580
  H       -2.4623768    -0.0000043    -1.6687786
  H       -3.8872420     1.2699250     0.0031310
  H       -2.5562430     1.2534570     1.2541040
  H       -2.5562430    -1.2534530     1.2541090
  H       -3.8872430    -1.2699240     0.0031370
  H       -0.4732260     2.1464250    -0.2897140
  H       -0.4732250    -2.1464270    -0.2897140
  H        1.9843610     2.1482350     0.0181390
  H        1.9843620    -2.1482350     0.0181390
  H        4.1207180    -0.8853500    -0.1681390
  H        4.1207180     0.8853520    -0.1681380
  H        3.8883030     0.0000000     1.3432050
units angstrom
no_reorient  #important for SAPT in psi4, default
symmetry c1  #important for SAPT in psi4, default
}

set PROPERTIES_ORIGIN ["COM"]
properties('MP2/aug-cc-pvtz', properties = ['dipole'])
--------------------------------------------------------------------------

    Molecular point group: c1
  Charge       = 0
  Multiplicity = 1
  Basis Set: AUG-CC-PVTZ
    Blend: AUG-CC-PVTZ
  Basis Set: (AUG-CC-PVTZ AUX)
    Blend: AUG-CC-PVTZ-JKFIT

    Orbital Energies [Eh]
    ---------------------

    Doubly Occupied:

       1A    -11.244248     2A    -11.238358     3A    -11.234727
       4A    -11.229593     5A    -11.229442     6A    -11.227732
       7A    -11.227665     8A    -11.225447     9A    -11.224779
      10A    -11.222704    11A     -1.162966    12A     -1.129877
      13A     -1.039546    14A     -1.007063    15A     -0.936700
      16A     -0.834415    17A     -0.827271    18A     -0.809209
      19A     -0.760791    20A     -0.682785    21A     -0.650145
      22A     -0.634106    23A     -0.626416    24A     -0.596614
      25A     -0.577347    26A     -0.573394    27A     -0.538722
      28A     -0.522553    29A     -0.512706    30A     -0.490005
      31A     -0.484047    32A     -0.473048    33A     -0.423525
      34A     -0.413644    35A     -0.331765    36A     -0.311964

  @DF-RHF Final Energy:  -385.76254935138962

   => Energetics <=

    Nuclear Repulsion Energy =            482.1220225109412922
    One-Electron Energy =               -1476.4585054597821454
    Two-Electron Energy =                 608.5739335974511732
    Total Energy =                       -385.7625493513896799
  Basis Set: (AUG-CC-PVTZ AUX)
    Blend: AUG-CC-PVTZ-RI
    Molecular point group: c1

    Geometry (in Angstrom), charge = 0, multiplicity = 1:

       Center              X                  Y                   Z               Mass
    ------------   -----------------  -----------------  -----------------  -----------------
         C           -2.124012306129    -0.000001005341    -0.517295143686    12.000000000000
         C           -3.027308306129     0.752241994659     0.425165856314    12.000000000000
         C           -3.027308306129    -0.752240005341     0.425168856314    12.000000000000
         C           -0.647363306129    -0.000001005341    -0.299152143686    12.000000000000
         C            0.064768693871     1.202989994659    -0.209867143686    12.000000000000
         C            0.064768693871    -1.202991005341    -0.209867143686    12.000000000000
         C            1.448761693871     1.201325994659    -0.035893143686    12.000000000000
         C            1.448762693871    -1.201326005341    -0.035893143686    12.000000000000
         C            2.163867693871    -0.000000005341     0.052035856314    12.000000000000
         C            3.652694693871     0.000000994659     0.284244856314    12.000000000000
         H           -2.463427106129    -0.000004305341    -1.657491743686     1.007825032230
         H           -3.888292306129     1.269924994659     0.014417856314     1.007825032230
         H           -2.557293306129     1.253456994659     1.265390856314     1.007825032230
         H           -2.557293306129    -1.253453005341     1.265395856314     1.007825032230
         H           -3.888293306129    -1.269924005341     0.014423856314     1.007825032230
         H           -0.474276306129     2.146424994659    -0.278427143686     1.007825032230
         H           -0.474275306129    -2.146427005341    -0.278427143686     1.007825032230
         H            1.983310693871     2.148234994659     0.029425856314     1.007825032230
         H            1.983311693871    -2.148235005341     0.029425856314     1.007825032230
         H            4.119667693871    -0.885350005341    -0.156852143686     1.007825032230
         H            4.119667693871     0.885351994659    -0.156851143686     1.007825032230
         H            3.887252693871    -0.000000005341     1.354491856314     1.007825032230

  Basis Set: AUG-CC-PVTZ
    Blend: AUG-CC-PVTZ
  Basis Set: (AUG-CC-PVTZ AUX)
    Blend: AUG-CC-PVTZ-JKFIT
	 Reference Energy          =    -385.7625493513896231 [Eh]
	 Singles Energy            =      -0.0000000000000000 [Eh]
	 Same-Spin Energy          =      -0.4318133921702479 [Eh]
	 Opposite-Spin Energy      =      -1.4122422497536760 [Eh]
	 Correlation Energy        =      -1.8440556419239238 [Eh]
	 Total Energy              =    -387.6066049933135673 [Eh]

	 ================> DF-SCS-MP2 Energies <==================
	-----------------------------------------------------------
	 SCS Same-Spin Scale       =       0.3333333333333333 [-]
	 SCS Opposite-Spin Scale   =       1.2000000000000000 [-]
	 SCS Same-Spin Energy      =      -0.1439377973900826 [Eh]
	 SCS Opposite-Spin Energy  =      -1.6946906997044111 [Eh]
	 SCS Correlation Energy    =      -1.8386284970944937 [Eh]
	 SCS Total Energy          =    -387.6011778484840988 [Eh]
	-----------------------------------------------------------

  Dipole Moment: [D]
     X:     0.1438      Y:    -0.0000      Z:     0.0728     Total:     0.1612

*** Psi4 exiting successfully. Buy a developer a beer!
