                               Psi4 1.4a3.dev225

  ==> Input File <==

--------------------------------------------------------------------------
#psi4
#
memory 32 gb

molecule  {
0 1
  C       -2.1229620    -0.0000010    -0.5285820
  C       -3.0262580     0.7522420     0.4138790
  C       -3.0262580    -0.7522400     0.4138820
  C       -0.6463130    -0.0000010    -0.3104390
  C        0.0658190     1.2029900    -0.2211540
  C        0.0658190    -1.2029910    -0.2211540
  C        1.4498120     1.2013260    -0.0471800
  C        1.4498130    -1.2013260    -0.0471800
  C        2.1649180     0.0000000     0.0407490
  C        3.6537450     0.0000010     0.2729580
  H       -2.4338460    -0.0000040    -1.5729350
  H       -3.7285877     1.1745311     0.0788199
  H       -2.5562430     1.2534570     1.2541040
  H       -2.5562430    -1.2534530     1.2541090
  H       -3.8872430    -1.2699240     0.0031370
  H       -0.4732260     2.1464250    -0.2897140
  H       -0.4732250    -2.1464270    -0.2897140
  H        1.9843610     2.1482350     0.0181390
  H        1.9843620    -2.1482350     0.0181390
  H        4.1207180    -0.8853500    -0.1681390
  H        4.1207180     0.8853520    -0.1681380
  H        3.8883030     0.0000000     1.3432050
units angstrom
no_reorient  #important for SAPT in psi4, default
symmetry c1  #important for SAPT in psi4, default
}

set PROPERTIES_ORIGIN ["COM"]
properties('MP2/aug-cc-pvtz', properties = ['dipole'])
--------------------------------------------------------------------------

    Molecular point group: c1
  Charge       = 0
  Multiplicity = 1
  Basis Set: AUG-CC-PVTZ
    Blend: AUG-CC-PVTZ
  Basis Set: (AUG-CC-PVTZ AUX)
    Blend: AUG-CC-PVTZ-JKFIT

    Orbital Energies [Eh]
    ---------------------

    Doubly Occupied:

       1A    -11.237485     2A    -11.233519     3A    -11.232170
       4A    -11.228680     5A    -11.228494     6A    -11.227039
       7A    -11.226941     8A    -11.223399     9A    -11.222158
      10A    -11.200542    11A     -1.164309    12A     -1.132111
      13A     -1.039797    14A     -1.006300    15A     -0.937798
      16A     -0.855179    17A     -0.831778    18A     -0.816560
      19A     -0.766369    20A     -0.691022    21A     -0.667370
      22A     -0.633665    23A     -0.626751    24A     -0.598722
      25A     -0.576659    26A     -0.572921    27A     -0.539590
      28A     -0.533814    29A     -0.521477    30A     -0.489750
      31A     -0.483312    32A     -0.476293    33A     -0.423966
      34A     -0.413323    35A     -0.331071    36A     -0.311798

  @DF-RHF Final Energy:  -385.73414064877153

   => Energetics <=

    Nuclear Repulsion Energy =            483.7355188979428249
    One-Electron Energy =               -1479.5350564266334459
    Two-Electron Energy =                 610.0653968799191489
    Total Energy =                       -385.7341406487714721
  Basis Set: (AUG-CC-PVTZ AUX)
    Blend: AUG-CC-PVTZ-RI
    Molecular point group: c1

    Geometry (in Angstrom), charge = 0, multiplicity = 1:

       Center              X                  Y                   Z               Mass
    ------------   -----------------  -----------------  -----------------  -----------------
         C           -2.125440455566     0.000726810688    -0.518603869878    12.000000000000
         C           -3.028736455566     0.752969810688     0.423857130122    12.000000000000
         C           -3.028736455566    -0.751512189312     0.423860130122    12.000000000000
         C           -0.648791455566     0.000726810688    -0.300460869878    12.000000000000
         C            0.063340544434     1.203717810688    -0.211175869878    12.000000000000
         C            0.063340544434    -1.202263189312    -0.211175869878    12.000000000000
         C            1.447333544434     1.202053810688    -0.037201869878    12.000000000000
         C            1.447334544434    -1.200598189312    -0.037201869878    12.000000000000
         C            2.162439544434     0.000727810688     0.050727130122    12.000000000000
         C            3.651266544434     0.000728810688     0.282936130122    12.000000000000
         H           -2.436324455566     0.000723810688    -1.562956869878     1.007825032230
         H           -3.731066155566     1.175258910688     0.088798030122     1.007825032230
         H           -2.558721455566     1.254184810688     1.264082130122     1.007825032230
         H           -2.558721455566    -1.252725189312     1.264087130122     1.007825032230
         H           -3.889721455566    -1.269196189312     0.013115130122     1.007825032230
         H           -0.475704455566     2.147152810688    -0.279735869878     1.007825032230
         H           -0.475703455566    -2.145699189312    -0.279735869878     1.007825032230
         H            1.981882544434     2.148962810688     0.028117130122     1.007825032230
         H            1.981883544434    -2.147507189312     0.028117130122     1.007825032230
         H            4.118239544434    -0.884622189312    -0.158160869878     1.007825032230
         H            4.118239544434     0.886079810688    -0.158159869878     1.007825032230
         H            3.885824544434     0.000727810688     1.353183130122     1.007825032230

  Basis Set: AUG-CC-PVTZ
    Blend: AUG-CC-PVTZ
  Basis Set: (AUG-CC-PVTZ AUX)
    Blend: AUG-CC-PVTZ-JKFIT
	 Reference Energy          =    -385.7341406487715290 [Eh]
	 Singles Energy            =      -0.0000000000000000 [Eh]
	 Same-Spin Energy          =      -0.4317813231418636 [Eh]
	 Opposite-Spin Energy      =      -1.4111315085969296 [Eh]
	 Correlation Energy        =      -1.8429128317387931 [Eh]
	 Total Energy              =    -387.5770534805103011 [Eh]

	 ================> DF-SCS-MP2 Energies <==================
	-----------------------------------------------------------
	 SCS Same-Spin Scale       =       0.3333333333333333 [-]
	 SCS Opposite-Spin Scale   =       1.2000000000000000 [-]
	 SCS Same-Spin Energy      =      -0.1439271077139545 [Eh]
	 SCS Opposite-Spin Energy  =      -1.6933578103163154 [Eh]
	 SCS Correlation Energy    =      -1.8372849180302699 [Eh]
	 SCS Total Energy          =    -387.5714255668017927 [Eh]
	-----------------------------------------------------------

  Dipole Moment: [D]
     X:     0.0645      Y:     0.0380      Z:     0.0327     Total:     0.0817

*** Psi4 exiting successfully. Buy a developer a beer!
