                               Psi4 1.4a3.dev225

  ==> Input File <==

--------------------------------------------------------------------------
#psi4
#
memory 32 gb

molecule  {
0 1
  C       -2.1229620    -0.0000010    -0.5285820
  C       -3.0262580     0.7522420     0.4138790
  C       -3.0262580    -0.7522400     0.4138820
  C       -0.6463130    -0.0000010    -0.3104390
  C        0.0658190     1.2029900    -0.2211540
  C        0.0658190    -1.2029910    -0.2211540
  C        1.4498120     1.2013260    -0.0471800
  C        1.4498130    -1.2013260    -0.0471800
  C        2.1649180     0.0000000     0.0407490
  C        3.6537450     0.0000010     0.2729580
  H       -2.4338460    -0.0000040    -1.5729350
  H       -3.8872420     1.2699250     0.0031310
  H       -2.5562430     1.2534570     1.2541040
  H       -2.5562430    -1.2534530     1.2541090
  H       -3.8872430    -1.2699240     0.0031370
  H       -0.4732260     2.1464250    -0.2897140
  H       -0.4732250    -2.1464270    -0.2897140
  H        1.9843610     2.1482350     0.0181390
  H        1.9745478    -2.1308499     0.0169398
  H        4.1207180    -0.8853500    -0.1681390
  H        4.1207180     0.8853520    -0.1681380
  H        3.8883030     0.0000000     1.3432050
units angstrom
no_reorient  #important for SAPT in psi4, default
symmetry c1  #important for SAPT in psi4, default
}

set PROPERTIES_ORIGIN ["COM"]
properties('MP2/aug-cc-pvtz', properties = ['dipole'])
--------------------------------------------------------------------------

    Molecular point group: c1
  Charge       = 0
  Multiplicity = 1
  Basis Set: AUG-CC-PVTZ
    Blend: AUG-CC-PVTZ
  Basis Set: (AUG-CC-PVTZ AUX)
    Blend: AUG-CC-PVTZ-JKFIT

    Orbital Energies [Eh]
    ---------------------

    Doubly Occupied:

       1A    -11.237708     2A    -11.233975     3A    -11.232904
       4A    -11.229007     5A    -11.228712     6A    -11.227270
       7A    -11.225182     8A    -11.224598     9A    -11.223945
      10A    -11.222470    11A     -1.163314    12A     -1.130163
      13A     -1.039096    14A     -1.007207    15A     -0.936768
      16A     -0.834428    17A     -0.831633    18A     -0.809159
      19A     -0.766428    20A     -0.687542    21A     -0.652473
      22A     -0.633638    23A     -0.627282    24A     -0.600204
      25A     -0.577913    26A     -0.573152    27A     -0.538840
      28A     -0.528359    29A     -0.512263    30A     -0.489694
      31A     -0.484169    32A     -0.476174    33A     -0.424185
      34A     -0.412757    35A     -0.331381    36A     -0.312143

  @DF-RHF Final Energy:  -385.76968148608927

   => Energetics <=

    Nuclear Repulsion Energy =            482.7243580335107254
    One-Electron Energy =               -1477.6558102418325689
    Two-Electron Energy =                 609.1617707222326317
    Total Energy =                       -385.7696814860892118
  Basis Set: (AUG-CC-PVTZ AUX)
    Blend: AUG-CC-PVTZ-RI
    Molecular point group: c1

    Geometry (in Angstrom), charge = 0, multiplicity = 1:

       Center              X                  Y                   Z               Mass
    ------------   -----------------  -----------------  -----------------  -----------------
         C           -2.124155106500    -0.000133649174    -0.518017243610    12.000000000000
         C           -3.027451106500     0.752109350826     0.424443756390    12.000000000000
         C           -3.027451106500    -0.752372649174     0.424446756390    12.000000000000
         C           -0.647506106500    -0.000133649174    -0.299874243610    12.000000000000
         C            0.064625893500     1.202857350826    -0.210589243610    12.000000000000
         C            0.064625893500    -1.203123649174    -0.210589243610    12.000000000000
         C            1.448618893500     1.201193350826    -0.036615243610    12.000000000000
         C            1.448619893500    -1.201458649174    -0.036615243610    12.000000000000
         C            2.163724893500    -0.000132649174     0.051313756390    12.000000000000
         C            3.652551893500    -0.000131649174     0.283522756390    12.000000000000
         H           -2.435039106500    -0.000136649174    -1.562370243610     1.007825032230
         H           -3.888435106500     1.269792350826     0.013695756390     1.007825032230
         H           -2.557436106500     1.253324350826     1.264668756390     1.007825032230
         H           -2.557436106500    -1.253585649174     1.264673756390     1.007825032230
         H           -3.888436106500    -1.270056649174     0.013701756390     1.007825032230
         H           -0.474419106500     2.146292350826    -0.279149243610     1.007825032230
         H           -0.474418106500    -2.146559649174    -0.279149243610     1.007825032230
         H            1.983167893500     2.148102350826     0.028703756390     1.007825032230
         H            1.973354693500    -2.130982549174     0.027504556390     1.007825032230
         H            4.119524893500    -0.885482649174    -0.157574243610     1.007825032230
         H            4.119524893500     0.885219350826    -0.157573243610     1.007825032230
         H            3.887109893500    -0.000132649174     1.353769756390     1.007825032230

  Basis Set: AUG-CC-PVTZ
    Blend: AUG-CC-PVTZ
  Basis Set: (AUG-CC-PVTZ AUX)
    Blend: AUG-CC-PVTZ-JKFIT
	 Reference Energy          =    -385.7696814860892687 [Eh]
	 Singles Energy            =      -0.0000000000000000 [Eh]
	 Same-Spin Energy          =      -0.4316702722052667 [Eh]
	 Opposite-Spin Energy      =      -1.4113442807306527 [Eh]
	 Correlation Energy        =      -1.8430145529359194 [Eh]
	 Total Energy              =    -387.6126960390251952 [Eh]

	 ================> DF-SCS-MP2 Energies <==================
	-----------------------------------------------------------
	 SCS Same-Spin Scale       =       0.3333333333333333 [-]
	 SCS Opposite-Spin Scale   =       1.2000000000000000 [-]
	 SCS Same-Spin Energy      =      -0.1438900907350889 [Eh]
	 SCS Opposite-Spin Energy  =      -1.6936131368767831 [Eh]
	 SCS Correlation Energy    =      -1.8375032276118719 [Eh]
	 SCS Total Energy          =    -387.6071847137011446 [Eh]
	-----------------------------------------------------------

  Dipole Moment: [D]
     X:     0.1221      Y:    -0.0076      Z:     0.0295     Total:     0.1258

*** Psi4 exiting successfully. Buy a developer a beer!
