                               Psi4 1.4a3.dev225

  ==> Input File <==

--------------------------------------------------------------------------
#psi4
#
memory 32 gb

molecule  {
0 1
  C       -2.1229620    -0.0000010    -0.5285820
  C       -3.0262580     0.7522420     0.4138790
  C       -3.0562346    -0.7772037     0.4451585
  C       -0.6463130    -0.0000010    -0.3104390
  C        0.0658190     1.2029900    -0.2211540
  C        0.0658190    -1.2029910    -0.2211540
  C        1.4498120     1.2013260    -0.0471800
  C        1.4498130    -1.2013260    -0.0471800
  C        2.1649180     0.0000000     0.0407490
  C        3.6537450     0.0000010     0.2729580
  H       -2.4338460    -0.0000040    -1.5729350
  H       -3.8872420     1.2699250     0.0031310
  H       -2.5562430     1.2534570     1.2541040
  H       -2.5562430    -1.2534530     1.2541090
  H       -3.8872430    -1.2699240     0.0031370
  H       -0.4732260     2.1464250    -0.2897140
  H       -0.4732250    -2.1464270    -0.2897140
  H        1.9843610     2.1482350     0.0181390
  H        1.9843620    -2.1482350     0.0181390
  H        4.1207180    -0.8853500    -0.1681390
  H        4.1207180     0.8853520    -0.1681380
  H        3.8883030     0.0000000     1.3432050
units angstrom
no_reorient  #important for SAPT in psi4, default
symmetry c1  #important for SAPT in psi4, default
}

set PROPERTIES_ORIGIN ["COM"]
properties('MP2/aug-cc-pvtz', properties = ['dipole'])
--------------------------------------------------------------------------

    Molecular point group: c1
  Charge       = 0
  Multiplicity = 1
  Basis Set: AUG-CC-PVTZ
    Blend: AUG-CC-PVTZ
  Basis Set: (AUG-CC-PVTZ AUX)
    Blend: AUG-CC-PVTZ-JKFIT

    Orbital Energies [Eh]
    ---------------------

    Doubly Occupied:

       1A    -11.237980     2A    -11.235446     3A    -11.234071
       4A    -11.229294     5A    -11.228945     6A    -11.227550
       7A    -11.227544     8A    -11.227365     9A    -11.224023
      10A    -11.222495    11A     -1.159172    12A     -1.123089
      13A     -1.038208    14A     -1.006766    15A     -0.936588
      16A     -0.836837    17A     -0.831115    18A     -0.811209
      19A     -0.765373    20A     -0.686253    21A     -0.650072
      22A     -0.633805    23A     -0.624952    24A     -0.598293
      25A     -0.577079    26A     -0.573213    27A     -0.538604
      28A     -0.532793    29A     -0.520048    30A     -0.489530
      31A     -0.483469    32A     -0.476665    33A     -0.424377
      34A     -0.402511    35A     -0.331558    36A     -0.312062

  @DF-RHF Final Energy:  -385.76717340714487

   => Energetics <=

    Nuclear Repulsion Energy =            481.7078092961207290
    One-Electron Energy =               -1475.6332591690536447
    Two-Electron Energy =                 608.1582764657879352
    Total Energy =                       -385.7671734071449237
  Basis Set: (AUG-CC-PVTZ AUX)
    Blend: AUG-CC-PVTZ-RI
    Molecular point group: c1

    Geometry (in Angstrom), charge = 0, multiplicity = 1:

       Center              X                  Y                   Z               Mass
    ------------   -----------------  -----------------  -----------------  -----------------
         C           -2.121506776770     0.002266806396    -0.520867690017    12.000000000000
         C           -3.024802776770     0.754509806396     0.421593309983    12.000000000000
         C           -3.054779376770    -0.774935893604     0.452872809983    12.000000000000
         C           -0.644857776770     0.002266806396    -0.302724690017    12.000000000000
         C            0.067274223230     1.205257806396    -0.213439690017    12.000000000000
         C            0.067274223230    -1.200723193604    -0.213439690017    12.000000000000
         C            1.451267223230     1.203593806396    -0.039465690017    12.000000000000
         C            1.451268223230    -1.199058193604    -0.039465690017    12.000000000000
         C            2.166373223230     0.002267806396     0.048463309983    12.000000000000
         C            3.655200223230     0.002268806396     0.280672309983    12.000000000000
         H           -2.432390776770     0.002263806396    -1.565220690017     1.007825032230
         H           -3.885786776770     1.272192806396     0.010845309983     1.007825032230
         H           -2.554787776770     1.255724806396     1.261818309983     1.007825032230
         H           -2.554787776770    -1.251185193604     1.261823309983     1.007825032230
         H           -3.885787776770    -1.267656193604     0.010851309983     1.007825032230
         H           -0.471770776770     2.148692806396    -0.281999690017     1.007825032230
         H           -0.471769776770    -2.144159193604    -0.281999690017     1.007825032230
         H            1.985816223230     2.150502806396     0.025853309983     1.007825032230
         H            1.985817223230    -2.145967193604     0.025853309983     1.007825032230
         H            4.122173223230    -0.883082193604    -0.160424690017     1.007825032230
         H            4.122173223230     0.887619806396    -0.160423690017     1.007825032230
         H            3.889758223230     0.002267806396     1.350919309983     1.007825032230

  Basis Set: AUG-CC-PVTZ
    Blend: AUG-CC-PVTZ
  Basis Set: (AUG-CC-PVTZ AUX)
    Blend: AUG-CC-PVTZ-JKFIT
	 Reference Energy          =    -385.7671734071448668 [Eh]
	 Singles Energy            =      -0.0000000000000000 [Eh]
	 Same-Spin Energy          =      -0.4316325972824254 [Eh]
	 Opposite-Spin Energy      =      -1.4119546516325920 [Eh]
	 Correlation Energy        =      -1.8435872489150174 [Eh]
	 Total Energy              =    -387.6107606560598811 [Eh]

	 ================> DF-SCS-MP2 Energies <==================
	-----------------------------------------------------------
	 SCS Same-Spin Scale       =       0.3333333333333333 [-]
	 SCS Opposite-Spin Scale   =       1.2000000000000000 [-]
	 SCS Same-Spin Energy      =      -0.1438775324274751 [Eh]
	 SCS Opposite-Spin Energy  =      -1.6943455819591104 [Eh]
	 SCS Correlation Energy    =      -1.8382231143865855 [Eh]
	 SCS Total Energy          =    -387.6053965215314747 [Eh]
	-----------------------------------------------------------

  Dipole Moment: [D]
     X:     0.1370      Y:     0.0337      Z:     0.0154     Total:     0.1419

*** Psi4 exiting successfully. Buy a developer a beer!
