                               Psi4 1.4a3.dev225

  ==> Input File <==

--------------------------------------------------------------------------
#psi4
#
memory 32 gb

molecule  {
0 1
  C       -2.1229620    -0.0000010    -0.5285820
  C       -3.0262580     0.7522420     0.4138790
  C       -3.0262580    -0.7522400     0.4138820
  C       -0.6463130    -0.0000010    -0.3104390
  C        0.0658190     1.2029900    -0.2211540
  C        0.0658190    -1.2029910    -0.2211540
  C        1.4498120     1.2013260    -0.0471800
  C        1.4498130    -1.2013260    -0.0471800
  C        2.1649180     0.0000000     0.0407490
  C        3.6537450     0.0000010     0.2729580
  H       -2.4338460    -0.0000040    -1.5729350
  H       -3.8872420     1.2699250     0.0031310
  H       -2.5562430     1.2534570     1.2541040
  H       -2.5562430    -1.2534530     1.2541090
  H       -3.8872430    -1.2699240     0.0031370
  H       -0.4732260     2.1464250    -0.2897140
  H       -0.4732250    -2.1464270    -0.2897140
  H        1.9843610     2.1482350     0.0181390
  H        1.9843620    -2.1482350     0.0181390
  H        4.1207180    -0.8853500    -0.1681390
  H        4.1634093     0.9662921    -0.2084636
  H        3.8883030     0.0000000     1.3432050
units angstrom
no_reorient  #important for SAPT in psi4, default
symmetry c1  #important for SAPT in psi4, default
}

set PROPERTIES_ORIGIN ["COM"]
properties('MP2/aug-cc-pvtz', properties = ['dipole'])
--------------------------------------------------------------------------

    Molecular point group: c1
  Charge       = 0
  Multiplicity = 1
  Basis Set: AUG-CC-PVTZ
    Blend: AUG-CC-PVTZ
  Basis Set: (AUG-CC-PVTZ AUX)
    Blend: AUG-CC-PVTZ-JKFIT

    Orbital Energies [Eh]
    ---------------------

    Doubly Occupied:

       1A    -11.238900     2A    -11.234547     3A    -11.234280
       4A    -11.233271     5A    -11.229644     6A    -11.229309
       7A    -11.228219     8A    -11.227682     9A    -11.224888
      10A    -11.224235    11A     -1.163693    12A     -1.130371
      13A     -1.037827    14A     -1.007143    15A     -0.931827
      16A     -0.834243    17A     -0.830231    18A     -0.808984
      19A     -0.765751    20A     -0.687034    21A     -0.652492
      22A     -0.632429    23A     -0.626227    24A     -0.599601
      25A     -0.577405    26A     -0.571283    27A     -0.530980
      28A     -0.523259    29A     -0.512400    30A     -0.490218
      31A     -0.482731    32A     -0.475814    33A     -0.424438
      34A     -0.413052    35A     -0.331867    36A     -0.312589

  @DF-RHF Final Energy:  -385.76297109743439

   => Energetics <=

    Nuclear Repulsion Energy =            482.2167708952912903
    One-Electron Energy =               -1476.6417571295717153
    Two-Electron Energy =                 608.6620151368459801
    Total Energy =                       -385.7629710974343880
  Basis Set: (AUG-CC-PVTZ AUX)
    Blend: AUG-CC-PVTZ-RI
    Molecular point group: c1

    Geometry (in Angstrom), charge = 0, multiplicity = 1:

       Center              X                  Y                   Z               Mass
    ------------   -----------------  -----------------  -----------------  -----------------
         C           -2.124555703023    -0.000618549080    -0.517718724411    12.000000000000
         C           -3.027851703023     0.751624450920     0.424742275589    12.000000000000
         C           -3.027851703023    -0.752857549080     0.424745275589    12.000000000000
         C           -0.647906703023    -0.000618549080    -0.299575724411    12.000000000000
         C            0.064225296977     1.202372450920    -0.210290724411    12.000000000000
         C            0.064225296977    -1.203608549080    -0.210290724411    12.000000000000
         C            1.448218296977     1.200708450920    -0.036316724411    12.000000000000
         C            1.448219296977    -1.201943549080    -0.036316724411    12.000000000000
         C            2.163324296977    -0.000617549080     0.051612275589    12.000000000000
         C            3.652151296977    -0.000616549080     0.283821275589    12.000000000000
         H           -2.435439703023    -0.000621549080    -1.562071724411     1.007825032230
         H           -3.888835703023     1.269307450920     0.013994275589     1.007825032230
         H           -2.557836703023     1.252839450920     1.264967275589     1.007825032230
         H           -2.557836703023    -1.254070549080     1.264972275589     1.007825032230
         H           -3.888836703023    -1.270541549080     0.014000275589     1.007825032230
         H           -0.474819703023     2.145807450920    -0.278850724411     1.007825032230
         H           -0.474818703023    -2.147044549080    -0.278850724411     1.007825032230
         H            1.982767296977     2.147617450920     0.029002275589     1.007825032230
         H            1.982768296977    -2.148852549080     0.029002275589     1.007825032230
         H            4.119124296977    -0.885967549080    -0.157275724411     1.007825032230
         H            4.161815596977     0.965674550920    -0.197600324411     1.007825032230
         H            3.886709296977    -0.000617549080     1.354068275589     1.007825032230

  Basis Set: AUG-CC-PVTZ
    Blend: AUG-CC-PVTZ
  Basis Set: (AUG-CC-PVTZ AUX)
    Blend: AUG-CC-PVTZ-JKFIT
	 Reference Energy          =    -385.7629710974343880 [Eh]
	 Singles Energy            =      -0.0000000000000000 [Eh]
	 Same-Spin Energy          =      -0.4317275735801860 [Eh]
	 Opposite-Spin Energy      =      -1.4122372909792205 [Eh]
	 Correlation Energy        =      -1.8439648645594064 [Eh]
	 Total Energy              =    -387.6069359619937700 [Eh]

	 ================> DF-SCS-MP2 Energies <==================
	-----------------------------------------------------------
	 SCS Same-Spin Scale       =       0.3333333333333333 [-]
	 SCS Opposite-Spin Scale   =       1.2000000000000000 [-]
	 SCS Same-Spin Energy      =      -0.1439091911933953 [Eh]
	 SCS Opposite-Spin Energy  =      -1.6946847491750645 [Eh]
	 SCS Correlation Energy    =      -1.8385939403684599 [Eh]
	 SCS Total Energy          =    -387.6015650378028568 [Eh]
	-----------------------------------------------------------

  Dipole Moment: [D]
     X:     0.0581      Y:    -0.0395      Z:     0.0439     Total:     0.0828

*** Psi4 exiting successfully. Buy a developer a beer!
