                               Psi4 1.4a3.dev225

  ==> Input File <==

--------------------------------------------------------------------------
#psi4
#
memory 32 gb

molecule  {
0 1
  C       -2.1229620    -0.0000010    -0.5285820
  C       -3.0262580     0.7522420     0.4138790
  C       -3.0262580    -0.7522400     0.4138820
  C       -0.6463130    -0.0000010    -0.3104390
  C        0.0658190     1.2029900    -0.2211540
  C        0.0658190    -1.2029910    -0.2211540
  C        1.4299682     1.2013499    -0.0496745
  C        1.4498130    -1.2013260    -0.0471800
  C        2.1649180     0.0000000     0.0407490
  C        3.6537450     0.0000010     0.2729580
  H       -2.4338460    -0.0000040    -1.5729350
  H       -3.8872420     1.2699250     0.0031310
  H       -2.5562430     1.2534570     1.2541040
  H       -2.5562430    -1.2534530     1.2541090
  H       -3.8872430    -1.2699240     0.0031370
  H       -0.4732260     2.1464250    -0.2897140
  H       -0.4732250    -2.1464270    -0.2897140
  H        1.9843610     2.1482350     0.0181390
  H        1.9843620    -2.1482350     0.0181390
  H        4.1207180    -0.8853500    -0.1681390
  H        4.1207180     0.8853520    -0.1681380
  H        3.8883030     0.0000000     1.3432050
units angstrom
no_reorient  #important for SAPT in psi4, default
symmetry c1  #important for SAPT in psi4, default
}

set PROPERTIES_ORIGIN ["COM"]
properties('MP2/aug-cc-pvtz', properties = ['dipole'])
--------------------------------------------------------------------------

    Molecular point group: c1
  Charge       = 0
  Multiplicity = 1
  Basis Set: AUG-CC-PVTZ
    Blend: AUG-CC-PVTZ
  Basis Set: (AUG-CC-PVTZ AUX)
    Blend: AUG-CC-PVTZ-JKFIT

    Orbital Energies [Eh]
    ---------------------

    Doubly Occupied:

       1A    -11.238879     2A    -11.234030     3A    -11.232920
       4A    -11.228686     5A    -11.227917     6A    -11.227116
       7A    -11.226284     8A    -11.224612     9A    -11.223958
      10A    -11.223064    11A     -1.163801    12A     -1.130230
      13A     -1.038665    14A     -1.008771    15A     -0.937011
      16A     -0.833130    17A     -0.831897    18A     -0.807874
      19A     -0.766157    20A     -0.687026    21A     -0.652712
      22A     -0.634595    23A     -0.625288    24A     -0.598354
      25A     -0.577158    26A     -0.573251    27A     -0.539029
      28A     -0.528668    29A     -0.512291    30A     -0.490957
      31A     -0.480540    32A     -0.477630    33A     -0.424216
      34A     -0.412663    35A     -0.333821    36A     -0.310703

  @DF-RHF Final Energy:  -385.76907456460674

   => Energetics <=

    Nuclear Repulsion Energy =            482.7852325911684943
    One-Electron Energy =               -1477.7808052117813986
    Two-Electron Energy =                 609.2264980560061076
    Total Energy =                       -385.7690745646067398
  Basis Set: (AUG-CC-PVTZ AUX)
    Blend: AUG-CC-PVTZ-RI
    Molecular point group: c1

    Geometry (in Angstrom), charge = 0, multiplicity = 1:

       Center              X                  Y                   Z               Mass
    ------------   -----------------  -----------------  -----------------  -----------------
         C           -2.122427285587    -0.000003178812    -0.517799781516    12.000000000000
         C           -3.025723285587     0.752239821188     0.424661218484    12.000000000000
         C           -3.025723285587    -0.752242178812     0.424664218484    12.000000000000
         C           -0.645778285587    -0.000003178812    -0.299656781516    12.000000000000
         C            0.066353714413     1.202987821188    -0.210371781516    12.000000000000
         C            0.066353714413    -1.202993178812    -0.210371781516    12.000000000000
         C            1.430502914413     1.201347721188    -0.038892281516    12.000000000000
         C            1.450347714413    -1.201328178812    -0.036397781516    12.000000000000
         C            2.165452714413    -0.000002178812     0.051531218484    12.000000000000
         C            3.654279714413    -0.000001178812     0.283740218484    12.000000000000
         H           -2.433311285587    -0.000006178812    -1.562152781516     1.007825032230
         H           -3.886707285587     1.269922821188     0.013913218484     1.007825032230
         H           -2.555708285587     1.253454821188     1.264886218484     1.007825032230
         H           -2.555708285587    -1.253455178812     1.264891218484     1.007825032230
         H           -3.886708285587    -1.269926178812     0.013919218484     1.007825032230
         H           -0.472691285587     2.146422821188    -0.278931781516     1.007825032230
         H           -0.472690285587    -2.146429178812    -0.278931781516     1.007825032230
         H            1.984895714413     2.148232821188     0.028921218484     1.007825032230
         H            1.984896714413    -2.148237178812     0.028921218484     1.007825032230
         H            4.121252714413    -0.885352178812    -0.157356781516     1.007825032230
         H            4.121252714413     0.885349821188    -0.157355781516     1.007825032230
         H            3.888837714413    -0.000002178812     1.353987218484     1.007825032230

  Basis Set: AUG-CC-PVTZ
    Blend: AUG-CC-PVTZ
  Basis Set: (AUG-CC-PVTZ AUX)
    Blend: AUG-CC-PVTZ-JKFIT
	 Reference Energy          =    -385.7690745646067398 [Eh]
	 Singles Energy            =      -0.0000000000000000 [Eh]
	 Same-Spin Energy          =      -0.4317247158506304 [Eh]
	 Opposite-Spin Energy      =      -1.4114608451968111 [Eh]
	 Correlation Energy        =      -1.8431855610474415 [Eh]
	 Total Energy              =    -387.6122601256541884 [Eh]

	 ================> DF-SCS-MP2 Energies <==================
	-----------------------------------------------------------
	 SCS Same-Spin Scale       =       0.3333333333333333 [-]
	 SCS Opposite-Spin Scale   =       1.2000000000000000 [-]
	 SCS Same-Spin Energy      =      -0.1439082386168768 [Eh]
	 SCS Opposite-Spin Energy  =      -1.6937530142361734 [Eh]
	 SCS Correlation Energy    =      -1.8376612528530503 [Eh]
	 SCS Total Energy          =    -387.6067358174597643 [Eh]
	-----------------------------------------------------------

  Dipole Moment: [D]
     X:     0.1275      Y:    -0.0057      Z:     0.0305     Total:     0.1313

*** Psi4 exiting successfully. Buy a developer a beer!
