                               Psi4 1.4a3.dev225

  ==> Input File <==

--------------------------------------------------------------------------
#psi4
#
memory 32 gb

molecule  {
0 1
  C       -2.1229620    -0.0000010    -0.5285820
  C       -3.0470484     0.7445137     0.3997542
  C       -3.0262580    -0.7522400     0.4138820
  C       -0.6463130    -0.0000010    -0.3104390
  C        0.0658190     1.2029900    -0.2211540
  C        0.0658190    -1.2029910    -0.2211540
  C        1.4498120     1.2013260    -0.0471800
  C        1.4498130    -1.2013260    -0.0471800
  C        2.1649180     0.0000000     0.0407490
  C        3.6537450     0.0000010     0.2729580
  H       -2.4338460    -0.0000040    -1.5729350
  H       -3.8872420     1.2699250     0.0031310
  H       -2.5562430     1.2534570     1.2541040
  H       -2.5562430    -1.2534530     1.2541090
  H       -3.8872430    -1.2699240     0.0031370
  H       -0.4732260     2.1464250    -0.2897140
  H       -0.4732250    -2.1464270    -0.2897140
  H        1.9843610     2.1482350     0.0181390
  H        1.9843620    -2.1482350     0.0181390
  H        4.1207180    -0.8853500    -0.1681390
  H        4.1207180     0.8853520    -0.1681380
  H        3.8883030     0.0000000     1.3432050
units angstrom
no_reorient  #important for SAPT in psi4, default
symmetry c1  #important for SAPT in psi4, default
}

set PROPERTIES_ORIGIN ["COM"]
properties('MP2/aug-cc-pvtz', properties = ['dipole'])
--------------------------------------------------------------------------

    Molecular point group: c1
  Charge       = 0
  Multiplicity = 1
  Basis Set: AUG-CC-PVTZ
    Blend: AUG-CC-PVTZ
  Basis Set: (AUG-CC-PVTZ AUX)
    Blend: AUG-CC-PVTZ-JKFIT

    Orbital Energies [Eh]
    ---------------------

    Doubly Occupied:

       1A    -11.237969     2A    -11.234319     3A    -11.232661
       4A    -11.229262     5A    -11.229058     6A    -11.227505
       7A    -11.227394     8A    -11.224718     9A    -11.223981
      10A    -11.222474    11A     -1.163675    12A     -1.130870
      13A     -1.039460    14A     -1.006767    15A     -0.936877
      16A     -0.833590    17A     -0.831865    18A     -0.808694
      19A     -0.765580    20A     -0.686295    21A     -0.654941
      22A     -0.633809    23A     -0.626540    24A     -0.598388
      25A     -0.577072    26A     -0.573172    27A     -0.538509
      28A     -0.528159    29A     -0.510525    30A     -0.490201
      31A     -0.483669    32A     -0.476184    33A     -0.426324
      34A     -0.411480    35A     -0.331510    36A     -0.312382

  @DF-RHF Final Energy:  -385.76871772504546

   => Energetics <=

    Nuclear Repulsion Energy =            482.5348040991768244
    One-Electron Energy =               -1477.2752835001967924
    Two-Electron Energy =                 608.9717616759744487
    Total Energy =                       -385.7687177250454624
  Basis Set: (AUG-CC-PVTZ AUX)
    Blend: AUG-CC-PVTZ-RI
    Molecular point group: c1

    Geometry (in Angstrom), charge = 0, multiplicity = 1:

       Center              X                  Y                   Z               Mass
    ------------   -----------------  -----------------  -----------------  -----------------
         C           -2.122341292214     0.000701065666    -0.516743233109    12.000000000000
         C           -3.046427692214     0.745215765666     0.411592966891    12.000000000000
         C           -3.025637292214    -0.751537934334     0.425720766891    12.000000000000
         C           -0.645692292214     0.000701065666    -0.298600233109    12.000000000000
         C            0.066439707786     1.203692065666    -0.209315233109    12.000000000000
         C            0.066439707786    -1.202288934334    -0.209315233109    12.000000000000
         C            1.450432707786     1.202028065666    -0.035341233109    12.000000000000
         C            1.450433707786    -1.200623934334    -0.035341233109    12.000000000000
         C            2.165538707786     0.000702065666     0.052587766891    12.000000000000
         C            3.654365707786     0.000703065666     0.284796766891    12.000000000000
         H           -2.433225292214     0.000698065666    -1.561096233109     1.007825032230
         H           -3.886621292214     1.270627065666     0.014969766891     1.007825032230
         H           -2.555622292214     1.254159065666     1.265942766891     1.007825032230
         H           -2.555622292214    -1.252750934334     1.265947766891     1.007825032230
         H           -3.886622292214    -1.269221934334     0.014975766891     1.007825032230
         H           -0.472605292214     2.147127065666    -0.277875233109     1.007825032230
         H           -0.472604292214    -2.145724934334    -0.277875233109     1.007825032230
         H            1.984981707786     2.148937065666     0.029977766891     1.007825032230
         H            1.984982707786    -2.147532934334     0.029977766891     1.007825032230
         H            4.121338707786    -0.884647934334    -0.156300233109     1.007825032230
         H            4.121338707786     0.886054065666    -0.156299233109     1.007825032230
         H            3.888923707786     0.000702065666     1.355043766891     1.007825032230

  Basis Set: AUG-CC-PVTZ
    Blend: AUG-CC-PVTZ
  Basis Set: (AUG-CC-PVTZ AUX)
    Blend: AUG-CC-PVTZ-JKFIT
	 Reference Energy          =    -385.7687177250454624 [Eh]
	 Singles Energy            =      -0.0000000000000000 [Eh]
	 Same-Spin Energy          =      -0.4317336313093421 [Eh]
	 Opposite-Spin Energy      =      -1.4114773364249729 [Eh]
	 Correlation Energy        =      -1.8432109677343149 [Eh]
	 Total Energy              =    -387.6119286927797702 [Eh]

	 ================> DF-SCS-MP2 Energies <==================
	-----------------------------------------------------------
	 SCS Same-Spin Scale       =       0.3333333333333333 [-]
	 SCS Opposite-Spin Scale   =       1.2000000000000000 [-]
	 SCS Same-Spin Energy      =      -0.1439112104364473 [Eh]
	 SCS Opposite-Spin Energy  =      -1.6937728037099673 [Eh]
	 SCS Correlation Energy    =      -1.8376840141464146 [Eh]
	 SCS Total Energy          =    -387.6064017391918810 [Eh]
	-----------------------------------------------------------

  Dipole Moment: [D]
     X:     0.1105      Y:     0.0049      Z:     0.0263     Total:     0.1137

*** Psi4 exiting successfully. Buy a developer a beer!
