                               Psi4 1.4a3.dev225

  ==> Input File <==

--------------------------------------------------------------------------
#psi4
#
memory 32 gb

molecule  {
0 1
  C       -2.1229620    -0.0000010    -0.5285820
  C       -3.0262580     0.7522420     0.4138790
  C       -3.0262580    -0.7522400     0.4138820
  C       -0.6463130    -0.0000010    -0.3104390
  C        0.0658190     1.2029900    -0.2211540
  C        0.0658190    -1.2029910    -0.2211540
  C        1.4498120     1.2013260    -0.0471800
  C        1.4498130    -1.2013260    -0.0471800
  C        2.1649180     0.0000000     0.0407490
  C        3.6537450     0.0000010     0.2729580
  H       -2.4338460    -0.0000040    -1.5729350
  H       -3.8872420     1.2699250     0.0031310
  H       -2.5562430     1.2534570     1.2541040
  H       -2.5562430    -1.2534530     1.2541090
  H       -3.7285885    -1.1745299     0.0788253
  H       -0.4732260     2.1464250    -0.2897140
  H       -0.4732250    -2.1464270    -0.2897140
  H        1.9843610     2.1482350     0.0181390
  H        1.9843620    -2.1482350     0.0181390
  H        4.1207180    -0.8853500    -0.1681390
  H        4.1207180     0.8853520    -0.1681380
  H        3.8883030     0.0000000     1.3432050
units angstrom
no_reorient  #important for SAPT in psi4, default
symmetry c1  #important for SAPT in psi4, default
}

set PROPERTIES_ORIGIN ["COM"]
properties('MP2/aug-cc-pvtz', properties = ['dipole'])
--------------------------------------------------------------------------

    Molecular point group: c1
  Charge       = 0
  Multiplicity = 1
  Basis Set: AUG-CC-PVTZ
    Blend: AUG-CC-PVTZ
  Basis Set: (AUG-CC-PVTZ AUX)
    Blend: AUG-CC-PVTZ-JKFIT

    Orbital Energies [Eh]
    ---------------------

    Doubly Occupied:

       1A    -11.237485     2A    -11.233519     3A    -11.232170
       4A    -11.228680     5A    -11.228494     6A    -11.227039
       7A    -11.226941     8A    -11.223399     9A    -11.222158
      10A    -11.200542    11A     -1.164309    12A     -1.132111
      13A     -1.039797    14A     -1.006300    15A     -0.937798
      16A     -0.855179    17A     -0.831778    18A     -0.816560
      19A     -0.766369    20A     -0.691022    21A     -0.667370
      22A     -0.633665    23A     -0.626751    24A     -0.598722
      25A     -0.576659    26A     -0.572921    27A     -0.539590
      28A     -0.533814    29A     -0.521478    30A     -0.489750
      31A     -0.483312    32A     -0.476293    33A     -0.423966
      34A     -0.413323    35A     -0.331071    36A     -0.311798

  @DF-RHF Final Energy:  -385.73414070016253

   => Energetics <=

    Nuclear Repulsion Energy =            483.7355189781423519
    One-Electron Energy =               -1479.5350567935824984
    Two-Electron Energy =                 610.0653971152775057
    Total Energy =                       -385.7341407001625839
  Basis Set: (AUG-CC-PVTZ AUX)
    Blend: AUG-CC-PVTZ-RI
    Molecular point group: c1

    Geometry (in Angstrom), charge = 0, multiplicity = 1:

       Center              X                  Y                   Z               Mass
    ------------   -----------------  -----------------  -----------------  -----------------
         C           -2.125440457092    -0.000728827473    -0.518603865301    12.000000000000
         C           -3.028736457092     0.751514172527     0.423857134699    12.000000000000
         C           -3.028736457092    -0.752967827473     0.423860134699    12.000000000000
         C           -0.648791457092    -0.000728827473    -0.300460865301    12.000000000000
         C            0.063340542908     1.202262172527    -0.211175865301    12.000000000000
         C            0.063340542908    -1.203718827473    -0.211175865301    12.000000000000
         C            1.447333542908     1.200598172527    -0.037201865301    12.000000000000
         C            1.447334542908    -1.202053827473    -0.037201865301    12.000000000000
         C            2.162439542908    -0.000727827473     0.050727134699    12.000000000000
         C            3.651266542908    -0.000726827473     0.282936134699    12.000000000000
         H           -2.436324457092    -0.000731827473    -1.562956865301     1.007825032230
         H           -3.889720457092     1.269197172527     0.013109134699     1.007825032230
         H           -2.558721457092     1.252729172527     1.264082134699     1.007825032230
         H           -2.558721457092    -1.254180827473     1.264087134699     1.007825032230
         H           -3.731066957092    -1.175257727473     0.088803434699     1.007825032230
         H           -0.475704457092     2.145697172527    -0.279735865301     1.007825032230
         H           -0.475703457092    -2.147154827473    -0.279735865301     1.007825032230
         H            1.981882542908     2.147507172527     0.028117134699     1.007825032230
         H            1.981883542908    -2.148962827473     0.028117134699     1.007825032230
         H            4.118239542908    -0.886077827473    -0.158160865301     1.007825032230
         H            4.118239542908     0.884624172527    -0.158159865301     1.007825032230
         H            3.885824542908    -0.000727827473     1.353183134699     1.007825032230

  Basis Set: AUG-CC-PVTZ
    Blend: AUG-CC-PVTZ
  Basis Set: (AUG-CC-PVTZ AUX)
    Blend: AUG-CC-PVTZ-JKFIT
	 Reference Energy          =    -385.7341407001625271 [Eh]
	 Singles Energy            =      -0.0000000000000000 [Eh]
	 Same-Spin Energy          =      -0.4317813227449007 [Eh]
	 Opposite-Spin Energy      =      -1.4111315071077062 [Eh]
	 Correlation Energy        =      -1.8429128298526070 [Eh]
	 Total Energy              =    -387.5770535300151209 [Eh]

	 ================> DF-SCS-MP2 Energies <==================
	-----------------------------------------------------------
	 SCS Same-Spin Scale       =       0.3333333333333333 [-]
	 SCS Opposite-Spin Scale   =       1.2000000000000000 [-]
	 SCS Same-Spin Energy      =      -0.1439271075816336 [Eh]
	 SCS Opposite-Spin Energy  =      -1.6933578085292473 [Eh]
	 SCS Correlation Energy    =      -1.8372849161108809 [Eh]
	 SCS Total Energy          =    -387.5714256162734159 [Eh]
	-----------------------------------------------------------

  Dipole Moment: [D]
     X:     0.0645      Y:    -0.0380      Z:     0.0327     Total:     0.0817

*** Psi4 exiting successfully. Buy a developer a beer!
