                               Psi4 1.4a3.dev225

  ==> Input File <==

--------------------------------------------------------------------------
#psi4
#
memory 32 gb

molecule  {
0 1
  C       -2.1229620    -0.0000010    -0.5285820
  C       -2.9404094     0.7808413     0.4674657
  C       -3.0262580    -0.7522400     0.4138820
  C       -0.6463130    -0.0000010    -0.3104390
  C        0.0658190     1.2029900    -0.2211540
  C        0.0658190    -1.2029910    -0.2211540
  C        1.4498120     1.2013260    -0.0471800
  C        1.4498130    -1.2013260    -0.0471800
  C        2.1649180     0.0000000     0.0407490
  C        3.6537450     0.0000010     0.2729580
  H       -2.4338460    -0.0000040    -1.5729350
  H       -3.8872420     1.2699250     0.0031310
  H       -2.5562430     1.2534570     1.2541040
  H       -2.5562430    -1.2534530     1.2541090
  H       -3.8872430    -1.2699240     0.0031370
  H       -0.4732260     2.1464250    -0.2897140
  H       -0.4732250    -2.1464270    -0.2897140
  H        1.9843610     2.1482350     0.0181390
  H        1.9843620    -2.1482350     0.0181390
  H        4.1207180    -0.8853500    -0.1681390
  H        4.1207180     0.8853520    -0.1681380
  H        3.8883030     0.0000000     1.3432050
units angstrom
no_reorient  #important for SAPT in psi4, default
symmetry c1  #important for SAPT in psi4, default
}

set PROPERTIES_ORIGIN ["COM"]
properties('MP2/aug-cc-pvtz', properties = ['dipole'])
--------------------------------------------------------------------------

    Molecular point group: c1
  Charge       = 0
  Multiplicity = 1
  Basis Set: AUG-CC-PVTZ
    Blend: AUG-CC-PVTZ
  Basis Set: (AUG-CC-PVTZ AUX)
    Blend: AUG-CC-PVTZ-JKFIT

    Orbital Energies [Eh]
    ---------------------

    Doubly Occupied:

       1A    -11.237899     2A    -11.235851     3A    -11.233307
       4A    -11.229229     5A    -11.228724     6A    -11.227634
       7A    -11.227287     8A    -11.226009     9A    -11.225190
      10A    -11.222491    11A     -1.162754    12A     -1.127682
      13A     -1.037974    14A     -1.006806    15A     -0.936001
      16A     -0.838780    17A     -0.831906    18A     -0.811720
      19A     -0.767482    20A     -0.688980    21A     -0.645532
      22A     -0.633745    23A     -0.627901    24A     -0.604363
      25A     -0.577055    26A     -0.573130    27A     -0.538563
      28A     -0.528946    29A     -0.515586    30A     -0.487324
      31A     -0.483678    32A     -0.476447    33A     -0.417597
      34A     -0.413256    35A     -0.331591    36A     -0.311937

  @DF-RHF Final Energy:  -385.75594707488420

   => Energetics <=

    Nuclear Repulsion Energy =            483.0099221023426708
    One-Electron Energy =               -1478.1910276884011637
    Two-Electron Energy =                 609.4251585111743452
    Total Energy =                       -385.7559470748841477
  Basis Set: (AUG-CC-PVTZ AUX)
    Blend: AUG-CC-PVTZ-RI
    Molecular point group: c1

    Geometry (in Angstrom), charge = 0, multiplicity = 1:

       Center              X                  Y                   Z               Mass
    ------------   -----------------  -----------------  -----------------  -----------------
         C           -2.132028855351    -0.002599095800    -0.522894448249    12.000000000000
         C           -2.949476255351     0.778243204200     0.473153251751    12.000000000000
         C           -3.035324855351    -0.754838095800     0.419569551751    12.000000000000
         C           -0.655379855351    -0.002599095800    -0.304751448249    12.000000000000
         C            0.056752144649     1.200391904200    -0.215466448249    12.000000000000
         C            0.056752144649    -1.205589095800    -0.215466448249    12.000000000000
         C            1.440745144649     1.198727904200    -0.041492448249    12.000000000000
         C            1.440746144649    -1.203924095800    -0.041492448249    12.000000000000
         C            2.155851144649    -0.002598095800     0.046436551751    12.000000000000
         C            3.644678144649    -0.002597095800     0.278645551751    12.000000000000
         H           -2.442912855351    -0.002602095800    -1.567247448249     1.007825032230
         H           -3.896308855351     1.267326904200     0.008818551751     1.007825032230
         H           -2.565309855351     1.250858904200     1.259791551751     1.007825032230
         H           -2.565309855351    -1.256051095800     1.259796551751     1.007825032230
         H           -3.896309855351    -1.272522095800     0.008824551751     1.007825032230
         H           -0.482292855351     2.143826904200    -0.284026448249     1.007825032230
         H           -0.482291855351    -2.149025095800    -0.284026448249     1.007825032230
         H            1.975294144649     2.145636904200     0.023826551751     1.007825032230
         H            1.975295144649    -2.150833095800     0.023826551751     1.007825032230
         H            4.111651144649    -0.887948095800    -0.162451448249     1.007825032230
         H            4.111651144649     0.882753904200    -0.162450448249     1.007825032230
         H            3.879236144649    -0.002598095800     1.348892551751     1.007825032230

  Basis Set: AUG-CC-PVTZ
    Blend: AUG-CC-PVTZ
  Basis Set: (AUG-CC-PVTZ AUX)
    Blend: AUG-CC-PVTZ-JKFIT
	 Reference Energy          =    -385.7559470748842045 [Eh]
	 Singles Energy            =      -0.0000000000000000 [Eh]
	 Same-Spin Energy          =      -0.4318782170049175 [Eh]
	 Opposite-Spin Energy      =      -1.4124074544408858 [Eh]
	 Correlation Energy        =      -1.8442856714458031 [Eh]
	 Total Energy              =    -387.6002327463299935 [Eh]

	 ================> DF-SCS-MP2 Energies <==================
	-----------------------------------------------------------
	 SCS Same-Spin Scale       =       0.3333333333333333 [-]
	 SCS Opposite-Spin Scale   =       1.2000000000000000 [-]
	 SCS Same-Spin Energy      =      -0.1439594056683058 [Eh]
	 SCS Opposite-Spin Energy  =      -1.6948889453290630 [Eh]
	 SCS Correlation Energy    =      -1.8388483509973688 [Eh]
	 SCS Total Energy          =    -387.5947954258815571 [Eh]
	-----------------------------------------------------------

  Dipole Moment: [D]
     X:     0.1542      Y:    -0.0485      Z:     0.0253     Total:     0.1636

*** Psi4 exiting successfully. Buy a developer a beer!
