                               Psi4 1.4a3.dev225

  ==> Input File <==

--------------------------------------------------------------------------
#psi4
#
memory 32 gb

molecule  {
0 1
  C       -2.1229620    -0.0000010    -0.5285820
  C       -3.0262580     0.7522420     0.4138790
  C       -3.0262580    -0.7522400     0.4138820
  C       -0.6463130    -0.0000010    -0.3104390
  C        0.0658190     1.2029900    -0.2211540
  C        0.0658190    -1.2029910    -0.2211540
  C        1.4498120     1.2013260    -0.0471800
  C        1.4463162    -1.1040278    -0.0475370
  C        2.1649180     0.0000000     0.0407490
  C        3.6537450     0.0000010     0.2729580
  H       -2.4338460    -0.0000040    -1.5729350
  H       -3.8872420     1.2699250     0.0031310
  H       -2.5562430     1.2534570     1.2541040
  H       -2.5562430    -1.2534530     1.2541090
  H       -3.8872430    -1.2699240     0.0031370
  H       -0.4732260     2.1464250    -0.2897140
  H       -0.4732250    -2.1464270    -0.2897140
  H        1.9843610     2.1482350     0.0181390
  H        1.9843620    -2.1482350     0.0181390
  H        4.1207180    -0.8853500    -0.1681390
  H        4.1207180     0.8853520    -0.1681380
  H        3.8883030     0.0000000     1.3432050
units angstrom
no_reorient  #important for SAPT in psi4, default
symmetry c1  #important for SAPT in psi4, default
}

set PROPERTIES_ORIGIN ["COM"]
properties('MP2/aug-cc-pvtz', properties = ['dipole'])
--------------------------------------------------------------------------

    Molecular point group: c1
  Charge       = 0
  Multiplicity = 1
  Basis Set: AUG-CC-PVTZ
    Blend: AUG-CC-PVTZ
  Basis Set: (AUG-CC-PVTZ AUX)
    Blend: AUG-CC-PVTZ-JKFIT

    Orbital Energies [Eh]
    ---------------------

    Doubly Occupied:

       1A    -11.234789     2A    -11.233147     3A    -11.229538
       4A    -11.228638     5A    -11.227907     6A    -11.227203
       7A    -11.225621     8A    -11.225097     9A    -11.224414
      10A    -11.223108    11A     -1.168550    12A     -1.136303
      13A     -1.043949    14A     -1.004514    15A     -0.939331
      16A     -0.840633    17A     -0.831905    18A     -0.809704
      19A     -0.762194    20A     -0.686575    21A     -0.654267
      22A     -0.638759    23A     -0.623004    24A     -0.596830
      25A     -0.575540    26A     -0.568733    27A     -0.535109
      28A     -0.533231    29A     -0.512713    30A     -0.495821
      31A     -0.487328    32A     -0.465497    33A     -0.425596
      34A     -0.411799    35A     -0.332002    36A     -0.318468

  @DF-RHF Final Energy:  -385.75776172603759

   => Energetics <=

    Nuclear Repulsion Energy =            484.2279242548690377
    One-Electron Energy =               -1480.6157395837904005
    Two-Electron Energy =                 610.6300536028837769
    Total Energy =                       -385.7577617260375291
  Basis Set: (AUG-CC-PVTZ AUX)
    Blend: AUG-CC-PVTZ-RI
    Molecular point group: c1

    Geometry (in Angstrom), charge = 0, multiplicity = 1:

       Center              X                  Y                   Z               Mass
    ------------   -----------------  -----------------  -----------------  -----------------
         C           -2.123912320092    -0.008840010767    -0.517993961564    12.000000000000
         C           -3.027208320092     0.743402989233     0.424467038436    12.000000000000
         C           -3.027208320092    -0.761079010767     0.424470038436    12.000000000000
         C           -0.647263320092    -0.008840010767    -0.299850961564    12.000000000000
         C            0.064868679908     1.194150989233    -0.210565961564    12.000000000000
         C            0.064868679908    -1.211830010767    -0.210565961564    12.000000000000
         C            1.448861679908     1.192486989233    -0.036591961564    12.000000000000
         C            1.445365879908    -1.112866810767    -0.036948961564    12.000000000000
         C            2.163967679908    -0.008839010767     0.051337038436    12.000000000000
         C            3.652794679908    -0.008838010767     0.283546038436    12.000000000000
         H           -2.434796320092    -0.008843010767    -1.562346961564     1.007825032230
         H           -3.888192320092     1.261085989233     0.013719038436     1.007825032230
         H           -2.557193320092     1.244617989233     1.264692038436     1.007825032230
         H           -2.557193320092    -1.262292010767     1.264697038436     1.007825032230
         H           -3.888193320092    -1.278763010767     0.013725038436     1.007825032230
         H           -0.474176320092     2.137585989233    -0.279125961564     1.007825032230
         H           -0.474175320092    -2.155266010767    -0.279125961564     1.007825032230
         H            1.983410679908     2.139395989233     0.028727038436     1.007825032230
         H            1.983411679908    -2.157074010767     0.028727038436     1.007825032230
         H            4.119767679908    -0.894189010767    -0.157550961564     1.007825032230
         H            4.119767679908     0.876512989233    -0.157549961564     1.007825032230
         H            3.887352679908    -0.008839010767     1.353793038436     1.007825032230

  Basis Set: AUG-CC-PVTZ
    Blend: AUG-CC-PVTZ
  Basis Set: (AUG-CC-PVTZ AUX)
    Blend: AUG-CC-PVTZ-JKFIT
	 Reference Energy          =    -385.7577617260375860 [Eh]
	 Singles Energy            =      -0.0000000000000000 [Eh]
	 Same-Spin Energy          =      -0.4319334607262669 [Eh]
	 Opposite-Spin Energy      =      -1.4117768953053660 [Eh]
	 Correlation Energy        =      -1.8437103560316328 [Eh]
	 Total Energy              =    -387.6014720820692219 [Eh]

	 ================> DF-SCS-MP2 Energies <==================
	-----------------------------------------------------------
	 SCS Same-Spin Scale       =       0.3333333333333333 [-]
	 SCS Opposite-Spin Scale   =       1.2000000000000000 [-]
	 SCS Same-Spin Energy      =      -0.1439778202420890 [Eh]
	 SCS Opposite-Spin Energy  =      -1.6941322743664391 [Eh]
	 SCS Correlation Energy    =      -1.8381100946085280 [Eh]
	 SCS Total Energy          =    -387.5958718206460958 [Eh]
	-----------------------------------------------------------

  Dipole Moment: [D]
     X:     0.0610      Y:     0.0558      Z:     0.0167     Total:     0.0844

*** Psi4 exiting successfully. Buy a developer a beer!
