                               Psi4 1.4a3.dev225

  ==> Input File <==

--------------------------------------------------------------------------
#psi4
#
memory 32 gb

molecule  {
0 1
  C       -2.1229620    -0.0000010    -0.5285820
  C       -3.0262580     0.7522420     0.4138790
  C       -3.0262580    -0.7522400     0.4138820
  C       -0.6463130    -0.0000010    -0.3104390
  C        0.0658190     1.2029900    -0.2211540
  C        0.0658190    -1.2029910    -0.2211540
  C        1.4498120     1.2013260    -0.0471800
  C        1.4498130    -1.2013260    -0.0471800
  C        2.1649180     0.0000000     0.0407490
  C        3.6537450     0.0000010     0.2729580
  H       -2.4053152    -0.0000037    -1.4770914
  H       -3.8872420     1.2699250     0.0031310
  H       -2.5562430     1.2534570     1.2541040
  H       -2.5562430    -1.2534530     1.2541090
  H       -3.8872430    -1.2699240     0.0031370
  H       -0.4732260     2.1464250    -0.2897140
  H       -0.4732250    -2.1464270    -0.2897140
  H        1.9843610     2.1482350     0.0181390
  H        1.9843620    -2.1482350     0.0181390
  H        4.1207180    -0.8853500    -0.1681390
  H        4.1207180     0.8853520    -0.1681380
  H        3.8883030     0.0000000     1.3432050
units angstrom
no_reorient  #important for SAPT in psi4, default
symmetry c1  #important for SAPT in psi4, default
}

set PROPERTIES_ORIGIN ["COM"]
properties('MP2/aug-cc-pvtz', properties = ['dipole'])
--------------------------------------------------------------------------

    Molecular point group: c1
  Charge       = 0
  Multiplicity = 1
  Basis Set: AUG-CC-PVTZ
    Blend: AUG-CC-PVTZ
  Basis Set: (AUG-CC-PVTZ AUX)
    Blend: AUG-CC-PVTZ-JKFIT

    Orbital Energies [Eh]
    ---------------------

    Doubly Occupied:

       1A    -11.237659     2A    -11.233428     3A    -11.228895
       4A    -11.228731     5A    -11.227277     6A    -11.227206
       7A    -11.224269     8A    -11.223513     9A    -11.222304
      10A    -11.221153    11A     -1.164431    12A     -1.130928
      13A     -1.038849    14A     -1.006534    15A     -0.936934
      16A     -0.839552    17A     -0.833664    18A     -0.808510
      19A     -0.772249    20A     -0.692280    21A     -0.654504
      22A     -0.633518    23A     -0.626471    24A     -0.602143
      25A     -0.576845    26A     -0.572994    27A     -0.538264
      28A     -0.533880    29A     -0.512094    30A     -0.489596
      31A     -0.483477    32A     -0.478395    33A     -0.424790
      34A     -0.412321    35A     -0.331327    36A     -0.312614

  @DF-RHF Final Energy:  -385.76377912953234

   => Energetics <=

    Nuclear Repulsion Energy =            483.1758094695122168
    One-Electron Energy =               -1478.5159788400806065
    Two-Electron Energy =                 609.5763902410361652
    Total Energy =                       -385.7637791295322813
  Basis Set: (AUG-CC-PVTZ AUX)
    Blend: AUG-CC-PVTZ-RI
    Molecular point group: c1

    Geometry (in Angstrom), charge = 0, multiplicity = 1:

       Center              X                  Y                   Z               Mass
    ------------   -----------------  -----------------  -----------------  -----------------
         C           -2.124447663921    -0.000001009918    -0.518757642393    12.000000000000
         C           -3.027743663921     0.752241990082     0.423703357607    12.000000000000
         C           -3.027743663921    -0.752240009918     0.423706357607    12.000000000000
         C           -0.647798663921    -0.000001009918    -0.300614642393    12.000000000000
         C            0.064333336079     1.202989990082    -0.211329642393    12.000000000000
         C            0.064333336079    -1.202991009918    -0.211329642393    12.000000000000
         C            1.448326336079     1.201325990082    -0.037355642393    12.000000000000
         C            1.448327336079    -1.201326009918    -0.037355642393    12.000000000000
         C            2.163432336079    -0.000000009918     0.050573357607    12.000000000000
         C            3.652259336079     0.000000990082     0.282782357607    12.000000000000
         H           -2.406800863921    -0.000003709918    -1.467267042393     1.007825032230
         H           -3.888727663921     1.269924990082     0.012955357607     1.007825032230
         H           -2.557728663921     1.253456990082     1.263928357607     1.007825032230
         H           -2.557728663921    -1.253453009918     1.263933357607     1.007825032230
         H           -3.888728663921    -1.269924009918     0.012961357607     1.007825032230
         H           -0.474711663921     2.146424990082    -0.279889642393     1.007825032230
         H           -0.474710663921    -2.146427009918    -0.279889642393     1.007825032230
         H            1.982875336079     2.148234990082     0.027963357607     1.007825032230
         H            1.982876336079    -2.148235009918     0.027963357607     1.007825032230
         H            4.119232336079    -0.885350009918    -0.158314642393     1.007825032230
         H            4.119232336079     0.885351990082    -0.158313642393     1.007825032230
         H            3.886817336079    -0.000000009918     1.353029357607     1.007825032230

  Basis Set: AUG-CC-PVTZ
    Blend: AUG-CC-PVTZ
  Basis Set: (AUG-CC-PVTZ AUX)
    Blend: AUG-CC-PVTZ-JKFIT
	 Reference Energy          =    -385.7637791295323382 [Eh]
	 Singles Energy            =      -0.0000000000000000 [Eh]
	 Same-Spin Energy          =      -0.4316423968454386 [Eh]
	 Opposite-Spin Energy      =      -1.4110398429140507 [Eh]
	 Correlation Energy        =      -1.8426822397594893 [Eh]
	 Total Energy              =    -387.6064613692918215 [Eh]

	 ================> DF-SCS-MP2 Energies <==================
	-----------------------------------------------------------
	 SCS Same-Spin Scale       =       0.3333333333333333 [-]
	 SCS Opposite-Spin Scale   =       1.2000000000000000 [-]
	 SCS Same-Spin Energy      =      -0.1438807989484795 [Eh]
	 SCS Opposite-Spin Energy  =      -1.6932478114968608 [Eh]
	 SCS Correlation Energy    =      -1.8371286104453404 [Eh]
	 SCS Total Energy          =    -387.6009077399776857 [Eh]
	-----------------------------------------------------------

  Dipole Moment: [D]
     X:     0.0983      Y:    -0.0000      Z:     0.0069     Total:     0.0986

*** Psi4 exiting successfully. Buy a developer a beer!
