                               Psi4 1.4a3.dev225

  ==> Input File <==

--------------------------------------------------------------------------
#psi4
#
memory 32 gb

molecule  {
0 1
  C       -2.1219628    -0.0520901    -0.5291236
  C       -3.0262580     0.7522420     0.4138790
  C       -3.0262580    -0.7522400     0.4138820
  C       -0.6463130    -0.0000010    -0.3104390
  C        0.0658190     1.2029900    -0.2211540
  C        0.0658190    -1.2029910    -0.2211540
  C        1.4498120     1.2013260    -0.0471800
  C        1.4498130    -1.2013260    -0.0471800
  C        2.1649180     0.0000000     0.0407490
  C        3.6537450     0.0000010     0.2729580
  H       -2.4338460    -0.0000040    -1.5729350
  H       -3.8872420     1.2699250     0.0031310
  H       -2.5562430     1.2534570     1.2541040
  H       -2.5562430    -1.2534530     1.2541090
  H       -3.8872430    -1.2699240     0.0031370
  H       -0.4732260     2.1464250    -0.2897140
  H       -0.4732250    -2.1464270    -0.2897140
  H        1.9843610     2.1482350     0.0181390
  H        1.9843620    -2.1482350     0.0181390
  H        4.1207180    -0.8853500    -0.1681390
  H        4.1207180     0.8853520    -0.1681380
  H        3.8883030     0.0000000     1.3432050
units angstrom
no_reorient  #important for SAPT in psi4, default
symmetry c1  #important for SAPT in psi4, default
}

set PROPERTIES_ORIGIN ["COM"]
properties('MP2/aug-cc-pvtz', properties = ['dipole'])
--------------------------------------------------------------------------

    Molecular point group: c1
  Charge       = 0
  Multiplicity = 1
  Basis Set: AUG-CC-PVTZ
    Blend: AUG-CC-PVTZ
  Basis Set: (AUG-CC-PVTZ AUX)
    Blend: AUG-CC-PVTZ-JKFIT

    Orbital Energies [Eh]
    ---------------------

    Doubly Occupied:

       1A    -11.237950     2A    -11.234304     3A    -11.233424
       4A    -11.229759     5A    -11.228507     6A    -11.227800
       7A    -11.227074     8A    -11.225614     9A    -11.223253
      10A    -11.222475    11A     -1.163356    12A     -1.130069
      13A     -1.039169    14A     -1.006782    15A     -0.936709
      16A     -0.834820    17A     -0.830956    18A     -0.808872
      19A     -0.765762    20A     -0.686982    21A     -0.652358
      22A     -0.633836    23A     -0.626325    24A     -0.599258
      25A     -0.577071    26A     -0.573166    27A     -0.538523
      28A     -0.528385    29A     -0.512302    30A     -0.489937
      31A     -0.483702    32A     -0.476080    33A     -0.431613
      34A     -0.405048    35A     -0.331528    36A     -0.312170

  @DF-RHF Final Energy:  -385.76800878399632

   => Energetics <=

    Nuclear Repulsion Energy =            482.6033491779227802
    One-Electron Energy =               -1477.4128374490596798
    Two-Electron Energy =                 609.0414794871405775
    Total Energy =                       -385.7680087839962653
  Basis Set: (AUG-CC-PVTZ AUX)
    Blend: AUG-CC-PVTZ-RI
    Molecular point group: c1

    Geometry (in Angstrom), charge = 0, multiplicity = 1:

       Center              X                  Y                   Z               Mass
    ------------   -----------------  -----------------  -----------------  -----------------
         C           -2.123321556817    -0.047358101094    -0.518518791676    12.000000000000
         C           -3.027616756817     0.756973998906     0.424483808324    12.000000000000
         C           -3.027616756817    -0.747508001094     0.424486808324    12.000000000000
         C           -0.647671756817     0.004730998906    -0.299834191676    12.000000000000
         C            0.064460243183     1.207721998906    -0.210549191676    12.000000000000
         C            0.064460243183    -1.198259001094    -0.210549191676    12.000000000000
         C            1.448453243183     1.206057998906    -0.036575191676    12.000000000000
         C            1.448454243183    -1.196594001094    -0.036575191676    12.000000000000
         C            2.163559243183     0.004731998906     0.051353808324    12.000000000000
         C            3.652386243183     0.004732998906     0.283562808324    12.000000000000
         H           -2.435204756817     0.004727998906    -1.562330191676     1.007825032230
         H           -3.888600756817     1.274656998906     0.013735808324     1.007825032230
         H           -2.557601756817     1.258188998906     1.264708808324     1.007825032230
         H           -2.557601756817    -1.248721001094     1.264713808324     1.007825032230
         H           -3.888601756817    -1.265192001094     0.013741808324     1.007825032230
         H           -0.474584756817     2.151156998906    -0.279109191676     1.007825032230
         H           -0.474583756817    -2.141695001094    -0.279109191676     1.007825032230
         H            1.983002243183     2.152966998906     0.028743808324     1.007825032230
         H            1.983003243183    -2.143503001094     0.028743808324     1.007825032230
         H            4.119359243183    -0.880618001094    -0.157534191676     1.007825032230
         H            4.119359243183     0.890083998906    -0.157533191676     1.007825032230
         H            3.886944243183     0.004731998906     1.353809808324     1.007825032230

  Basis Set: AUG-CC-PVTZ
    Blend: AUG-CC-PVTZ
  Basis Set: (AUG-CC-PVTZ AUX)
    Blend: AUG-CC-PVTZ-JKFIT
	 Reference Energy          =    -385.7680087839963221 [Eh]
	 Singles Energy            =      -0.0000000000000000 [Eh]
	 Same-Spin Energy          =      -0.4317999019144992 [Eh]
	 Opposite-Spin Energy      =      -1.4116820132500751 [Eh]
	 Correlation Energy        =      -1.8434819151645745 [Eh]
	 Total Energy              =    -387.6114906991609246 [Eh]

	 ================> DF-SCS-MP2 Energies <==================
	-----------------------------------------------------------
	 SCS Same-Spin Scale       =       0.3333333333333333 [-]
	 SCS Opposite-Spin Scale   =       1.2000000000000000 [-]
	 SCS Same-Spin Energy      =      -0.1439333006381664 [Eh]
	 SCS Opposite-Spin Energy  =      -1.6940184159000902 [Eh]
	 SCS Correlation Energy    =      -1.8379517165382566 [Eh]
	 SCS Total Energy          =    -387.6059605005345929 [Eh]
	-----------------------------------------------------------

  Dipole Moment: [D]
     X:     0.1185      Y:    -0.0333      Z:     0.0299     Total:     0.1266

*** Psi4 exiting successfully. Buy a developer a beer!
