                               Psi4 1.4a3.dev225

  ==> Input File <==

--------------------------------------------------------------------------
#psi4
#
memory 32 gb

molecule  {
0 1
  C       -2.1229620    -0.0000010    -0.5285820
  C       -3.0262580     0.7522420     0.4138790
  C       -3.0262580    -0.7522400     0.4138820
  C       -0.6463130    -0.0000010    -0.3104390
  C        0.0658190     1.2029900    -0.2211540
  C        0.0658190    -1.2029910    -0.2211540
  C        1.4498120     1.2013260    -0.0471800
  C        1.4498130    -1.2013260    -0.0471800
  C        2.1649180     0.0000000     0.0407490
  C        3.6537450     0.0000010     0.2729580
  H       -2.4338460    -0.0000040    -1.5729350
  H       -3.8872420     1.2699250     0.0031310
  H       -2.6428492     1.1611018     1.0992819
  H       -2.5562430    -1.2534530     1.2541090
  H       -3.8872430    -1.2699240     0.0031370
  H       -0.4732260     2.1464250    -0.2897140
  H       -0.4732250    -2.1464270    -0.2897140
  H        1.9843610     2.1482350     0.0181390
  H        1.9843620    -2.1482350     0.0181390
  H        4.1207180    -0.8853500    -0.1681390
  H        4.1207180     0.8853520    -0.1681380
  H        3.8883030     0.0000000     1.3432050
units angstrom
no_reorient  #important for SAPT in psi4, default
symmetry c1  #important for SAPT in psi4, default
}

set PROPERTIES_ORIGIN ["COM"]
properties('MP2/aug-cc-pvtz', properties = ['dipole'])
--------------------------------------------------------------------------

    Molecular point group: c1
  Charge       = 0
  Multiplicity = 1
  Basis Set: AUG-CC-PVTZ
    Blend: AUG-CC-PVTZ
  Basis Set: (AUG-CC-PVTZ AUX)
    Blend: AUG-CC-PVTZ-JKFIT

    Orbital Energies [Eh]
    ---------------------

    Doubly Occupied:

       1A    -11.238046     2A    -11.234000     3A    -11.231898
       4A    -11.229300     5A    -11.229082     6A    -11.227600
       7A    -11.227520     8A    -11.223319     9A    -11.222542
      10A    -11.200669    11A     -1.164999    12A     -1.132373
      13A     -1.039888    14A     -1.006880    15A     -0.937579
      16A     -0.856088    17A     -0.831965    18A     -0.816669
      19A     -0.768674    20A     -0.694932    21A     -0.651591
      22A     -0.634137    23A     -0.629115    24A     -0.607555
      25A     -0.577156    26A     -0.573270    27A     -0.538527
      28A     -0.536207    29A     -0.521248    30A     -0.489740
      31A     -0.483802    32A     -0.476313    33A     -0.423808
      34A     -0.413011    35A     -0.331672    36A     -0.312394

  @DF-RHF Final Energy:  -385.73413932024505

   => Energetics <=

    Nuclear Repulsion Energy =            483.5763723823746432
    One-Electron Energy =               -1479.1938847812530184
    Two-Electron Energy =                 609.8833730786333263
    Total Energy =                       -385.7341393202450490
  Basis Set: (AUG-CC-PVTZ AUX)
    Blend: AUG-CC-PVTZ-RI
    Molecular point group: c1

    Geometry (in Angstrom), charge = 0, multiplicity = 1:

       Center              X                  Y                   Z               Mass
    ------------   -----------------  -----------------  -----------------  -----------------
         C           -2.123569213437     0.000703626590    -0.516845160693    12.000000000000
         C           -3.026865213437     0.752946626590     0.425615839307    12.000000000000
         C           -3.026865213437    -0.751535373410     0.425618839307    12.000000000000
         C           -0.646920213437     0.000703626590    -0.298702160693    12.000000000000
         C            0.065211786563     1.203694626590    -0.209417160693    12.000000000000
         C            0.065211786563    -1.202286373410    -0.209417160693    12.000000000000
         C            1.449204786563     1.202030626590    -0.035443160693    12.000000000000
         C            1.449205786563    -1.200621373410    -0.035443160693    12.000000000000
         C            2.164310786563     0.000704626590     0.052485839307    12.000000000000
         C            3.653137786563     0.000705626590     0.284694839307    12.000000000000
         H           -2.434453213437     0.000700626590    -1.561198160693     1.007825032230
         H           -3.887849213437     1.270629626590     0.014867839307     1.007825032230
         H           -2.643456413437     1.161806426590     1.111018739307     1.007825032230
         H           -2.556850213437    -1.252748373410     1.265845839307     1.007825032230
         H           -3.887850213437    -1.269219373410     0.014873839307     1.007825032230
         H           -0.473833213437     2.147129626590    -0.277977160693     1.007825032230
         H           -0.473832213437    -2.145722373410    -0.277977160693     1.007825032230
         H            1.983753786563     2.148939626590     0.029875839307     1.007825032230
         H            1.983754786563    -2.147530373410     0.029875839307     1.007825032230
         H            4.120110786563    -0.884645373410    -0.156402160693     1.007825032230
         H            4.120110786563     0.886056626590    -0.156401160693     1.007825032230
         H            3.887695786563     0.000704626590     1.354941839307     1.007825032230

  Basis Set: AUG-CC-PVTZ
    Blend: AUG-CC-PVTZ
  Basis Set: (AUG-CC-PVTZ AUX)
    Blend: AUG-CC-PVTZ-JKFIT
	 Reference Energy          =    -385.7341393202450490 [Eh]
	 Singles Energy            =      -0.0000000000000000 [Eh]
	 Same-Spin Energy          =      -0.4316776177132942 [Eh]
	 Opposite-Spin Energy      =      -1.4111111825773874 [Eh]
	 Correlation Energy        =      -1.8427888002906816 [Eh]
	 Total Energy              =    -387.5769281205357402 [Eh]

	 ================> DF-SCS-MP2 Energies <==================
	-----------------------------------------------------------
	 SCS Same-Spin Scale       =       0.3333333333333333 [-]
	 SCS Opposite-Spin Scale   =       1.2000000000000000 [-]
	 SCS Same-Spin Energy      =      -0.1438925392377647 [Eh]
	 SCS Opposite-Spin Energy  =      -1.6933334190928648 [Eh]
	 SCS Correlation Energy    =      -1.8372259583306296 [Eh]
	 SCS Total Energy          =    -387.5713652785756835 [Eh]
	-----------------------------------------------------------

  Dipole Moment: [D]
     X:     0.1264      Y:     0.0272      Z:     0.0498     Total:     0.1385

*** Psi4 exiting successfully. Buy a developer a beer!
