                               Psi4 1.4a3.dev225

  ==> Input File <==

--------------------------------------------------------------------------
#psi4
#
memory 32 gb

molecule  {
0 1
  C       -2.1229620    -0.0000010    -0.5285820
  C       -3.0262580     0.7522420     0.4138790
  C       -3.0262580    -0.7522400     0.4138820
  C       -0.6463130    -0.0000010    -0.3104390
  C        0.0658190     1.2029900    -0.2211540
  C        0.0658190    -1.2029910    -0.2211540
  C        1.4498120     1.2013260    -0.0471800
  C        1.4498130    -1.2013260    -0.0471800
  C        2.1649180     0.0000000     0.0407490
  C        3.6537450     0.0000010     0.2729580
  H       -2.4338460    -0.0000040    -1.5729350
  H       -3.8872420     1.2699250     0.0031310
  H       -2.5562430     1.2534570     1.2541040
  H       -2.5562430    -1.2534530     1.2541090
  H       -3.8872430    -1.2699240     0.0031370
  H       -0.4732260     2.1464250    -0.2897140
  H       -0.4732250    -2.1464270    -0.2897140
  H        1.8862185     1.9743838     0.0061465
  H        1.9843620    -2.1482350     0.0181390
  H        4.1207180    -0.8853500    -0.1681390
  H        4.1207180     0.8853520    -0.1681380
  H        3.8883030     0.0000000     1.3432050
units angstrom
no_reorient  #important for SAPT in psi4, default
symmetry c1  #important for SAPT in psi4, default
}

set PROPERTIES_ORIGIN ["COM"]
properties('MP2/aug-cc-pvtz', properties = ['dipole'])
--------------------------------------------------------------------------

    Molecular point group: c1
  Charge       = 0
  Multiplicity = 1
  Basis Set: AUG-CC-PVTZ
    Blend: AUG-CC-PVTZ
  Basis Set: (AUG-CC-PVTZ AUX)
    Blend: AUG-CC-PVTZ-JKFIT

    Orbital Energies [Eh]
    ---------------------

    Doubly Occupied:

       1A    -11.236420     2A    -11.233024     3A    -11.232257
       4A    -11.228485     5A    -11.227458     6A    -11.226190
       7A    -11.224205     8A    -11.223551     9A    -11.222661
      10A    -11.203273    11A     -1.163373    12A     -1.131062
      13A     -1.039506    14A     -1.014178    15A     -0.938676
      16A     -0.843003    17A     -0.830958    18A     -0.813607
      19A     -0.773031    20A     -0.694471    21A     -0.652898
      22A     -0.638538    23A     -0.633007    24A     -0.606429
      25A     -0.582112    26A     -0.573232    27A     -0.541353
      28A     -0.527746    29A     -0.511951    30A     -0.490017
      31A     -0.486716    32A     -0.475806    33A     -0.423783
      34A     -0.412490    35A     -0.330785    36A     -0.311367

  @DF-RHF Final Energy:  -385.73545204332714

   => Energetics <=

    Nuclear Repulsion Energy =            483.7921929216769854
    One-Electron Energy =               -1479.6600509560512364
    Two-Electron Energy =                 610.1324059910469941
    Total Energy =                       -385.7354520433272000
  Basis Set: (AUG-CC-PVTZ AUX)
    Blend: AUG-CC-PVTZ-RI
    Molecular point group: c1

    Geometry (in Angstrom), charge = 0, multiplicity = 1:

       Center              X                  Y                   Z               Mass
    ------------   -----------------  -----------------  -----------------  -----------------
         C           -2.123481195960     0.001325409341    -0.517934894933    12.000000000000
         C           -3.026777195960     0.753568409341     0.424526105067    12.000000000000
         C           -3.026777195960    -0.750913590659     0.424529105067    12.000000000000
         C           -0.646832195960     0.001325409341    -0.299791894933    12.000000000000
         C            0.065299804040     1.204316409341    -0.210506894933    12.000000000000
         C            0.065299804040    -1.201664590659    -0.210506894933    12.000000000000
         C            1.449292804040     1.202652409341    -0.036532894933    12.000000000000
         C            1.449293804040    -1.199999590659    -0.036532894933    12.000000000000
         C            2.164398804040     0.001326409341     0.051396105067    12.000000000000
         C            3.653225804040     0.001327409341     0.283605105067    12.000000000000
         H           -2.434365195960     0.001322409341    -1.562287894933     1.007825032230
         H           -3.887761195960     1.271251409341     0.013778105067     1.007825032230
         H           -2.556762195960     1.254783409341     1.264751105067     1.007825032230
         H           -2.556762195960    -1.252126590659     1.264756105067     1.007825032230
         H           -3.887762195960    -1.268597590659     0.013784105067     1.007825032230
         H           -0.473745195960     2.147751409341    -0.279066894933     1.007825032230
         H           -0.473744195960    -2.145100590659    -0.279066894933     1.007825032230
         H            1.885699304040     1.975710209341     0.016793605067     1.007825032230
         H            1.983842804040    -2.146908590659     0.028786105067     1.007825032230
         H            4.120198804040    -0.884023590659    -0.157491894933     1.007825032230
         H            4.120198804040     0.886678409341    -0.157490894933     1.007825032230
         H            3.887783804040     0.001326409341     1.353852105067     1.007825032230

  Basis Set: AUG-CC-PVTZ
    Blend: AUG-CC-PVTZ
  Basis Set: (AUG-CC-PVTZ AUX)
    Blend: AUG-CC-PVTZ-JKFIT
	 Reference Energy          =    -385.7354520433271432 [Eh]
	 Singles Energy            =      -0.0000000000000000 [Eh]
	 Same-Spin Energy          =      -0.4314748374138730 [Eh]
	 Opposite-Spin Energy      =      -1.4109080626605335 [Eh]
	 Correlation Energy        =      -1.8423829000744065 [Eh]
	 Total Energy              =    -387.5778349434015695 [Eh]

	 ================> DF-SCS-MP2 Energies <==================
	-----------------------------------------------------------
	 SCS Same-Spin Scale       =       0.3333333333333333 [-]
	 SCS Opposite-Spin Scale   =       1.2000000000000000 [-]
	 SCS Same-Spin Energy      =      -0.1438249458046243 [Eh]
	 SCS Opposite-Spin Energy  =      -1.6930896751926401 [Eh]
	 SCS Correlation Energy    =      -1.8369146209972644 [Eh]
	 SCS Total Energy          =    -387.5723666643244201 [Eh]
	-----------------------------------------------------------

  Dipole Moment: [D]
     X:     0.1625      Y:     0.0491      Z:     0.0306     Total:     0.1725

*** Psi4 exiting successfully. Buy a developer a beer!
