                               Psi4 1.4a3.dev225

  ==> Input File <==

--------------------------------------------------------------------------
#psi4
#
memory 32 gb

molecule  {
0 1
  C       -2.1229620    -0.0000010    -0.5285820
  C       -3.0262580     0.7522420     0.4138790
  C       -3.0262580    -0.7522400     0.4138820
  C       -0.6463130    -0.0000010    -0.3104390
  C        0.0658190     1.2029900    -0.2211540
  C        0.0658190    -1.2029910    -0.2211540
  C        1.4498120     1.2013260    -0.0471800
  C        1.4498130    -1.2013260    -0.0471800
  C        2.1649180     0.0000000     0.0407490
  C        3.6537450     0.0000010     0.2729580
  H       -2.4338460    -0.0000040    -1.5729350
  H       -3.8872420     1.2699250     0.0031310
  H       -2.5562430     1.2534570     1.2541040
  H       -2.5562430    -1.2534530     1.2541090
  H       -3.8872430    -1.2699240     0.0031370
  H       -0.4732260     2.1464250    -0.2897140
  H       -0.4732250    -2.1464270    -0.2897140
  H        1.9843610     2.1482350     0.0181390
  H        1.9843620    -2.1482350     0.0181390
  H        4.1207180    -0.8853500    -0.1681390
  H        4.1420637     0.9258220    -0.1883008
  H        3.8883030     0.0000000     1.3432050
units angstrom
no_reorient  #important for SAPT in psi4, default
symmetry c1  #important for SAPT in psi4, default
}

set PROPERTIES_ORIGIN ["COM"]
properties('MP2/aug-cc-pvtz', properties = ['dipole'])
--------------------------------------------------------------------------

    Molecular point group: c1
  Charge       = 0
  Multiplicity = 1
  Basis Set: AUG-CC-PVTZ
    Blend: AUG-CC-PVTZ
  Basis Set: (AUG-CC-PVTZ AUX)
    Blend: AUG-CC-PVTZ-JKFIT

    Orbital Energies [Eh]
    ---------------------

    Doubly Occupied:

       1A    -11.238380     2A    -11.234314     3A    -11.233122
       4A    -11.229367     5A    -11.229158     6A    -11.228462
       7A    -11.227803     8A    -11.227531     9A    -11.224764
      10A    -11.224112    11A     -1.163514    12A     -1.130237
      13A     -1.038351    14A     -1.006925    15A     -0.933987
      16A     -0.834081    17A     -0.830911    18A     -0.808869
      19A     -0.765747    20A     -0.686983    21A     -0.652448
      22A     -0.632939    23A     -0.626294    24A     -0.599452
      25A     -0.577199    26A     -0.571889    27A     -0.533080
      28A     -0.527630    29A     -0.512372    30A     -0.489974
      31A     -0.483277    32A     -0.476109    33A     -0.424337
      34A     -0.412915    35A     -0.331668    36A     -0.312411

  @DF-RHF Final Energy:  -385.76741102605922

   => Energetics <=

    Nuclear Repulsion Energy =            482.4125871919217730
    One-Electron Energy =               -1477.0387680181706855
    Two-Electron Energy =                 608.8587698001896342
    Total Energy =                       -385.7674110260592215
  Basis Set: (AUG-CC-PVTZ AUX)
    Blend: AUG-CC-PVTZ-RI
    Molecular point group: c1

    Geometry (in Angstrom), charge = 0, multiplicity = 1:

       Center              X                  Y                   Z               Mass
    ------------   -----------------  -----------------  -----------------  -----------------
         C           -2.124392844406    -0.000309777974    -0.517872558725    12.000000000000
         C           -3.027688844406     0.751933222026     0.424588441275    12.000000000000
         C           -3.027688844406    -0.752548777974     0.424591441275    12.000000000000
         C           -0.647743844406    -0.000309777974    -0.299729558725    12.000000000000
         C            0.064388155594     1.202681222026    -0.210444558725    12.000000000000
         C            0.064388155594    -1.203299777974    -0.210444558725    12.000000000000
         C            1.448381155594     1.201017222026    -0.036470558725    12.000000000000
         C            1.448382155594    -1.201634777974    -0.036470558725    12.000000000000
         C            2.163487155594    -0.000308777974     0.051458441275    12.000000000000
         C            3.652314155594    -0.000307777974     0.283667441275    12.000000000000
         H           -2.435276844406    -0.000312777974    -1.562225558725     1.007825032230
         H           -3.888672844406     1.269616222026     0.013840441275     1.007825032230
         H           -2.557673844406     1.253148222026     1.264813441275     1.007825032230
         H           -2.557673844406    -1.253761777974     1.264818441275     1.007825032230
         H           -3.888673844406    -1.270232777974     0.013846441275     1.007825032230
         H           -0.474656844406     2.146116222026    -0.279004558725     1.007825032230
         H           -0.474655844406    -2.146735777974    -0.279004558725     1.007825032230
         H            1.982930155594     2.147926222026     0.028848441275     1.007825032230
         H            1.982931155594    -2.148543777974     0.028848441275     1.007825032230
         H            4.119287155594    -0.885658777974    -0.157429558725     1.007825032230
         H            4.140632855594     0.925513222026    -0.177591358725     1.007825032230
         H            3.886872155594    -0.000308777974     1.353914441275     1.007825032230

  Basis Set: AUG-CC-PVTZ
    Blend: AUG-CC-PVTZ
  Basis Set: (AUG-CC-PVTZ AUX)
    Blend: AUG-CC-PVTZ-JKFIT
	 Reference Energy          =    -385.7674110260592215 [Eh]
	 Singles Energy            =      -0.0000000000000000 [Eh]
	 Same-Spin Energy          =      -0.4317187803359928 [Eh]
	 Opposite-Spin Energy      =      -1.4118389135780334 [Eh]
	 Correlation Energy        =      -1.8435576939140261 [Eh]
	 Total Energy              =    -387.6109687199732434 [Eh]

	 ================> DF-SCS-MP2 Energies <==================
	-----------------------------------------------------------
	 SCS Same-Spin Scale       =       0.3333333333333333 [-]
	 SCS Opposite-Spin Scale   =       1.2000000000000000 [-]
	 SCS Same-Spin Energy      =      -0.1439062601119976 [Eh]
	 SCS Opposite-Spin Energy  =      -1.6942066962936400 [Eh]
	 SCS Correlation Energy    =      -1.8381129564056375 [Eh]
	 SCS Total Energy          =    -387.6055239824648311 [Eh]
	-----------------------------------------------------------

  Dipole Moment: [D]
     X:     0.0885      Y:    -0.0185      Z:     0.0360     Total:     0.0974

*** Psi4 exiting successfully. Buy a developer a beer!
