                               Psi4 1.4a3.dev225

  ==> Input File <==

--------------------------------------------------------------------------
#psi4
#
memory 32 gb

molecule  {
0 1
  C       -2.1229620    -0.0000010    -0.5285820
  C       -3.0262580     0.7522420     0.4138790
  C       -3.0572605    -0.7642313     0.3731296
  C       -0.6463130    -0.0000010    -0.3104390
  C        0.0658190     1.2029900    -0.2211540
  C        0.0658190    -1.2029910    -0.2211540
  C        1.4498120     1.2013260    -0.0471800
  C        1.4498130    -1.2013260    -0.0471800
  C        2.1649180     0.0000000     0.0407490
  C        3.6537450     0.0000010     0.2729580
  H       -2.4338460    -0.0000040    -1.5729350
  H       -3.8872420     1.2699250     0.0031310
  H       -2.5562430     1.2534570     1.2541040
  H       -2.5562430    -1.2534530     1.2541090
  H       -3.8872430    -1.2699240     0.0031370
  H       -0.4732260     2.1464250    -0.2897140
  H       -0.4732250    -2.1464270    -0.2897140
  H        1.9843610     2.1482350     0.0181390
  H        1.9843620    -2.1482350     0.0181390
  H        4.1207180    -0.8853500    -0.1681390
  H        4.1207180     0.8853520    -0.1681380
  H        3.8883030     0.0000000     1.3432050
units angstrom
no_reorient  #important for SAPT in psi4, default
symmetry c1  #important for SAPT in psi4, default
}

set PROPERTIES_ORIGIN ["COM"]
properties('MP2/aug-cc-pvtz', properties = ['dipole'])
--------------------------------------------------------------------------

    Molecular point group: c1
  Charge       = 0
  Multiplicity = 1
  Basis Set: AUG-CC-PVTZ
    Blend: AUG-CC-PVTZ
  Basis Set: (AUG-CC-PVTZ AUX)
    Blend: AUG-CC-PVTZ-JKFIT

    Orbital Energies [Eh]
    ---------------------

    Doubly Occupied:

       1A    -11.238163     2A    -11.234840     3A    -11.233859
       4A    -11.229613     5A    -11.229275     6A    -11.227759
       7A    -11.227554     8A    -11.225028     9A    -11.224389
      10A    -11.222594    11A     -1.162605    12A     -1.129196
      13A     -1.039293    14A     -1.006979    15A     -0.936872
      16A     -0.834837    17A     -0.831718    18A     -0.810295
      19A     -0.765556    20A     -0.685549    21A     -0.657061
      22A     -0.634132    23A     -0.626604    24A     -0.596348
      25A     -0.577278    26A     -0.573300    27A     -0.538865
      28A     -0.527931    29A     -0.513032    30A     -0.489519
      31A     -0.483958    32A     -0.476542    33A     -0.420295
      34A     -0.414787    35A     -0.331699    36A     -0.312360

  @DF-RHF Final Energy:  -385.76619837076953

   => Energetics <=

    Nuclear Repulsion Energy =            482.3040992937702072
    One-Electron Energy =               -1476.8012279225847578
    Two-Electron Energy =                 608.7309302580450776
    Total Energy =                       -385.7661983707695299
  Basis Set: (AUG-CC-PVTZ AUX)
    Blend: AUG-CC-PVTZ-RI
    Molecular point group: c1

    Geometry (in Angstrom), charge = 0, multiplicity = 1:

       Center              X                  Y                   Z               Mass
    ------------   -----------------  -----------------  -----------------  -----------------
         C           -2.121413579431     0.001088335630    -0.514324262974    12.000000000000
         C           -3.024709579431     0.753331335630     0.428136737026    12.000000000000
         C           -3.055712079431    -0.763141964370     0.387387337026    12.000000000000
         C           -0.644764579431     0.001088335630    -0.296181262974    12.000000000000
         C            0.067367420569     1.204079335630    -0.206896262974    12.000000000000
         C            0.067367420569    -1.201901664370    -0.206896262974    12.000000000000
         C            1.451360420569     1.202415335630    -0.032922262974    12.000000000000
         C            1.451361420569    -1.200236664370    -0.032922262974    12.000000000000
         C            2.166466420569     0.001089335630     0.055006737026    12.000000000000
         C            3.655293420569     0.001090335630     0.287215737026    12.000000000000
         H           -2.432297579431     0.001085335630    -1.558677262974     1.007825032230
         H           -3.885693579431     1.271014335630     0.017388737026     1.007825032230
         H           -2.554694579431     1.254546335630     1.268361737026     1.007825032230
         H           -2.554694579431    -1.252363664370     1.268366737026     1.007825032230
         H           -3.885694579431    -1.268834664370     0.017394737026     1.007825032230
         H           -0.471677579431     2.147514335630    -0.275456262974     1.007825032230
         H           -0.471676579431    -2.145337664370    -0.275456262974     1.007825032230
         H            1.985909420569     2.149324335630     0.032396737026     1.007825032230
         H            1.985910420569    -2.147145664370     0.032396737026     1.007825032230
         H            4.122266420569    -0.884260664370    -0.153881262974     1.007825032230
         H            4.122266420569     0.886441335630    -0.153880262974     1.007825032230
         H            3.889851420569     0.001089335630     1.357462737026     1.007825032230

  Basis Set: AUG-CC-PVTZ
    Blend: AUG-CC-PVTZ
  Basis Set: (AUG-CC-PVTZ AUX)
    Blend: AUG-CC-PVTZ-JKFIT
	 Reference Energy          =    -385.7661983707695299 [Eh]
	 Singles Energy            =      -0.0000000000000000 [Eh]
	 Same-Spin Energy          =      -0.4317398632533727 [Eh]
	 Opposite-Spin Energy      =      -1.4117071979186648 [Eh]
	 Correlation Energy        =      -1.8434470611720375 [Eh]
	 Total Energy              =    -387.6096454319415443 [Eh]

	 ================> DF-SCS-MP2 Energies <==================
	-----------------------------------------------------------
	 SCS Same-Spin Scale       =       0.3333333333333333 [-]
	 SCS Opposite-Spin Scale   =       1.2000000000000000 [-]
	 SCS Same-Spin Energy      =      -0.1439132877511242 [Eh]
	 SCS Opposite-Spin Energy  =      -1.6940486375023978 [Eh]
	 SCS Correlation Energy    =      -1.8379619252535220 [Eh]
	 SCS Total Energy          =    -387.6041602960230534 [Eh]
	-----------------------------------------------------------

  Dipole Moment: [D]
     X:     0.1234      Y:    -0.0027      Z:     0.0097     Total:     0.1238

*** Psi4 exiting successfully. Buy a developer a beer!
