                               Psi4 1.4a3.dev225

  ==> Input File <==

--------------------------------------------------------------------------
#psi4
#
memory 32 gb

molecule  {
0 1
  C       -2.1229620    -0.0000010    -0.5285820
  C       -3.0262580     0.7522420     0.4138790
  C       -3.0262580    -0.7522400     0.4138820
  C       -0.6463130    -0.0000010    -0.3104390
  C        0.0658190     1.2029900    -0.2211540
  C        0.0658190    -1.2029910    -0.2211540
  C        1.4498120     1.2013260    -0.0471800
  C        1.4498130    -1.2013260    -0.0471800
  C        2.1649180     0.0000000     0.0407490
  C        3.6339839     0.0000010     0.2698759
  H       -2.4338460    -0.0000040    -1.5729350
  H       -3.8872420     1.2699250     0.0031310
  H       -2.5562430     1.2534570     1.2541040
  H       -2.5562430    -1.2534530     1.2541090
  H       -3.8872430    -1.2699240     0.0031370
  H       -0.4732260     2.1464250    -0.2897140
  H       -0.4732250    -2.1464270    -0.2897140
  H        1.9843610     2.1482350     0.0181390
  H        1.9843620    -2.1482350     0.0181390
  H        4.1207180    -0.8853500    -0.1681390
  H        4.1207180     0.8853520    -0.1681380
  H        3.8883030     0.0000000     1.3432050
units angstrom
no_reorient  #important for SAPT in psi4, default
symmetry c1  #important for SAPT in psi4, default
}

set PROPERTIES_ORIGIN ["COM"]
properties('MP2/aug-cc-pvtz', properties = ['dipole'])
--------------------------------------------------------------------------

    Molecular point group: c1
  Charge       = 0
  Multiplicity = 1
  Basis Set: AUG-CC-PVTZ
    Blend: AUG-CC-PVTZ
  Basis Set: (AUG-CC-PVTZ AUX)
    Blend: AUG-CC-PVTZ-JKFIT

    Orbital Energies [Eh]
    ---------------------

    Doubly Occupied:

       1A    -11.237002     2A    -11.234205     3A    -11.233052
       4A    -11.229228     5A    -11.229068     6A    -11.227505
       7A    -11.227430     8A    -11.224706     9A    -11.224053
      10A    -11.223150    11A     -1.163670    12A     -1.130842
      13A     -1.041146    14A     -1.006883    15A     -0.936215
      16A     -0.834179    17A     -0.831272    18A     -0.809001
      19A     -0.765930    20A     -0.687231    21A     -0.653115
      22A     -0.634138    23A     -0.627598    24A     -0.599965
      25A     -0.577077    26A     -0.571082    27A     -0.534860
      28A     -0.531278    29A     -0.512330    30A     -0.489903
      31A     -0.482997    32A     -0.477122    33A     -0.424150
      34A     -0.412853    35A     -0.331604    36A     -0.311873

  @DF-RHF Final Energy:  -385.76885024530986

   => Energetics <=

    Nuclear Repulsion Energy =            482.9574391662864059
    One-Electron Energy =               -1478.1171521547748853
    Two-Electron Energy =                 609.3908627431786726
    Total Energy =                       -385.7688502453098636
  Basis Set: (AUG-CC-PVTZ AUX)
    Blend: AUG-CC-PVTZ-RI
    Molecular point group: c1

    Geometry (in Angstrom), charge = 0, multiplicity = 1:

       Center              X                  Y                   Z               Mass
    ------------   -----------------  -----------------  -----------------  -----------------
         C           -2.122434798425    -0.000001007630    -0.517746401307    12.000000000000
         C           -3.025730798425     0.752241992370     0.424714598693    12.000000000000
         C           -3.025730798425    -0.752240007630     0.424717598693    12.000000000000
         C           -0.645785798425    -0.000001007630    -0.299603401307    12.000000000000
         C            0.066346201575     1.202989992370    -0.210318401307    12.000000000000
         C            0.066346201575    -1.202991007630    -0.210318401307    12.000000000000
         C            1.450339201575     1.201325992370    -0.036344401307    12.000000000000
         C            1.450340201575    -1.201326007630    -0.036344401307    12.000000000000
         C            2.165445201575    -0.000000007630     0.051584598693    12.000000000000
         C            3.634511101575     0.000000992370     0.280711498693    12.000000000000
         H           -2.433318798425    -0.000004007630    -1.562099401307     1.007825032230
         H           -3.886714798425     1.269924992370     0.013966598693     1.007825032230
         H           -2.555715798425     1.253456992370     1.264939598693     1.007825032230
         H           -2.555715798425    -1.253453007630     1.264944598693     1.007825032230
         H           -3.886715798425    -1.269924007630     0.013972598693     1.007825032230
         H           -0.472698798425     2.146424992370    -0.278878401307     1.007825032230
         H           -0.472697798425    -2.146427007630    -0.278878401307     1.007825032230
         H            1.984888201575     2.148234992370     0.028974598693     1.007825032230
         H            1.984889201575    -2.148235007630     0.028974598693     1.007825032230
         H            4.121245201575    -0.885350007630    -0.157303401307     1.007825032230
         H            4.121245201575     0.885351992370    -0.157302401307     1.007825032230
         H            3.888830201575    -0.000000007630     1.354040598693     1.007825032230

  Basis Set: AUG-CC-PVTZ
    Blend: AUG-CC-PVTZ
  Basis Set: (AUG-CC-PVTZ AUX)
    Blend: AUG-CC-PVTZ-JKFIT
	 Reference Energy          =    -385.7688502453098636 [Eh]
	 Singles Energy            =      -0.0000000000000000 [Eh]
	 Same-Spin Energy          =      -0.4318947026804486 [Eh]
	 Opposite-Spin Energy      =      -1.4116592017571397 [Eh]
	 Correlation Energy        =      -1.8435539044375882 [Eh]
	 Total Energy              =    -387.6124041497474764 [Eh]

	 ================> DF-SCS-MP2 Energies <==================
	-----------------------------------------------------------
	 SCS Same-Spin Scale       =       0.3333333333333333 [-]
	 SCS Opposite-Spin Scale   =       1.2000000000000000 [-]
	 SCS Same-Spin Energy      =      -0.1439649008934829 [Eh]
	 SCS Opposite-Spin Energy  =      -1.6939910421085675 [Eh]
	 SCS Correlation Energy    =      -1.8379559430020505 [Eh]
	 SCS Total Energy          =    -387.6068061883119071 [Eh]
	-----------------------------------------------------------

  Dipole Moment: [D]
     X:     0.1157      Y:    -0.0000      Z:     0.0299     Total:     0.1195

*** Psi4 exiting successfully. Buy a developer a beer!
