                               Psi4 1.4a3.dev225

  ==> Input File <==

--------------------------------------------------------------------------
#psi4
#
memory 32 gb

molecule  {
0 1
  C       -2.1229620    -0.0000010    -0.5285820
  C       -3.0262580     0.7522420     0.4138790
  C       -3.0262580    -0.7522400     0.4138820
  C       -0.6463130    -0.0000010    -0.3104390
  C        0.0658190     1.2029900    -0.2211540
  C        0.0658190    -1.2029910    -0.2211540
  C        1.4498120     1.2013260    -0.0471800
  C        1.4498130    -1.2013260    -0.0471800
  C        2.1649180     0.0000000     0.0407490
  C        3.7525505     0.0000011     0.2883685
  H       -2.4338460    -0.0000040    -1.5729350
  H       -3.8872420     1.2699250     0.0031310
  H       -2.5562430     1.2534570     1.2541040
  H       -2.5562430    -1.2534530     1.2541090
  H       -3.8872430    -1.2699240     0.0031370
  H       -0.4732260     2.1464250    -0.2897140
  H       -0.4732250    -2.1464270    -0.2897140
  H        1.9843610     2.1482350     0.0181390
  H        1.9843620    -2.1482350     0.0181390
  H        4.1207180    -0.8853500    -0.1681390
  H        4.1207180     0.8853520    -0.1681380
  H        3.8883030     0.0000000     1.3432050
units angstrom
no_reorient  #important for SAPT in psi4, default
symmetry c1  #important for SAPT in psi4, default
}

set PROPERTIES_ORIGIN ["COM"]
properties('MP2/aug-cc-pvtz', properties = ['dipole'])
--------------------------------------------------------------------------

    Molecular point group: c1
  Charge       = 0
  Multiplicity = 1
  Basis Set: AUG-CC-PVTZ
    Blend: AUG-CC-PVTZ
  Basis Set: (AUG-CC-PVTZ AUX)
    Blend: AUG-CC-PVTZ-JKFIT

    Orbital Energies [Eh]
    ---------------------

    Doubly Occupied:

       1A    -11.241630     2A    -11.233768     3A    -11.232751
       4A    -11.228886     5A    -11.228731     6A    -11.227312
       7A    -11.227256     8A    -11.224459     9A    -11.223806
      10A    -11.220761    11A     -1.162267    12A     -1.127475
      13A     -1.030592    14A     -1.006116    15A     -0.939369
      16A     -0.833458    17A     -0.833033    18A     -0.807791
      19A     -0.765169    20A     -0.686094    21A     -0.650386
      22A     -0.632512    23A     -0.621554    24A     -0.596604
      25A     -0.584871    26A     -0.577075    27A     -0.556171
      28A     -0.516571    29A     -0.512189    30A     -0.489563
      31A     -0.485507    32A     -0.464470    33A     -0.424534
      34A     -0.412569    35A     -0.331029    36A     -0.313624

  @DF-RHF Final Energy:  -385.76239920618616

   => Energetics <=

    Nuclear Repulsion Energy =            480.9986477001996263
    One-Electron Energy =               -1474.2221890243088183
    Two-Electron Energy =                 607.4611421179230319
    Total Energy =                       -385.7623992061861600
  Basis Set: (AUG-CC-PVTZ AUX)
    Blend: AUG-CC-PVTZ-RI
    Molecular point group: c1

    Geometry (in Angstrom), charge = 0, multiplicity = 1:

       Center              X                  Y                   Z               Mass
    ------------   -----------------  -----------------  -----------------  -----------------
         C           -2.133205918028    -0.000001016714    -0.519426351701    12.000000000000
         C           -3.036501918028     0.752241983286     0.423034648299    12.000000000000
         C           -3.036501918028    -0.752240016714     0.423037648299    12.000000000000
         C           -0.656556918028    -0.000001016714    -0.301283351701    12.000000000000
         C            0.055575081972     1.202989983286    -0.211998351701    12.000000000000
         C            0.055575081972    -1.202991016714    -0.211998351701    12.000000000000
         C            1.439568081972     1.201325983286    -0.038024351701    12.000000000000
         C            1.439569081972    -1.201326016714    -0.038024351701    12.000000000000
         C            2.154674081972    -0.000000016714     0.049904648299    12.000000000000
         C            3.742306581972     0.000001083286     0.297524148299    12.000000000000
         H           -2.444089918028    -0.000004016714    -1.563779351701     1.007825032230
         H           -3.897485918028     1.269924983286     0.012286648299     1.007825032230
         H           -2.566486918028     1.253456983286     1.263259648299     1.007825032230
         H           -2.566486918028    -1.253453016714     1.263264648299     1.007825032230
         H           -3.897486918028    -1.269924016714     0.012292648299     1.007825032230
         H           -0.483469918028     2.146424983286    -0.280558351701     1.007825032230
         H           -0.483468918028    -2.146427016714    -0.280558351701     1.007825032230
         H            1.974117081972     2.148234983286     0.027294648299     1.007825032230
         H            1.974118081972    -2.148235016714     0.027294648299     1.007825032230
         H            4.110474081972    -0.885350016714    -0.158983351701     1.007825032230
         H            4.110474081972     0.885351983286    -0.158982351701     1.007825032230
         H            3.878059081972    -0.000000016714     1.352360648299     1.007825032230

  Basis Set: AUG-CC-PVTZ
    Blend: AUG-CC-PVTZ
  Basis Set: (AUG-CC-PVTZ AUX)
    Blend: AUG-CC-PVTZ-JKFIT
	 Reference Energy          =    -385.7623992061861600 [Eh]
	 Singles Energy            =      -0.0000000000000000 [Eh]
	 Same-Spin Energy          =      -0.4312742472912792 [Eh]
	 Opposite-Spin Energy      =      -1.4114451199376847 [Eh]
	 Correlation Energy        =      -1.8427193672289639 [Eh]
	 Total Energy              =    -387.6051185734150977 [Eh]

	 ================> DF-SCS-MP2 Energies <==================
	-----------------------------------------------------------
	 SCS Same-Spin Scale       =       0.3333333333333333 [-]
	 SCS Opposite-Spin Scale   =       1.2000000000000000 [-]
	 SCS Same-Spin Energy      =      -0.1437580824304264 [Eh]
	 SCS Opposite-Spin Energy  =      -1.6937341439252216 [Eh]
	 SCS Correlation Energy    =      -1.8374922263556479 [Eh]
	 SCS Total Energy          =    -387.5998914325418241 [Eh]
	-----------------------------------------------------------

  Dipole Moment: [D]
     X:     0.0974      Y:    -0.0000      Z:     0.0246     Total:     0.1004

*** Psi4 exiting successfully. Buy a developer a beer!
