                               Psi4 1.4a3.dev225

  ==> Input File <==

--------------------------------------------------------------------------
#psi4
#
memory 32 gb

molecule  {
0 1
  C       -2.1229620    -0.0000010    -0.5285820
  C       -3.0262580     0.7522420     0.4138790
  C       -3.0262580    -0.7522400     0.4138820
  C       -0.6463130    -0.0000010    -0.3104390
  C        0.0658190     1.2029900    -0.2211540
  C        0.0658190    -1.2029910    -0.2211540
  C        1.2513738     1.2015646    -0.0721246
  C        1.4498130    -1.2013260    -0.0471800
  C        2.1649180     0.0000000     0.0407490
  C        3.6537450     0.0000010     0.2729580
  H       -2.4338460    -0.0000040    -1.5729350
  H       -3.8872420     1.2699250     0.0031310
  H       -2.5562430     1.2534570     1.2541040
  H       -2.5562430    -1.2534530     1.2541090
  H       -3.8872430    -1.2699240     0.0031370
  H       -0.4732260     2.1464250    -0.2897140
  H       -0.4732250    -2.1464270    -0.2897140
  H        1.9843610     2.1482350     0.0181390
  H        1.9843620    -2.1482350     0.0181390
  H        4.1207180    -0.8853500    -0.1681390
  H        4.1207180     0.8853520    -0.1681380
  H        3.8883030     0.0000000     1.3432050
units angstrom
no_reorient  #important for SAPT in psi4, default
symmetry c1  #important for SAPT in psi4, default
}

set PROPERTIES_ORIGIN ["COM"]
properties('MP2/aug-cc-pvtz', properties = ['dipole'])
--------------------------------------------------------------------------

    Molecular point group: c1
  Charge       = 0
  Multiplicity = 1
  Basis Set: AUG-CC-PVTZ
    Blend: AUG-CC-PVTZ
  Basis Set: (AUG-CC-PVTZ AUX)
    Blend: AUG-CC-PVTZ-JKFIT

    Orbital Energies [Eh]
    ---------------------

    Doubly Occupied:

       1A    -11.246902     2A    -11.233893     3A    -11.232558
       4A    -11.228048     5A    -11.225873     6A    -11.224582
       7A    -11.224456     8A    -11.223765     9A    -11.223696
      10A    -11.201826    11A     -1.172608    12A     -1.133927
      13A     -1.047393    14A     -1.020097    15A     -0.938868
      16A     -0.836419    17A     -0.824751    18A     -0.794184
      19A     -0.771640    20A     -0.688212    21A     -0.655747
      22A     -0.642440    23A     -0.621004    24A     -0.590433
      25A     -0.576355    26A     -0.573955    27A     -0.545335
      28A     -0.526701    29A     -0.512310    30A     -0.503454
      31A     -0.487946    32A     -0.443090    33A     -0.424361
      34A     -0.409133    35A     -0.360359    36A     -0.297936

  @DF-RHF Final Energy:  -385.70609769631750

   => Energetics <=

    Nuclear Repulsion Energy =            484.6271507955825086
    One-Electron Energy =               -1481.3379804221819995
    Two-Electron Energy =                 611.0047319302819915
    Total Energy =                       -385.7060976963174426
  Basis Set: (AUG-CC-PVTZ AUX)
    Blend: AUG-CC-PVTZ-RI
    Molecular point group: c1

    Geometry (in Angstrom), charge = 0, multiplicity = 1:

       Center              X                  Y                   Z               Mass
    ------------   -----------------  -----------------  -----------------  -----------------
         C           -2.106202972476    -0.000022683119    -0.515760314143    12.000000000000
         C           -3.009498972476     0.752220316881     0.426700685857    12.000000000000
         C           -3.009498972476    -0.752261683119     0.426703685857    12.000000000000
         C           -0.629553972476    -0.000022683119    -0.297617314143    12.000000000000
         C            0.082578027524     1.202968316881    -0.208332314143    12.000000000000
         C            0.082578027524    -1.203012683119    -0.208332314143    12.000000000000
         C            1.268132827524     1.201542916881    -0.059302914143    12.000000000000
         C            1.466572027524    -1.201347683119    -0.034358314143    12.000000000000
         C            2.181677027524    -0.000021683119     0.053570685857    12.000000000000
         C            3.670504027524    -0.000020683119     0.285779685857    12.000000000000
         H           -2.417086972476    -0.000025683119    -1.560113314143     1.007825032230
         H           -3.870482972476     1.269903316881     0.015952685857     1.007825032230
         H           -2.539483972476     1.253435316881     1.266925685857     1.007825032230
         H           -2.539483972476    -1.253474683119     1.266930685857     1.007825032230
         H           -3.870483972476    -1.269945683119     0.015958685857     1.007825032230
         H           -0.456466972476     2.146403316881    -0.276892314143     1.007825032230
         H           -0.456465972476    -2.146448683119    -0.276892314143     1.007825032230
         H            2.001120027524     2.148213316881     0.030960685857     1.007825032230
         H            2.001121027524    -2.148256683119     0.030960685857     1.007825032230
         H            4.137477027524    -0.885371683119    -0.155317314143     1.007825032230
         H            4.137477027524     0.885330316881    -0.155316314143     1.007825032230
         H            3.905062027524    -0.000021683119     1.356026685857     1.007825032230

  Basis Set: AUG-CC-PVTZ
    Blend: AUG-CC-PVTZ
  Basis Set: (AUG-CC-PVTZ AUX)
    Blend: AUG-CC-PVTZ-JKFIT
	 Reference Energy          =    -385.7060976963174994 [Eh]
	 Singles Energy            =      -0.0000000000000000 [Eh]
	 Same-Spin Energy          =      -0.4314382227988126 [Eh]
	 Opposite-Spin Energy      =      -1.4131516855450452 [Eh]
	 Correlation Energy        =      -1.8445899083438579 [Eh]
	 Total Energy              =    -387.5506876046613343 [Eh]

	 ================> DF-SCS-MP2 Energies <==================
	-----------------------------------------------------------
	 SCS Same-Spin Scale       =       0.3333333333333333 [-]
	 SCS Opposite-Spin Scale   =       1.2000000000000000 [-]
	 SCS Same-Spin Energy      =      -0.1438127409329375 [Eh]
	 SCS Opposite-Spin Energy  =      -1.6957820226540543 [Eh]
	 SCS Correlation Energy    =      -1.8395947635869918 [Eh]
	 SCS Total Energy          =    -387.5456924599045010 [Eh]
	-----------------------------------------------------------

  Dipole Moment: [D]
     X:     0.1900      Y:    -0.0861      Z:     0.0368     Total:     0.2118

*** Psi4 exiting successfully. Buy a developer a beer!
