                               Psi4 1.4a3.dev225

  ==> Input File <==

--------------------------------------------------------------------------
#psi4
#
memory 32 gb

molecule  {
0 1
  C       -2.1229620    -0.0000010    -0.5285820
  C       -3.0262580     0.7522420     0.4138790
  C       -3.0142673    -0.7422545     0.4013714
  C       -0.6463130    -0.0000010    -0.3104390
  C        0.0658190     1.2029900    -0.2211540
  C        0.0658190    -1.2029910    -0.2211540
  C        1.4498120     1.2013260    -0.0471800
  C        1.4498130    -1.2013260    -0.0471800
  C        2.1649180     0.0000000     0.0407490
  C        3.6537450     0.0000010     0.2729580
  H       -2.4338460    -0.0000040    -1.5729350
  H       -3.8872420     1.2699250     0.0031310
  H       -2.5562430     1.2534570     1.2541040
  H       -2.5562430    -1.2534530     1.2541090
  H       -3.8872430    -1.2699240     0.0031370
  H       -0.4732260     2.1464250    -0.2897140
  H       -0.4732250    -2.1464270    -0.2897140
  H        1.9843610     2.1482350     0.0181390
  H        1.9843620    -2.1482350     0.0181390
  H        4.1207180    -0.8853500    -0.1681390
  H        4.1207180     0.8853520    -0.1681380
  H        3.8883030     0.0000000     1.3432050
units angstrom
no_reorient  #important for SAPT in psi4, default
symmetry c1  #important for SAPT in psi4, default
}

set PROPERTIES_ORIGIN ["COM"]
properties('MP2/aug-cc-pvtz', properties = ['dipole'])
--------------------------------------------------------------------------

    Molecular point group: c1
  Charge       = 0
  Multiplicity = 1
  Basis Set: AUG-CC-PVTZ
    Blend: AUG-CC-PVTZ
  Basis Set: (AUG-CC-PVTZ AUX)
    Blend: AUG-CC-PVTZ-JKFIT

    Orbital Energies [Eh]
    ---------------------

    Doubly Occupied:

       1A    -11.237919     2A    -11.234041     3A    -11.232160
       4A    -11.229196     5A    -11.228993     6A    -11.227475
       7A    -11.227378     8A    -11.224610     9A    -11.223028
      10A    -11.222453    11A     -1.165787    12A     -1.132660
      13A     -1.039485    14A     -1.006749    15A     -0.936710
      16A     -0.833824    17A     -0.831299    18A     -0.807641
      19A     -0.765949    20A     -0.687430    21A     -0.653685
      22A     -0.633748    23A     -0.626916    24A     -0.599712
      25A     -0.577043    26A     -0.573134    27A     -0.538457
      28A     -0.527666    29A     -0.508220    30A     -0.489848
      31A     -0.483829    32A     -0.475856    33A     -0.426609
      34A     -0.414460    35A     -0.331491    36A     -0.312342

  @DF-RHF Final Energy:  -385.76911640730179

   => Energetics <=

    Nuclear Repulsion Energy =            482.9918675672072936
    One-Electron Energy =               -1478.1863586386818952
    Two-Electron Energy =                 609.4253746641728640
    Total Energy =                       -385.7691164073017944
  Basis Set: (AUG-CC-PVTZ AUX)
    Blend: AUG-CC-PVTZ-RI
    Molecular point group: c1

    Geometry (in Angstrom), charge = 0, multiplicity = 1:

       Center              X                  Y                   Z               Mass
    ------------   -----------------  -----------------  -----------------  -----------------
         C           -2.125319273778    -0.000908135057    -0.516889874248    12.000000000000
         C           -3.028615273778     0.751334864943     0.425571125752    12.000000000000
         C           -3.016624573778    -0.743161635057     0.413063525752    12.000000000000
         C           -0.648670273778    -0.000908135057    -0.298746874248    12.000000000000
         C            0.063461726222     1.202082864943    -0.209461874248    12.000000000000
         C            0.063461726222    -1.203898135057    -0.209461874248    12.000000000000
         C            1.447454726222     1.200418864943    -0.035487874248    12.000000000000
         C            1.447455726222    -1.202233135057    -0.035487874248    12.000000000000
         C            2.162560726222    -0.000907135057     0.052441125752    12.000000000000
         C            3.651387726222    -0.000906135057     0.284650125752    12.000000000000
         H           -2.436203273778    -0.000911135057    -1.561242874248     1.007825032230
         H           -3.889599273778     1.269017864943     0.014823125752     1.007825032230
         H           -2.558600273778     1.252549864943     1.265796125752     1.007825032230
         H           -2.558600273778    -1.254360135057     1.265801125752     1.007825032230
         H           -3.889600273778    -1.270831135057     0.014829125752     1.007825032230
         H           -0.475583273778     2.145517864943    -0.278021874248     1.007825032230
         H           -0.475582273778    -2.147334135057    -0.278021874248     1.007825032230
         H            1.982003726222     2.147327864943     0.029831125752     1.007825032230
         H            1.982004726222    -2.149142135057     0.029831125752     1.007825032230
         H            4.118360726222    -0.886257135057    -0.156446874248     1.007825032230
         H            4.118360726222     0.884444864943    -0.156445874248     1.007825032230
         H            3.885945726222    -0.000907135057     1.354897125752     1.007825032230

  Basis Set: AUG-CC-PVTZ
    Blend: AUG-CC-PVTZ
  Basis Set: (AUG-CC-PVTZ AUX)
    Blend: AUG-CC-PVTZ-JKFIT
	 Reference Energy          =    -385.7691164073017944 [Eh]
	 Singles Energy            =      -0.0000000000000000 [Eh]
	 Same-Spin Energy          =      -0.4317838079321913 [Eh]
	 Opposite-Spin Energy      =      -1.4113887854557969 [Eh]
	 Correlation Energy        =      -1.8431725933879881 [Eh]
	 Total Energy              =    -387.6122890006897705 [Eh]

	 ================> DF-SCS-MP2 Energies <==================
	-----------------------------------------------------------
	 SCS Same-Spin Scale       =       0.3333333333333333 [-]
	 SCS Opposite-Spin Scale   =       1.2000000000000000 [-]
	 SCS Same-Spin Energy      =      -0.1439279359773971 [Eh]
	 SCS Opposite-Spin Energy  =      -1.6936665425469564 [Eh]
	 SCS Correlation Energy    =      -1.8375944785243534 [Eh]
	 SCS Total Energy          =    -387.6067108858261463 [Eh]
	-----------------------------------------------------------

  Dipole Moment: [D]
     X:     0.1104      Y:    -0.0120      Z:     0.0330     Total:     0.1159

*** Psi4 exiting successfully. Buy a developer a beer!
