                               Psi4 1.4a3.dev225

  ==> Input File <==

--------------------------------------------------------------------------
#psi4
#
memory 32 gb

molecule  {
0 1
  C       -2.1229620    -0.0000010    -0.5285820
  C       -3.0262580     0.7522420     0.4138790
  C       -3.0382487    -0.7622255     0.4263926
  C       -0.6463130    -0.0000010    -0.3104390
  C        0.0658190     1.2029900    -0.2211540
  C        0.0658190    -1.2029910    -0.2211540
  C        1.4498120     1.2013260    -0.0471800
  C        1.4498130    -1.2013260    -0.0471800
  C        2.1649180     0.0000000     0.0407490
  C        3.6537450     0.0000010     0.2729580
  H       -2.4338460    -0.0000040    -1.5729350
  H       -3.8872420     1.2699250     0.0031310
  H       -2.5562430     1.2534570     1.2541040
  H       -2.5562430    -1.2534530     1.2541090
  H       -3.8872430    -1.2699240     0.0031370
  H       -0.4732260     2.1464250    -0.2897140
  H       -0.4732250    -2.1464270    -0.2897140
  H        1.9843610     2.1482350     0.0181390
  H        1.9843620    -2.1482350     0.0181390
  H        4.1207180    -0.8853500    -0.1681390
  H        4.1207180     0.8853520    -0.1681380
  H        3.8883030     0.0000000     1.3432050
units angstrom
no_reorient  #important for SAPT in psi4, default
symmetry c1  #important for SAPT in psi4, default
}

set PROPERTIES_ORIGIN ["COM"]
properties('MP2/aug-cc-pvtz', properties = ['dipole'])
--------------------------------------------------------------------------

    Molecular point group: c1
  Charge       = 0
  Multiplicity = 1
  Basis Set: AUG-CC-PVTZ
    Blend: AUG-CC-PVTZ
  Basis Set: (AUG-CC-PVTZ AUX)
    Blend: AUG-CC-PVTZ-JKFIT

    Orbital Energies [Eh]
    ---------------------

    Doubly Occupied:

       1A    -11.237934     2A    -11.234370     3A    -11.233683
       4A    -11.229186     5A    -11.228985     6A    -11.227475
       7A    -11.227377     8A    -11.225654     9A    -11.224113
      10A    -11.222465    11A     -1.161406    12A     -1.127433
      13A     -1.038766    14A     -1.006739    15A     -0.936616
      16A     -0.834840    17A     -0.831617    18A     -0.809821
      19A     -0.765631    20A     -0.686638    21A     -0.651416
      22A     -0.633760    23A     -0.625819    24A     -0.598990
      25A     -0.577044    26A     -0.573165    27A     -0.538456
      28A     -0.529687    29A     -0.515975    30A     -0.489668
      31A     -0.483588    32A     -0.476411    33A     -0.423687
      34A     -0.409304    35A     -0.331512    36A     -0.312185

  @DF-RHF Final Energy:  -385.76915508747163

   => Energetics <=

    Nuclear Repulsion Energy =            482.2521897199442265
    One-Electron Energy =               -1476.7198645775151817
    Two-Electron Energy =                 608.6985197700993240
    Total Energy =                       -385.7691550874716313
  Basis Set: (AUG-CC-PVTZ AUX)
    Blend: AUG-CC-PVTZ-RI
    Molecular point group: c1

    Geometry (in Angstrom), charge = 0, multiplicity = 1:

       Center              X                  Y                   Z               Mass
    ------------   -----------------  -----------------  -----------------  -----------------
         C           -2.123140696272     0.000906119798    -0.519162911830    12.000000000000
         C           -3.026436696272     0.753149119798     0.423298088170    12.000000000000
         C           -3.038427396272    -0.761318380202     0.435811688170    12.000000000000
         C           -0.646491696272     0.000906119798    -0.301019911830    12.000000000000
         C            0.065640303728     1.203897119798    -0.211734911830    12.000000000000
         C            0.065640303728    -1.202083880202    -0.211734911830    12.000000000000
         C            1.449633303728     1.202233119798    -0.037760911830    12.000000000000
         C            1.449634303728    -1.200418880202    -0.037760911830    12.000000000000
         C            2.164739303728     0.000907119798     0.050168088170    12.000000000000
         C            3.653566303728     0.000908119798     0.282377088170    12.000000000000
         H           -2.434024696272     0.000903119798    -1.563515911830     1.007825032230
         H           -3.887420696272     1.270832119798     0.012550088170     1.007825032230
         H           -2.556421696272     1.254364119798     1.263523088170     1.007825032230
         H           -2.556421696272    -1.252545880202     1.263528088170     1.007825032230
         H           -3.887421696272    -1.269016880202     0.012556088170     1.007825032230
         H           -0.473404696272     2.147332119798    -0.280294911830     1.007825032230
         H           -0.473403696272    -2.145519880202    -0.280294911830     1.007825032230
         H            1.984182303728     2.149142119798     0.027558088170     1.007825032230
         H            1.984183303728    -2.147327880202     0.027558088170     1.007825032230
         H            4.120539303728    -0.884442880202    -0.158719911830     1.007825032230
         H            4.120539303728     0.886259119798    -0.158718911830     1.007825032230
         H            3.888124303728     0.000907119798     1.352624088170     1.007825032230

  Basis Set: AUG-CC-PVTZ
    Blend: AUG-CC-PVTZ
  Basis Set: (AUG-CC-PVTZ AUX)
    Blend: AUG-CC-PVTZ-JKFIT
	 Reference Energy          =    -385.7691550874716313 [Eh]
	 Singles Energy            =      -0.0000000000000000 [Eh]
	 Same-Spin Energy          =      -0.4316631367410820 [Eh]
	 Opposite-Spin Energy      =      -1.4116374670649208 [Eh]
	 Correlation Energy        =      -1.8433006038060027 [Eh]
	 Total Energy              =    -387.6124556912776598 [Eh]

	 ================> DF-SCS-MP2 Energies <==================
	-----------------------------------------------------------
	 SCS Same-Spin Scale       =       0.3333333333333333 [-]
	 SCS Opposite-Spin Scale   =       1.2000000000000000 [-]
	 SCS Same-Spin Energy      =      -0.1438877122470273 [Eh]
	 SCS Opposite-Spin Energy  =      -1.6939649604779048 [Eh]
	 SCS Correlation Energy    =      -1.8378526727249320 [Eh]
	 SCS Total Energy          =    -387.6070077601965522 [Eh]
	-----------------------------------------------------------

  Dipole Moment: [D]
     X:     0.1226      Y:     0.0129      Z:     0.0245     Total:     0.1257

*** Psi4 exiting successfully. Buy a developer a beer!
