                               Psi4 1.3.2 release

  ==> Input File <==

--------------------------------------------------------------------------
#psi4
#
memory 32 gb

molecule  {
0 1
  S        0.2011420    -0.7740460    -0.0125590
  O       -1.2094190     1.4662670    -0.0184260
  C        1.4537980     0.5412620     0.0354980
  C        2.8478080    -0.0717200    -0.0067890
  C       -1.2603440     0.2437000    -0.0198130
  C       -2.5567314    -0.5287367     0.1165607
  H        1.2827490     1.2035910    -0.8153790
  H        1.3032950     1.1268910     0.9448060
  H        3.0193930    -0.7314540     0.8473820
  H        3.0002020    -0.6488010    -0.9221550
  H        3.5981220     0.7231720     0.0226780
  H       -2.8743340    -0.6368580     1.0585370
  H       -2.4550100    -1.5249000    -0.4208200
  H       -3.3176630     0.0418070    -0.5195010
units angstrom
no_reorient  #important for SAPT in psi4, default
symmetry c1  #important for SAPT in psi4, default
}

set PROPERTIES_ORIGIN ["COM"]
properties('MP2/aug-cc-pvtz', properties = ['dipole'])
--------------------------------------------------------------------------

    Molecular point group: c1
  Charge       = 0
  Multiplicity = 1
  Basis Set: AUG-CC-PVTZ
    Blend: AUG-CC-PVTZ
  Basis Set: (AUG-CC-PVTZ AUX)
    Blend: AUG-CC-PVTZ-JKFIT

    Orbital Energies [Eh]
    ---------------------

    Doubly Occupied:

       1A    -91.969433     2A    -20.554941     3A    -11.365087
       4A    -11.262983     5A    -11.245949     6A    -11.231719
       7A     -8.971113     8A     -6.652258     9A     -6.651134
      10A     -6.650505    11A     -1.390359    12A     -1.087033
      13A     -1.030825    14A     -0.958454    15A     -0.836209
      16A     -0.734099    17A     -0.652063    18A     -0.643802
      19A     -0.634896    20A     -0.615406    21A     -0.567720
      22A     -0.547094    23A     -0.531363    24A     -0.513816
      25A     -0.504635    26A     -0.461695    27A     -0.409516
      28A     -0.370185

  @DF-RHF Final Energy:  -628.62075413917864

   => Energetics <=

    Nuclear Repulsion Energy =            293.9637993303112466
    One-Electron Energy =               -1447.0805221079328931
    Two-Electron Energy =                 524.4959686384429460
    Total Energy =                       -628.6207541391786435
  Basis Set: (AUG-CC-PVTZ AUX)
    Blend: AUG-CC-PVTZ-RI
    Molecular point group: c1

    Geometry (in Angstrom), charge = 0, multiplicity = 1:

       Center              X                  Y                   Z               Mass
    ------------   -----------------  -----------------  -----------------  -----------------
         S            0.234927334757    -0.778554130852    -0.022232200374    31.972071174400
         O           -1.175633665243     1.461758869148    -0.028099200374    15.994914619570
         C            1.487583334757     0.536753869148     0.025824799626    12.000000000000
         C            2.881593334757    -0.076228130852    -0.016462200374    12.000000000000
         C           -1.226558665243     0.239191869148    -0.029486200374    12.000000000000
         C           -2.522946065243    -0.533244830852     0.106887499626    12.000000000000
         H            1.316534334757     1.199082869148    -0.825052200374     1.007825032230
         H            1.337080334757     1.122382869148     0.935132799626     1.007825032230
         H            3.053178334757    -0.735962130852     0.837708799626     1.007825032230
         H            3.033987334757    -0.653309130852    -0.931828200374     1.007825032230
         H            3.631907334757     0.718663869148     0.013004799626     1.007825032230
         H           -2.840548665243    -0.641366130852     1.048863799626     1.007825032230
         H           -2.421224665243    -1.529408130852    -0.430493200374     1.007825032230
         H           -3.283877665243     0.037298869148    -0.529174200374     1.007825032230

  Basis Set: AUG-CC-PVTZ
    Blend: AUG-CC-PVTZ
  Basis Set: (AUG-CC-PVTZ AUX)
    Blend: AUG-CC-PVTZ-JKFIT
	 Reference Energy          =    -628.6207541391786435 [Eh]
	 Singles Energy            =      -0.0000000000000000 [Eh]
	 Same-Spin Energy          =      -0.2909538261432411 [Eh]
	 Opposite-Spin Energy      =      -0.9540418933731568 [Eh]
	 Correlation Energy        =      -1.2449957195163979 [Eh]
	 Total Energy              =    -629.8657498586950396 [Eh]

	 ================> DF-SCS-MP2 Energies <==================
	-----------------------------------------------------------
	 SCS Same-Spin Scale       =       0.3333333333333333 [-]
	 SCS Opposite-Spin Scale   =       1.2000000000000000 [-]
	 SCS Same-Spin Energy      =      -0.0969846087144137 [Eh]
	 SCS Opposite-Spin Energy  =      -1.1448502720477882 [Eh]
	 SCS Correlation Energy    =      -1.2418348807622019 [Eh]
	 SCS Total Energy          =    -629.8625890199408559 [Eh]
	-----------------------------------------------------------

  Dipole Moment: [D]
     X:     0.5548      Y:    -1.1932      Z:     0.1209     Total:     1.3215

*** Psi4 exiting successfully. Buy a developer a beer!
