                               Psi4 1.3.2 release

  ==> Input File <==

--------------------------------------------------------------------------
#psi4
#
memory 32 gb

molecule  {
0 1
  S        0.2011420    -0.7740460    -0.0125590
  O       -1.2094190     1.4662670    -0.0184260
  C        1.4537980     0.5412620     0.0354980
  C        2.8478080    -0.0717200    -0.0067890
  C       -1.2603440     0.2437000    -0.0198130
  C       -2.5550174    -0.5272648     0.2665436
  H        1.2827490     1.2035910    -0.8153790
  H        1.3032950     1.1268910     0.9448060
  H        3.0193930    -0.7314540     0.8473820
  H        3.0002020    -0.6488010    -0.9221550
  H        3.5981220     0.7231720     0.0226780
  H       -2.8743340    -0.6368580     1.0585370
  H       -2.4550100    -1.5249000    -0.4208200
  H       -3.3176630     0.0418070    -0.5195010
units angstrom
no_reorient  #important for SAPT in psi4, default
symmetry c1  #important for SAPT in psi4, default
}

set PROPERTIES_ORIGIN ["COM"]
properties('MP2/aug-cc-pvtz', properties = ['dipole'])
--------------------------------------------------------------------------

    Molecular point group: c1
  Charge       = 0
  Multiplicity = 1
  Basis Set: AUG-CC-PVTZ
    Blend: AUG-CC-PVTZ
  Basis Set: (AUG-CC-PVTZ AUX)
    Blend: AUG-CC-PVTZ-JKFIT

    Orbital Energies [Eh]
    ---------------------

    Doubly Occupied:

       1A    -91.970969     2A    -20.557248     3A    -11.369127
       4A    -11.263554     5A    -11.251547     6A    -11.232250
       7A     -8.972538     8A     -6.653656     9A     -6.652530
      10A     -6.651898    11A     -1.392018    12A     -1.087711
      13A     -1.032983    14A     -0.962436    15A     -0.840416
      16A     -0.749343    17A     -0.671326    18A     -0.648840
      19A     -0.636095    20A     -0.606307    21A     -0.564794
      22A     -0.538365    23A     -0.531849    24A     -0.507503
      25A     -0.493217    26A     -0.458793    27A     -0.410096
      28A     -0.370646

  @DF-RHF Final Energy:  -628.54685481981062

   => Energetics <=

    Nuclear Repulsion Energy =            293.8220466589853572
    One-Electron Energy =               -1446.5816906401375945
    Two-Electron Energy =                 524.2127891613416750
    Total Energy =                       -628.5468548198106191
  Basis Set: (AUG-CC-PVTZ AUX)
    Blend: AUG-CC-PVTZ-RI
    Molecular point group: c1

    Geometry (in Angstrom), charge = 0, multiplicity = 1:

       Center              X                  Y                   Z               Mass
    ------------   -----------------  -----------------  -----------------  -----------------
         S            0.234729621772    -0.778723917167    -0.039532997852    31.972071174400
         O           -1.175831378228     1.461589082833    -0.045399997852    15.994914619570
         C            1.487385621772     0.536584082833     0.008524002148    12.000000000000
         C            2.881395621772    -0.076397917167    -0.033762997852    12.000000000000
         C           -1.226756378228     0.239022082833    -0.046786997852    12.000000000000
         C           -2.521429778228    -0.531942717167     0.239569602148    12.000000000000
         H            1.316336621772     1.198913082833    -0.842352997852     1.007825032230
         H            1.336882621772     1.122213082833     0.917832002148     1.007825032230
         H            3.052980621772    -0.736131917167     0.820408002148     1.007825032230
         H            3.033789621772    -0.653478917167    -0.949128997852     1.007825032230
         H            3.631709621772     0.718494082833    -0.004295997852     1.007825032230
         H           -2.840746378228    -0.641535917167     1.031563002148     1.007825032230
         H           -2.421422378228    -1.529577917167    -0.447793997852     1.007825032230
         H           -3.284075378228     0.037129082833    -0.546474997852     1.007825032230

  Basis Set: AUG-CC-PVTZ
    Blend: AUG-CC-PVTZ
  Basis Set: (AUG-CC-PVTZ AUX)
    Blend: AUG-CC-PVTZ-JKFIT
	 Reference Energy          =    -628.5468548198106191 [Eh]
	 Singles Energy            =      -0.0000000000000000 [Eh]
	 Same-Spin Energy          =      -0.2916877259389440 [Eh]
	 Opposite-Spin Energy      =      -0.9570242053834931 [Eh]
	 Correlation Energy        =      -1.2487119313224371 [Eh]
	 Total Energy              =    -629.7955667511330375 [Eh]

	 ================> DF-SCS-MP2 Energies <==================
	-----------------------------------------------------------
	 SCS Same-Spin Scale       =       0.3333333333333333 [-]
	 SCS Opposite-Spin Scale   =       1.2000000000000000 [-]
	 SCS Same-Spin Energy      =      -0.0972292419796480 [Eh]
	 SCS Opposite-Spin Energy  =      -1.1484290464601916 [Eh]
	 SCS Correlation Energy    =      -1.2456582884398397 [Eh]
	 SCS Total Energy          =    -629.7925131082504322 [Eh]
	-----------------------------------------------------------

  Dipole Moment: [D]
     X:     0.6754      Y:    -1.1298      Z:     0.1290     Total:     1.3226

*** Psi4 exiting successfully. Buy a developer a beer!
