                               Psi4 1.3.2 release

  ==> Input File <==

--------------------------------------------------------------------------
#psi4
#
memory 32 gb

molecule  {
0 1
  S        0.2011420    -0.7740460    -0.0125590
  O       -1.2094190     1.4662670    -0.0184260
  C        1.4537980     0.5412620     0.0354980
  C        2.8478080    -0.0717200    -0.0067890
  C       -1.2603440     0.2437000    -0.0198130
  C       -2.5555887    -0.5277554     0.2165493
  H        1.2827490     1.2035910    -0.8153790
  H        1.3032950     1.1268910     0.9448060
  H        3.0193930    -0.7314540     0.8473820
  H        3.0002020    -0.6488010    -0.9221550
  H        3.5981220     0.7231720     0.0226780
  H       -2.8743340    -0.6368580     1.0585370
  H       -2.4550100    -1.5249000    -0.4208200
  H       -3.3176630     0.0418070    -0.5195010
units angstrom
no_reorient  #important for SAPT in psi4, default
symmetry c1  #important for SAPT in psi4, default
}

set PROPERTIES_ORIGIN ["COM"]
properties('MP2/aug-cc-pvtz', properties = ['dipole'])
--------------------------------------------------------------------------

    Molecular point group: c1
  Charge       = 0
  Multiplicity = 1
  Basis Set: AUG-CC-PVTZ
    Blend: AUG-CC-PVTZ
  Basis Set: (AUG-CC-PVTZ AUX)
    Blend: AUG-CC-PVTZ-JKFIT

    Orbital Energies [Eh]
    ---------------------

    Doubly Occupied:

       1A    -91.970331     2A    -20.556392     3A    -11.367347
       4A    -11.263287     5A    -11.248956     6A    -11.232015
       7A     -8.971944     8A     -6.653072     9A     -6.651946
      10A     -6.651316    11A     -1.391376    12A     -1.087410
      13A     -1.031833    14A     -0.960589    15A     -0.838442
      16A     -0.742324    17A     -0.663960    18A     -0.649303
      19A     -0.635786    20A     -0.610092    21A     -0.565096
      22A     -0.539641    23A     -0.532764    24A     -0.507288
      25A     -0.500533    26A     -0.460191    27A     -0.409886
      28A     -0.370458

  @DF-RHF Final Energy:  -628.58073695689677

   => Energetics <=

    Nuclear Repulsion Energy =            293.8779014620415069
    One-Electron Energy =               -1446.7901132068939205
    Two-Electron Energy =                 524.3314747879555853
    Total Energy =                       -628.5807369568967715
  Basis Set: (AUG-CC-PVTZ AUX)
    Blend: AUG-CC-PVTZ-RI
    Molecular point group: c1

    Geometry (in Angstrom), charge = 0, multiplicity = 1:

       Center              X                  Y                   Z               Mass
    ------------   -----------------  -----------------  -----------------  -----------------
         S            0.234795522256    -0.778667325574    -0.033766065360    31.972071174400
         O           -1.175765477744     1.461645674426    -0.039633065360    15.994914619570
         C            1.487451522256     0.536640674426     0.014290934640    12.000000000000
         C            2.881461522256    -0.076341325574    -0.027996065360    12.000000000000
         C           -1.226690477744     0.239078674426    -0.041020065360    12.000000000000
         C           -2.521935177744    -0.532376725574     0.195342234640    12.000000000000
         H            1.316402522256     1.198969674426    -0.836586065360     1.007825032230
         H            1.336948522256     1.122269674426     0.923598934640     1.007825032230
         H            3.053046522256    -0.736075325574     0.826174934640     1.007825032230
         H            3.033855522256    -0.653422325574    -0.943362065360     1.007825032230
         H            3.631775522256     0.718550674426     0.001470934640     1.007825032230
         H           -2.840680477744    -0.641479325574     1.037329934640     1.007825032230
         H           -2.421356477744    -1.529521325574    -0.442027065360     1.007825032230
         H           -3.284009477744     0.037185674426    -0.540708065360     1.007825032230

  Basis Set: AUG-CC-PVTZ
    Blend: AUG-CC-PVTZ
  Basis Set: (AUG-CC-PVTZ AUX)
    Blend: AUG-CC-PVTZ-JKFIT
	 Reference Energy          =    -628.5807369568967715 [Eh]
	 Singles Energy            =      -0.0000000000000000 [Eh]
	 Same-Spin Energy          =      -0.2913642280744921 [Eh]
	 Opposite-Spin Energy      =      -0.9557384824085200 [Eh]
	 Correlation Energy        =      -1.2471027104830121 [Eh]
	 Total Energy              =    -629.8278396673797488 [Eh]

	 ================> DF-SCS-MP2 Energies <==================
	-----------------------------------------------------------
	 SCS Same-Spin Scale       =       0.3333333333333333 [-]
	 SCS Opposite-Spin Scale   =       1.2000000000000000 [-]
	 SCS Same-Spin Energy      =      -0.0971214093581640 [Eh]
	 SCS Opposite-Spin Energy  =      -1.1468861788902240 [Eh]
	 SCS Correlation Energy    =      -1.2440075882483881 [Eh]
	 SCS Total Energy          =    -629.8247445451451085 [Eh]
	-----------------------------------------------------------

  Dipole Moment: [D]
     X:     0.6271      Y:    -1.1542      Z:     0.1295     Total:     1.3200

*** Psi4 exiting successfully. Buy a developer a beer!
