                               Psi4 1.3.2 release

  ==> Input File <==

--------------------------------------------------------------------------
#psi4
#
memory 32 gb

molecule  {
0 1
  S        0.2011420    -0.7740460    -0.0125590
  O       -1.2094190     1.4662670    -0.0184260
  C        1.4537980     0.5412620     0.0354980
  C        2.8478080    -0.0717200    -0.0067890
  C       -1.2603440     0.2437000    -0.0198130
  C       -2.5544461    -0.5267742     0.3165380
  H        1.2827490     1.2035910    -0.8153790
  H        1.3032950     1.1268910     0.9448060
  H        3.0193930    -0.7314540     0.8473820
  H        3.0002020    -0.6488010    -0.9221550
  H        3.5981220     0.7231720     0.0226780
  H       -2.8743340    -0.6368580     1.0585370
  H       -2.4550100    -1.5249000    -0.4208200
  H       -3.3176630     0.0418070    -0.5195010
units angstrom
no_reorient  #important for SAPT in psi4, default
symmetry c1  #important for SAPT in psi4, default
}

set PROPERTIES_ORIGIN ["COM"]
properties('MP2/aug-cc-pvtz', properties = ['dipole'])
--------------------------------------------------------------------------

    Molecular point group: c1
  Charge       = 0
  Multiplicity = 1
  Basis Set: AUG-CC-PVTZ
    Blend: AUG-CC-PVTZ
  Basis Set: (AUG-CC-PVTZ AUX)
    Blend: AUG-CC-PVTZ-JKFIT

    Orbital Energies [Eh]
    ---------------------

    Doubly Occupied:

       1A    -91.971750     2A    -20.558216     3A    -11.371367
       4A    -11.263908     5A    -11.255015     6A    -11.232552
       7A     -8.973268     8A     -6.654376     9A     -6.653249
      10A     -6.652614    11A     -1.392770    12A     -1.088104
      13A     -1.034803    14A     -0.964891    15A     -0.843083
      16A     -0.757597    17A     -0.676646    18A     -0.648547
      19A     -0.636443    20A     -0.602232    21A     -0.564809
      22A     -0.538014    23A     -0.530398    24A     -0.507880
      25A     -0.485805    26A     -0.456531    27A     -0.410333
      28A     -0.370874

  @DF-RHF Final Energy:  -628.50143131292498

   => Energetics <=

    Nuclear Repulsion Energy =            293.7624951244931708
    One-Electron Energy =               -1446.3357046742469265
    Two-Electron Energy =                 524.0717782368287772
    Total Energy =                       -628.5014313129249786
  Basis Set: (AUG-CC-PVTZ AUX)
    Blend: AUG-CC-PVTZ-RI
    Molecular point group: c1

    Geometry (in Angstrom), charge = 0, multiplicity = 1:

       Center              X                  Y                   Z               Mass
    ------------   -----------------  -----------------  -----------------  -----------------
         S            0.234663721289    -0.778780508760    -0.045299941880    31.972071174400
         O           -1.175897278711     1.461532491240    -0.051166941880    15.994914619570
         C            1.487319721289     0.536527491240     0.002757058120    12.000000000000
         C            2.881329721289    -0.076454508760    -0.039529941880    12.000000000000
         C           -1.226822278711     0.238965491240    -0.052553941880    12.000000000000
         C           -2.520924378711    -0.531508708760     0.283797058120    12.000000000000
         H            1.316270721289     1.198856491240    -0.848119941880     1.007825032230
         H            1.336816721289     1.122156491240     0.912065058120     1.007825032230
         H            3.052914721289    -0.736188508760     0.814641058120     1.007825032230
         H            3.033723721289    -0.653535508760    -0.954895941880     1.007825032230
         H            3.631643721289     0.718437491240    -0.010062941880     1.007825032230
         H           -2.840812278711    -0.641592508760     1.025796058120     1.007825032230
         H           -2.421488278711    -1.529634508760    -0.453560941880     1.007825032230
         H           -3.284141278711     0.037072491240    -0.552241941880     1.007825032230

  Basis Set: AUG-CC-PVTZ
    Blend: AUG-CC-PVTZ
  Basis Set: (AUG-CC-PVTZ AUX)
    Blend: AUG-CC-PVTZ-JKFIT
	 Reference Energy          =    -628.5014313129249786 [Eh]
	 Singles Energy            =      -0.0000000000000000 [Eh]
	 Same-Spin Energy          =      -0.2920970924824785 [Eh]
	 Opposite-Spin Energy      =      -0.9586186690468941 [Eh]
	 Correlation Energy        =      -1.2507157615293725 [Eh]
	 Total Energy              =    -629.7521470744543421 [Eh]

	 ================> DF-SCS-MP2 Energies <==================
	-----------------------------------------------------------
	 SCS Same-Spin Scale       =       0.3333333333333333 [-]
	 SCS Opposite-Spin Scale   =       1.2000000000000000 [-]
	 SCS Same-Spin Energy      =      -0.0973656974941595 [Eh]
	 SCS Opposite-Spin Energy  =      -1.1503424028562728 [Eh]
	 SCS Correlation Energy    =      -1.2477081003504322 [Eh]
	 SCS Total Energy          =    -629.7491394132754294 [Eh]
	-----------------------------------------------------------

  Dipole Moment: [D]
     X:     0.7330      Y:    -1.1016      Z:     0.1253     Total:     1.3291

*** Psi4 exiting successfully. Buy a developer a beer!
