                               Psi4 1.3.2 release

  ==> Input File <==

--------------------------------------------------------------------------
#psi4
#
memory 32 gb

molecule  {
0 1
  S        0.2011420    -0.7740460    -0.0125590
  O       -1.2094190     1.4662670    -0.0184260
  C        1.4537980     0.5412620     0.0354980
  C        2.8478080    -0.0717200    -0.0067890
  C       -1.2603440     0.2437000    -0.0198130
  C       -2.5561601    -0.5282461     0.1665550
  H        1.2827490     1.2035910    -0.8153790
  H        1.3032950     1.1268910     0.9448060
  H        3.0193930    -0.7314540     0.8473820
  H        3.0002020    -0.6488010    -0.9221550
  H        3.5981220     0.7231720     0.0226780
  H       -2.8743340    -0.6368580     1.0585370
  H       -2.4550100    -1.5249000    -0.4208200
  H       -3.3176630     0.0418070    -0.5195010
units angstrom
no_reorient  #important for SAPT in psi4, default
symmetry c1  #important for SAPT in psi4, default
}

set PROPERTIES_ORIGIN ["COM"]
properties('MP2/aug-cc-pvtz', properties = ['dipole'])
--------------------------------------------------------------------------

    Molecular point group: c1
  Charge       = 0
  Multiplicity = 1
  Basis Set: AUG-CC-PVTZ
    Blend: AUG-CC-PVTZ
  Basis Set: (AUG-CC-PVTZ AUX)
    Blend: AUG-CC-PVTZ-JKFIT

    Orbital Energies [Eh]
    ---------------------

    Doubly Occupied:

       1A    -91.969823     2A    -20.555628     3A    -11.366007
       4A    -11.263099     5A    -11.247113     6A    -11.231840
       7A     -8.971472     8A     -6.652609     9A     -6.651484
      10A     -6.650856    11A     -1.390828    12A     -1.087188
      13A     -1.031163    14A     -0.959290    15A     -0.837076
      16A     -0.737224    17A     -0.655164    18A     -0.649552
      19A     -0.635463    20A     -0.613310    21A     -0.565920
      22A     -0.542643    23A     -0.532576    24A     -0.509188
      25A     -0.504795    26A     -0.461092    27A     -0.409694
      28A     -0.370306

  @DF-RHF Final Energy:  -628.60487514313229

   => Energetics <=

    Nuclear Repulsion Energy =            293.9263113147741251
    One-Electron Energy =               -1446.9575655028263554
    Two-Electron Energy =                 524.4263790449198268
    Total Energy =                       -628.6048751431322898
  Basis Set: (AUG-CC-PVTZ AUX)
    Blend: AUG-CC-PVTZ-RI
    Molecular point group: c1

    Geometry (in Angstrom), charge = 0, multiplicity = 1:

       Center              X                  Y                   Z               Mass
    ------------   -----------------  -----------------  -----------------  -----------------
         S            0.234861434274    -0.778610722445    -0.027999132867    31.972071174400
         O           -1.175699565726     1.461702277555    -0.033866132867    15.994914619570
         C            1.487517434274     0.536697277555     0.020057867133    12.000000000000
         C            2.881527434274    -0.076284722445    -0.022229132867    12.000000000000
         C           -1.226624565726     0.239135277555    -0.035253132867    12.000000000000
         C           -2.522440665726    -0.532810822445     0.151114867133    12.000000000000
         H            1.316468434274     1.199026277555    -0.830819132867     1.007825032230
         H            1.337014434274     1.122326277555     0.929365867133     1.007825032230
         H            3.053112434274    -0.736018722445     0.831941867133     1.007825032230
         H            3.033921434274    -0.653365722445    -0.937595132867     1.007825032230
         H            3.631841434274     0.718607277555     0.007237867133     1.007825032230
         H           -2.840614565726    -0.641422722445     1.043096867133     1.007825032230
         H           -2.421290565726    -1.529464722445    -0.436260132867     1.007825032230
         H           -3.283943565726     0.037242277555    -0.534941132867     1.007825032230

  Basis Set: AUG-CC-PVTZ
    Blend: AUG-CC-PVTZ
  Basis Set: (AUG-CC-PVTZ AUX)
    Blend: AUG-CC-PVTZ-JKFIT
	 Reference Energy          =    -628.6048751431322898 [Eh]
	 Singles Energy            =      -0.0000000000000000 [Eh]
	 Same-Spin Energy          =      -0.2911211471658154 [Eh]
	 Opposite-Spin Energy      =      -0.9547498457481902 [Eh]
	 Correlation Energy        =      -1.2458709929140057 [Eh]
	 Total Energy              =    -629.8507461360462685 [Eh]

	 ================> DF-SCS-MP2 Energies <==================
	-----------------------------------------------------------
	 SCS Same-Spin Scale       =       0.3333333333333333 [-]
	 SCS Opposite-Spin Scale   =       1.2000000000000000 [-]
	 SCS Same-Spin Energy      =      -0.0970403823886051 [Eh]
	 SCS Opposite-Spin Energy  =      -1.1456998148978281 [Eh]
	 SCS Correlation Energy    =      -1.2427401972864334 [Eh]
	 SCS Total Energy          =    -629.8476153404187698 [Eh]
	-----------------------------------------------------------

  Dipole Moment: [D]
     X:     0.5872      Y:    -1.1752      Z:     0.1268     Total:     1.3199

*** Psi4 exiting successfully. Buy a developer a beer!
