                               Psi4 1.3.2 release

  ==> Input File <==

--------------------------------------------------------------------------
#psi4
#
memory 32 gb

molecule  {
0 1
  S        0.2011420    -0.7740460    -0.0125590
  O       -1.2094190     1.4662670    -0.0184260
  C        1.4537980     0.5412620     0.0354980
  C        2.8478080    -0.0717200    -0.0067890
  C       -1.2603440     0.2437000    -0.0198130
  C       -2.5573027    -0.5292274     0.0665663
  H        1.2827490     1.2035910    -0.8153790
  H        1.3032950     1.1268910     0.9448060
  H        3.0193930    -0.7314540     0.8473820
  H        3.0002020    -0.6488010    -0.9221550
  H        3.5981220     0.7231720     0.0226780
  H       -2.8743340    -0.6368580     1.0585370
  H       -2.4550100    -1.5249000    -0.4208200
  H       -3.3176630     0.0418070    -0.5195010
units angstrom
no_reorient  #important for SAPT in psi4, default
symmetry c1  #important for SAPT in psi4, default
}

set PROPERTIES_ORIGIN ["COM"]
properties('MP2/aug-cc-pvtz', properties = ['dipole'])
--------------------------------------------------------------------------

    Molecular point group: c1
  Charge       = 0
  Multiplicity = 1
  Basis Set: AUG-CC-PVTZ
    Blend: AUG-CC-PVTZ
  Basis Set: (AUG-CC-PVTZ AUX)
    Blend: AUG-CC-PVTZ-JKFIT

    Orbital Energies [Eh]
    ---------------------

    Doubly Occupied:

       1A    -91.969152     2A    -20.554315     3A    -11.364568
       4A    -11.262930     5A    -11.245440     6A    -11.231648
       7A     -8.970856     8A     -6.652009     9A     -6.650885
      10A     -6.650254    11A     -1.389959    12A     -1.086936
      13A     -1.030713    14A     -0.957998    15A     -0.835738
      16A     -0.732583    17A     -0.653260    18A     -0.637524
      19A     -0.632636    20A     -0.614746    21A     -0.571324
      22A     -0.551676    23A     -0.529355    24A     -0.517459
      25A     -0.503515    26A     -0.462098    27A     -0.409344
      28A     -0.370092

  @DF-RHF Final Energy:  -628.62961050960394

   => Energetics <=

    Nuclear Repulsion Energy =            293.9871262546748767
    One-Electron Energy =               -1447.1554424357541393
    Two-Electron Energy =                 524.5387056714753271
    Total Energy =                       -628.6296105096039355
  Basis Set: (AUG-CC-PVTZ AUX)
    Blend: AUG-CC-PVTZ-RI
    Molecular point group: c1

    Geometry (in Angstrom), charge = 0, multiplicity = 1:

       Center              X                  Y                   Z               Mass
    ------------   -----------------  -----------------  -----------------  -----------------
         S            0.234993235241    -0.778497527724    -0.016465256347    31.972071174400
         O           -1.175567764759     1.461815472276    -0.022332256347    15.994914619570
         C            1.487649235241     0.536810472276     0.031591743653    12.000000000000
         C            2.881659235241    -0.076171527724    -0.010695256347    12.000000000000
         C           -1.226492764759     0.239248472276    -0.023719256347    12.000000000000
         C           -2.523451464759    -0.533678927724     0.062660043653    12.000000000000
         H            1.316600235241     1.199139472276    -0.819285256347     1.007825032230
         H            1.337146235241     1.122439472276     0.940899743653     1.007825032230
         H            3.053244235241    -0.735905527724     0.843475743653     1.007825032230
         H            3.034053235241    -0.653252527724    -0.926061256347     1.007825032230
         H            3.631973235241     0.718720472276     0.018771743653     1.007825032230
         H           -2.840482764759    -0.641309527724     1.054630743653     1.007825032230
         H           -2.421158764759    -1.529351527724    -0.424726256347     1.007825032230
         H           -3.283811764759     0.037355472276    -0.523407256347     1.007825032230

  Basis Set: AUG-CC-PVTZ
    Blend: AUG-CC-PVTZ
  Basis Set: (AUG-CC-PVTZ AUX)
    Blend: AUG-CC-PVTZ-JKFIT
	 Reference Energy          =    -628.6296105096039355 [Eh]
	 Singles Energy            =      -0.0000000000000000 [Eh]
	 Same-Spin Energy          =      -0.2908573832868599 [Eh]
	 Opposite-Spin Energy      =      -0.9535945898946185 [Eh]
	 Correlation Energy        =      -1.2444519731814785 [Eh]
	 Total Energy              =    -629.8740624827854617 [Eh]

	 ================> DF-SCS-MP2 Energies <==================
	-----------------------------------------------------------
	 SCS Same-Spin Scale       =       0.3333333333333333 [-]
	 SCS Opposite-Spin Scale   =       1.2000000000000000 [-]
	 SCS Same-Spin Energy      =      -0.0969524610956200 [Eh]
	 SCS Opposite-Spin Energy  =      -1.1443135078735422 [Eh]
	 SCS Correlation Energy    =      -1.2412659689691623 [Eh]
	 SCS Total Energy          =    -629.8708764785731091 [Eh]
	-----------------------------------------------------------

  Dipole Moment: [D]
     X:     0.5291      Y:    -1.2086      Z:     0.1119     Total:     1.3241

*** Psi4 exiting successfully. Buy a developer a beer!
