                               Psi4 1.3.2 release

  ==> Input File <==

--------------------------------------------------------------------------
#psi4
#
memory 32 gb

molecule  {
0 1
  O       -1.9756670     1.6664010     0.1857370
  O        1.6723579    -1.1893785    -0.6763533
  O       -3.2820610    -0.0444860    -0.5140140
  N        0.2152580     0.2772540     0.2951010
  C       -0.9464590    -0.4858680    -0.1100250
  C       -1.2010820    -1.6869190     0.8036840
  C        2.6116450     0.7683526     0.3571073
  C        1.4652130    -0.1360080    -0.0663740
  C       -2.1892550     0.3702600    -0.1810000
  C        3.9493650     0.2879730    -0.1118860
  H       -0.7666830    -0.8628490    -1.1247510
  H        0.0773990     1.1958980     0.6978160
  H       -1.3680630    -1.3508140     1.8303240
  H       -2.0758160    -2.2433210     0.4601180
  H       -0.3237180    -2.3338760     0.7750620
  H        2.3897550     1.7945520    -0.0146150
  H        2.5759940     0.8629050     1.4619760
  H        4.1547340    -0.7097650     0.2816620
  H        3.9712690     0.2233490    -1.2012200
  H        4.7420490     0.9661550     0.2171920
  H       -2.8492950     2.1039740     0.1058080
units angstrom
no_reorient  #important for SAPT in psi4, default
symmetry c1  #important for SAPT in psi4, default
}

set PROPERTIES_ORIGIN ["COM"]
properties('MP2/aug-cc-pvtz', properties = ['dipole'])
--------------------------------------------------------------------------

    Molecular point group: c1
  Charge       = 0
  Multiplicity = 1
  Basis Set: AUG-CC-PVTZ
    Blend: AUG-CC-PVTZ
  Basis Set: (AUG-CC-PVTZ AUX)
    Blend: AUG-CC-PVTZ-JKFIT

    Orbital Energies [Eh]
    ---------------------

    Doubly Occupied:

       1A    -20.636475     2A    -20.564353     3A    -20.524175
       4A    -15.593755     5A    -11.405392     6A    -11.355996
       7A    -11.297436     8A    -11.247922     9A    -11.227533
      10A    -11.217690    11A     -1.478952    12A     -1.380285
      13A     -1.374058    14A     -1.246635    15A     -1.075534
      16A     -1.038248    17A     -0.928472    18A     -0.884846
      19A     -0.817290    20A     -0.792078    21A     -0.730505
      22A     -0.715073    23A     -0.683290    24A     -0.666109
      25A     -0.639372    26A     -0.633480    27A     -0.611035
      28A     -0.602856    29A     -0.581577    30A     -0.548536
      31A     -0.544782    32A     -0.529286    33A     -0.520294
      34A     -0.517798    35A     -0.495698    36A     -0.485117
      37A     -0.468521    38A     -0.427488    39A     -0.401065

  @DF-RHF Final Energy:  -512.88488957879781

   => Energetics <=

    Nuclear Repulsion Energy =            548.1632574426377005
    One-Electron Energy =               -1788.3182866128638580
    Two-Electron Energy =                 727.2701395914282330
    Total Energy =                       -512.8848895787978108
  Basis Set: (AUG-CC-PVTZ AUX)
    Blend: AUG-CC-PVTZ-RI
    Molecular point group: c1

    Geometry (in Angstrom), charge = 0, multiplicity = 1:

       Center              X                  Y                   Z               Mass
    ------------   -----------------  -----------------  -----------------  -----------------
         O           -1.979456193684     1.667381745490     0.186577279942    15.994914619570
         O            1.668568706316    -1.188397754510    -0.675513020058    15.994914619570
         O           -3.285850193684    -0.043505254510    -0.513173720058    15.994914619570
         N            0.211468806316     0.278234745490     0.295941279942    14.003074004430
         C           -0.950248193684    -0.484887254510    -0.109184720058    12.000000000000
         C           -1.204871193684    -1.685938254510     0.804524279942    12.000000000000
         C            2.607855806316     0.769333345490     0.357947579942    12.000000000000
         C            1.461423806316    -0.135027254510    -0.065533720058    12.000000000000
         C           -2.193044193684     0.371240745490    -0.180159720058    12.000000000000
         C            3.945575806316     0.288953745490    -0.111045720058    12.000000000000
         H           -0.770472193684    -0.861868254510    -1.123910720058     1.007825032230
         H            0.073609806316     1.196878745490     0.698656279942     1.007825032230
         H           -1.371852193684    -1.349833254510     1.831164279942     1.007825032230
         H           -2.079605193684    -2.242340254510     0.460958279942     1.007825032230
         H           -0.327507193684    -2.332895254510     0.775902279942     1.007825032230
         H            2.385965806316     1.795532745490    -0.013774720058     1.007825032230
         H            2.572204806316     0.863885745490     1.462816279942     1.007825032230
         H            4.150944806316    -0.708784254510     0.282502279942     1.007825032230
         H            3.967479806316     0.224329745490    -1.200379720058     1.007825032230
         H            4.738259806316     0.967135745490     0.218032279942     1.007825032230
         H           -2.853084193684     2.104954745490     0.106648279942     1.007825032230

  Basis Set: AUG-CC-PVTZ
    Blend: AUG-CC-PVTZ
  Basis Set: (AUG-CC-PVTZ AUX)
    Blend: AUG-CC-PVTZ-JKFIT
	 Reference Energy          =    -512.8848895787978108 [Eh]
	 Singles Energy            =      -0.0000000000000000 [Eh]
	 Same-Spin Energy          =      -0.5114864182926419 [Eh]
	 Opposite-Spin Energy      =      -1.6150481069063447 [Eh]
	 Correlation Energy        =      -2.1265345251989864 [Eh]
	 Total Energy              =    -515.0114241039967737 [Eh]

	 ================> DF-SCS-MP2 Energies <==================
	-----------------------------------------------------------
	 SCS Same-Spin Scale       =       0.3333333333333333 [-]
	 SCS Opposite-Spin Scale   =       1.2000000000000000 [-]
	 SCS Same-Spin Energy      =      -0.1704954727642140 [Eh]
	 SCS Opposite-Spin Energy  =      -1.9380577282876135 [Eh]
	 SCS Correlation Energy    =      -2.1085532010518273 [Eh]
	 SCS Total Energy          =    -514.9934427798496017 [Eh]
	-----------------------------------------------------------

  Dipole Moment: [D]
     X:    -0.1075      Y:     3.2954      Z:     1.9561     Total:     3.8337

*** Psi4 exiting successfully. Buy a developer a beer!
