                               Psi4 1.3.2 release

  ==> Input File <==

--------------------------------------------------------------------------
#psi4
#
memory 32 gb

molecule  {
0 1
  O       -1.9756670     1.6664010     0.1857370
  O        1.6511300    -1.1930600    -0.6768240
  O       -3.2820610    -0.0444860    -0.5140140
  N        0.2152580     0.2772540     0.2951010
  C       -0.9464590    -0.4858680    -0.1100250
  C       -1.2010820    -1.6869190     0.8036840
  C        2.5941300     0.7851170     0.3678910
  C        1.4652130    -0.1360080    -0.0663740
  C       -2.1882248     0.3727243    -0.1680892
  C        3.9493650     0.2879730    -0.1118860
  H       -0.7589376    -0.8675156    -1.1215999
  H        0.0773990     1.1958980     0.6978160
  H       -1.3680630    -1.3508140     1.8303240
  H       -2.0758160    -2.2433210     0.4601180
  H       -0.3237180    -2.3338760     0.7750620
  H        2.3897550     1.7945520    -0.0146150
  H        2.5759940     0.8629050     1.4619760
  H        4.1547340    -0.7097650     0.2816620
  H        3.9712690     0.2233490    -1.2012200
  H        4.7420490     0.9661550     0.2171920
  H       -2.8492950     2.1039740     0.1058080
units angstrom
no_reorient  #important for SAPT in psi4, default
symmetry c1  #important for SAPT in psi4, default
}

set PROPERTIES_ORIGIN ["COM"]
properties('MP2/aug-cc-pvtz', properties = ['dipole'])
--------------------------------------------------------------------------

    Molecular point group: c1
  Charge       = 0
  Multiplicity = 1
  Basis Set: AUG-CC-PVTZ
    Blend: AUG-CC-PVTZ
  Basis Set: (AUG-CC-PVTZ AUX)
    Blend: AUG-CC-PVTZ-JKFIT

    Orbital Energies [Eh]
    ---------------------

    Doubly Occupied:

       1A    -20.637816     2A    -20.562674     3A    -20.524724
       4A    -15.592368     5A    -11.405203     6A    -11.356218
       7A    -11.296382     8A    -11.247630     9A    -11.226657
      10A    -11.219562    11A     -1.479982    12A     -1.380768
      13A     -1.371386    14A     -1.245539    15A     -1.074960
      16A     -1.035661    17A     -0.928064    18A     -0.885677
      19A     -0.818005    20A     -0.792787    21A     -0.731120
      22A     -0.714964    23A     -0.682986    24A     -0.666025
      25A     -0.641466    26A     -0.633486    27A     -0.610040
      28A     -0.602838    29A     -0.580946    30A     -0.546332
      31A     -0.543580    32A     -0.524128    33A     -0.520390
      34A     -0.519153    35A     -0.496696    36A     -0.487416
      37A     -0.467887    38A     -0.428846    39A     -0.400053

  @DF-RHF Final Energy:  -512.88550449196816

   => Energetics <=

    Nuclear Repulsion Energy =            548.2258884861855677
    One-Electron Energy =               -1788.4619575978890680
    Two-Electron Energy =                 727.3505646197353371
    Total Energy =                       -512.8855044919681632
  Basis Set: (AUG-CC-PVTZ AUX)
    Blend: AUG-CC-PVTZ-RI
    Molecular point group: c1

    Geometry (in Angstrom), charge = 0, multiplicity = 1:

       Center              X                  Y                   Z               Mass
    ------------   -----------------  -----------------  -----------------  -----------------
         O           -1.975805984620     1.666229532629     0.184647360334    15.994914619570
         O            1.650991015380    -1.193231467371    -0.677913639666    15.994914619570
         O           -3.282199984620    -0.044657467371    -0.515103639666    15.994914619570
         N            0.215119015380     0.277082532629     0.294011360334    14.003074004430
         C           -0.946597984620    -0.486039467371    -0.111114639666    12.000000000000
         C           -1.201220984620    -1.687090467371     0.802594360334    12.000000000000
         C            2.593991015380     0.784945532629     0.366801360334    12.000000000000
         C            1.465074015380    -0.136179467371    -0.067463639666    12.000000000000
         C           -2.188363784620     0.372552832629    -0.169178839666    12.000000000000
         C            3.949226015380     0.287801532629    -0.112975639666    12.000000000000
         H           -0.759076584620    -0.867687067371    -1.122689539666     1.007825032230
         H            0.077260015380     1.195726532629     0.696726360334     1.007825032230
         H           -1.368201984620    -1.350985467371     1.829234360334     1.007825032230
         H           -2.075954984620    -2.243492467371     0.459028360334     1.007825032230
         H           -0.323856984620    -2.334047467371     0.773972360334     1.007825032230
         H            2.389616015380     1.794380532629    -0.015704639666     1.007825032230
         H            2.575855015380     0.862733532629     1.460886360334     1.007825032230
         H            4.154595015380    -0.709936467371     0.280572360334     1.007825032230
         H            3.971130015380     0.223177532629    -1.202309639666     1.007825032230
         H            4.741910015380     0.965983532629     0.216102360334     1.007825032230
         H           -2.849433984620     2.103802532629     0.104718360334     1.007825032230

  Basis Set: AUG-CC-PVTZ
    Blend: AUG-CC-PVTZ
  Basis Set: (AUG-CC-PVTZ AUX)
    Blend: AUG-CC-PVTZ-JKFIT
	 Reference Energy          =    -512.8855044919681632 [Eh]
	 Singles Energy            =      -0.0000000000000000 [Eh]
	 Same-Spin Energy          =      -0.5114609427516046 [Eh]
	 Opposite-Spin Energy      =      -1.6151084493254877 [Eh]
	 Correlation Energy        =      -2.1265693920770925 [Eh]
	 Total Energy              =    -515.0120738840452077 [Eh]

	 ================> DF-SCS-MP2 Energies <==================
	-----------------------------------------------------------
	 SCS Same-Spin Scale       =       0.3333333333333333 [-]
	 SCS Opposite-Spin Scale   =       1.2000000000000000 [-]
	 SCS Same-Spin Energy      =      -0.1704869809172015 [Eh]
	 SCS Opposite-Spin Energy  =      -1.9381301391905852 [Eh]
	 SCS Correlation Energy    =      -2.1086171201077866 [Eh]
	 SCS Total Energy          =    -514.9941216120759009 [Eh]
	-----------------------------------------------------------

  Dipole Moment: [D]
     X:    -0.0226      Y:     3.3551      Z:     1.9873     Total:     3.8995

*** Psi4 exiting successfully. Buy a developer a beer!
