                               Psi4 1.3.2 release

  ==> Input File <==

--------------------------------------------------------------------------
#psi4
#
memory 32 gb

molecule  {
0 1
  O       -1.9756670     1.6664010     0.1857370
  O        1.6511300    -1.1930600    -0.6768240
  O       -3.2820610    -0.0444860    -0.5140140
  N        0.2199974     0.2868680     0.3003018
  C       -0.9464590    -0.4858680    -0.1100250
  C       -1.2010820    -1.6869190     0.8036840
  C        2.5852663     0.7932380     0.3735049
  C        1.4652130    -0.1360080    -0.0663740
  C       -2.1892550     0.3702600    -0.1810000
  C        3.9493650     0.2879730    -0.1118860
  H       -0.7666830    -0.8628490    -1.1247510
  H        0.0773990     1.1958980     0.6978160
  H       -1.3680630    -1.3508140     1.8303240
  H       -2.0758160    -2.2433210     0.4601180
  H       -0.3237180    -2.3338760     0.7750620
  H        2.3897550     1.7945520    -0.0146150
  H        2.5759940     0.8629050     1.4619760
  H        4.1547340    -0.7097650     0.2816620
  H        3.9712690     0.2233490    -1.2012200
  H        4.7420490     0.9661550     0.2171920
  H       -2.8492950     2.1039740     0.1058080
units angstrom
no_reorient  #important for SAPT in psi4, default
symmetry c1  #important for SAPT in psi4, default
}

set PROPERTIES_ORIGIN ["COM"]
properties('MP2/aug-cc-pvtz', properties = ['dipole'])
--------------------------------------------------------------------------

    Molecular point group: c1
  Charge       = 0
  Multiplicity = 1
  Basis Set: AUG-CC-PVTZ
    Blend: AUG-CC-PVTZ
  Basis Set: (AUG-CC-PVTZ AUX)
    Blend: AUG-CC-PVTZ-JKFIT

    Orbital Energies [Eh]
    ---------------------

    Doubly Occupied:

       1A    -20.635989     2A    -20.563846     3A    -20.525416
       4A    -15.591891     5A    -11.404764     6A    -11.356372
       7A    -11.297116     8A    -11.246262     9A    -11.227297
      10A    -11.219651    11A     -1.478443    12A     -1.380545
      13A     -1.373587    14A     -1.244703    15A     -1.074486
      16A     -1.034478    17A     -0.927546    18A     -0.885136
      19A     -0.817119    20A     -0.794049    21A     -0.730073
      22A     -0.714967    23A     -0.681888    24A     -0.665724
      25A     -0.641975    26A     -0.633568    27A     -0.610348
      28A     -0.603389    29A     -0.580328    30A     -0.546207
      31A     -0.543739    32A     -0.521949    33A     -0.520654
      34A     -0.517739    35A     -0.498741    36A     -0.489213
      37A     -0.467858    38A     -0.429037    39A     -0.401303

  @DF-RHF Final Energy:  -512.88583688733320

   => Energetics <=

    Nuclear Repulsion Energy =            548.0080977901767483
    One-Electron Energy =               -1788.0330747502225677
    Two-Electron Energy =                 727.1391400727127348
    Total Energy =                       -512.8858368873331983
  Basis Set: (AUG-CC-PVTZ AUX)
    Blend: AUG-CC-PVTZ-RI
    Molecular point group: c1

    Geometry (in Angstrom), charge = 0, multiplicity = 1:

       Center              X                  Y                   Z               Mass
    ------------   -----------------  -----------------  -----------------  -----------------
         O           -1.975391253632     1.664801232435     0.184770824107    15.994914619570
         O            1.651405746368    -1.194659767565    -0.677790175893    15.994914619570
         O           -3.281785253632    -0.046085767565    -0.514980175893    15.994914619570
         N            0.220273146368     0.285268232435     0.299335624107    14.003074004430
         C           -0.946183253632    -0.487467767565    -0.110991175893    12.000000000000
         C           -1.200806253632    -1.688518767565     0.802717824107    12.000000000000
         C            2.585542046368     0.791638232435     0.372538724107    12.000000000000
         C            1.465488746368    -0.137607767565    -0.067340175893    12.000000000000
         C           -2.188979253632     0.368660232435    -0.181966175893    12.000000000000
         C            3.949640746368     0.286373232435    -0.112852175893    12.000000000000
         H           -0.766407253632    -0.864448767565    -1.125717175893     1.007825032230
         H            0.077674746368     1.194298232435     0.696849824107     1.007825032230
         H           -1.367787253632    -1.352413767565     1.829357824107     1.007825032230
         H           -2.075540253632    -2.244920767565     0.459151824107     1.007825032230
         H           -0.323442253632    -2.335475767565     0.774095824107     1.007825032230
         H            2.390030746368     1.792952232435    -0.015581175893     1.007825032230
         H            2.576269746368     0.861305232435     1.461009824107     1.007825032230
         H            4.155009746368    -0.711364767565     0.280695824107     1.007825032230
         H            3.971544746368     0.221749232435    -1.202186175893     1.007825032230
         H            4.742324746368     0.964555232435     0.216225824107     1.007825032230
         H           -2.849019253632     2.102374232435     0.104841824107     1.007825032230

  Basis Set: AUG-CC-PVTZ
    Blend: AUG-CC-PVTZ
  Basis Set: (AUG-CC-PVTZ AUX)
    Blend: AUG-CC-PVTZ-JKFIT
	 Reference Energy          =    -512.8858368873331983 [Eh]
	 Singles Energy            =      -0.0000000000000000 [Eh]
	 Same-Spin Energy          =      -0.5112178064161289 [Eh]
	 Opposite-Spin Energy      =      -1.6148743522841329 [Eh]
	 Correlation Energy        =      -2.1260921587002617 [Eh]
	 Total Energy              =    -515.0119290460335151 [Eh]

	 ================> DF-SCS-MP2 Energies <==================
	-----------------------------------------------------------
	 SCS Same-Spin Scale       =       0.3333333333333333 [-]
	 SCS Opposite-Spin Scale   =       1.2000000000000000 [-]
	 SCS Same-Spin Energy      =      -0.1704059354720430 [Eh]
	 SCS Opposite-Spin Energy  =      -1.9378492227409594 [Eh]
	 SCS Correlation Energy    =      -2.1082551582130025 [Eh]
	 SCS Total Energy          =    -514.9940920455461537 [Eh]
	-----------------------------------------------------------

  Dipole Moment: [D]
     X:    -0.0721      Y:     3.2930      Z:     1.9540     Total:     3.8298

*** Psi4 exiting successfully. Buy a developer a beer!
