                               Psi4 1.3.2 release

  ==> Input File <==

--------------------------------------------------------------------------
#psi4
#
memory 32 gb

molecule  {
0 1
  O       -1.9756670     1.6664010     0.1857370
  O        1.6511300    -1.1930600    -0.6768240
  O       -3.2820610    -0.0444860    -0.5140140
  N        0.2152580     0.2772540     0.2951010
  C       -0.9464590    -0.4858680    -0.1100250
  C       -1.1946186    -1.7191403     0.7615693
  C        2.5941300     0.7851170     0.3678910
  C        1.4652130    -0.1360080    -0.0663740
  C       -2.1892550     0.3702600    -0.1810000
  C        3.9493650     0.2879730    -0.1118860
  H       -0.7714496    -0.8985134    -1.1116229
  H        0.0773990     1.1958980     0.6978160
  H       -1.3680630    -1.3508140     1.8303240
  H       -2.0758160    -2.2433210     0.4601180
  H       -0.3237180    -2.3338760     0.7750620
  H        2.3897550     1.7945520    -0.0146150
  H        2.5759940     0.8629050     1.4619760
  H        4.1547340    -0.7097650     0.2816620
  H        3.9712690     0.2233490    -1.2012200
  H        4.7420490     0.9661550     0.2171920
  H       -2.8492950     2.1039740     0.1058080
units angstrom
no_reorient  #important for SAPT in psi4, default
symmetry c1  #important for SAPT in psi4, default
}

set PROPERTIES_ORIGIN ["COM"]
properties('MP2/aug-cc-pvtz', properties = ['dipole'])
--------------------------------------------------------------------------

    Molecular point group: c1
  Charge       = 0
  Multiplicity = 1
  Basis Set: AUG-CC-PVTZ
    Blend: AUG-CC-PVTZ
  Basis Set: (AUG-CC-PVTZ AUX)
    Blend: AUG-CC-PVTZ-JKFIT

    Orbital Energies [Eh]
    ---------------------

    Doubly Occupied:

       1A    -20.636347     2A    -20.564113     3A    -20.525060
       4A    -15.593408     5A    -11.405570     6A    -11.356582
       7A    -11.296356     8A    -11.247825     9A    -11.227482
      10A    -11.219700    11A     -1.478728    12A     -1.381087
      13A     -1.373847    14A     -1.245474    15A     -1.075220
      16A     -1.036178    17A     -0.928437    18A     -0.885647
      19A     -0.816006    20A     -0.792785    21A     -0.731569
      22A     -0.714923    23A     -0.683163    24A     -0.665709
      25A     -0.641563    26A     -0.633758    27A     -0.611191
      28A     -0.603114    29A     -0.581502    30A     -0.556055
      31A     -0.542691    32A     -0.525582    33A     -0.519768
      34A     -0.511924    35A     -0.498404    36A     -0.485758
      37A     -0.467313    38A     -0.429424    39A     -0.400305

  @DF-RHF Final Energy:  -512.88263971892752

   => Energetics <=

    Nuclear Repulsion Energy =            548.0748612536837072
    One-Electron Energy =               -1788.1358676469790225
    Two-Electron Energy =                 727.1783666743679078
    Total Energy =                       -512.8826397189275212
  Basis Set: (AUG-CC-PVTZ AUX)
    Blend: AUG-CC-PVTZ-RI
    Molecular point group: c1

    Geometry (in Angstrom), charge = 0, multiplicity = 1:

       Center              X                  Y                   Z               Mass
    ------------   -----------------  -----------------  -----------------  -----------------
         O           -1.976168479153     1.669313943951     0.189129565335    15.994914619570
         O            1.650628520847    -1.190147056049    -0.673431434665    15.994914619570
         O           -3.282562479153    -0.041573056049    -0.510621434665    15.994914619570
         N            0.214756520847     0.280166943951     0.298493565335    14.003074004430
         C           -0.946960479153    -0.482955056049    -0.106632434665    12.000000000000
         C           -1.195120079153    -1.716227356049     0.764961865335    12.000000000000
         C            2.593628520847     0.788029943951     0.371283565335    12.000000000000
         C            1.464711520847    -0.133095056049    -0.062981434665    12.000000000000
         C           -2.189756479153     0.373172943951    -0.177607434665    12.000000000000
         C            3.948863520847     0.290885943951    -0.108493434665    12.000000000000
         H           -0.771951079153    -0.895600456049    -1.108230334665     1.007825032230
         H            0.076897520847     1.198810943951     0.701208565335     1.007825032230
         H           -1.368564479153    -1.347901056049     1.833716565335     1.007825032230
         H           -2.076317479153    -2.240408056049     0.463510565335     1.007825032230
         H           -0.324219479153    -2.330963056049     0.778454565335     1.007825032230
         H            2.389253520847     1.797464943951    -0.011222434665     1.007825032230
         H            2.575492520847     0.865817943951     1.465368565335     1.007825032230
         H            4.154232520847    -0.706852056049     0.285054565335     1.007825032230
         H            3.970767520847     0.226261943951    -1.197827434665     1.007825032230
         H            4.741547520847     0.969067943951     0.220584565335     1.007825032230
         H           -2.849796479153     2.106886943951     0.109200565335     1.007825032230

  Basis Set: AUG-CC-PVTZ
    Blend: AUG-CC-PVTZ
  Basis Set: (AUG-CC-PVTZ AUX)
    Blend: AUG-CC-PVTZ-JKFIT
	 Reference Energy          =    -512.8826397189275212 [Eh]
	 Singles Energy            =      -0.0000000000000000 [Eh]
	 Same-Spin Energy          =      -0.5113815856624476 [Eh]
	 Opposite-Spin Energy      =      -1.6150489249564952 [Eh]
	 Correlation Energy        =      -2.1264305106189427 [Eh]
	 Total Energy              =    -515.0090702295464098 [Eh]

	 ================> DF-SCS-MP2 Energies <==================
	-----------------------------------------------------------
	 SCS Same-Spin Scale       =       0.3333333333333333 [-]
	 SCS Opposite-Spin Scale   =       1.2000000000000000 [-]
	 SCS Same-Spin Energy      =      -0.1704605285541492 [Eh]
	 SCS Opposite-Spin Energy  =      -1.9380587099477942 [Eh]
	 SCS Correlation Energy    =      -2.1085192385019433 [Eh]
	 SCS Total Energy          =    -514.9911589574294339 [Eh]
	-----------------------------------------------------------

  Dipole Moment: [D]
     X:    -0.0235      Y:     3.3010      Z:     1.9308     Total:     3.8243

*** Psi4 exiting successfully. Buy a developer a beer!
