                               Psi4 1.3.2 release

  ==> Input File <==

--------------------------------------------------------------------------
#psi4
#
memory 32 gb

molecule  {
0 1
  O       -1.9642013     1.6638968     0.1877169
  O        1.6511300    -1.1930600    -0.6768240
  O       -3.2820610    -0.0444860    -0.5140140
  N        0.2152580     0.2772540     0.2951010
  C       -0.9395644    -0.4754158    -0.1058970
  C       -1.2010820    -1.6869190     0.8036840
  C        2.5941300     0.7851170     0.3678910
  C        1.4652130    -0.1360080    -0.0663740
  C       -2.1892550     0.3702600    -0.1810000
  C        3.9493650     0.2879730    -0.1118860
  H       -0.7666830    -0.8628490    -1.1247510
  H        0.0773990     1.1958980     0.6978160
  H       -1.3680630    -1.3508140     1.8303240
  H       -2.0758160    -2.2433210     0.4601180
  H       -0.3237180    -2.3338760     0.7750620
  H        2.3897550     1.7945520    -0.0146150
  H        2.5759940     0.8629050     1.4619760
  H        4.1547340    -0.7097650     0.2816620
  H        3.9712690     0.2233490    -1.2012200
  H        4.7420490     0.9661550     0.2171920
  H       -2.8492950     2.1039740     0.1058080
units angstrom
no_reorient  #important for SAPT in psi4, default
symmetry c1  #important for SAPT in psi4, default
}

set PROPERTIES_ORIGIN ["COM"]
properties('MP2/aug-cc-pvtz', properties = ['dipole'])
--------------------------------------------------------------------------

    Molecular point group: c1
  Charge       = 0
  Multiplicity = 1
  Basis Set: AUG-CC-PVTZ
    Blend: AUG-CC-PVTZ
  Basis Set: (AUG-CC-PVTZ AUX)
    Blend: AUG-CC-PVTZ-JKFIT

    Orbital Energies [Eh]
    ---------------------

    Doubly Occupied:

       1A    -20.637131     2A    -20.564268     3A    -20.524987
       4A    -15.592572     5A    -11.404741     6A    -11.356539
       7A    -11.295521     8A    -11.247826     9A    -11.226588
      10A    -11.219679    11A     -1.477258    12A     -1.381271
      13A     -1.373325    14A     -1.247839    15A     -1.074395
      16A     -1.034785    17A     -0.926971    18A     -0.885582
      19A     -0.814518    20A     -0.793405    21A     -0.731537
      22A     -0.714032    23A     -0.683605    24A     -0.665119
      25A     -0.641444    26A     -0.633413    27A     -0.609541
      28A     -0.602590    29A     -0.581073    30A     -0.546000
      31A     -0.543105    32A     -0.525032    33A     -0.520064
      34A     -0.518779    35A     -0.497881    36A     -0.487862
      37A     -0.467576    38A     -0.429247    39A     -0.399541

  @DF-RHF Final Energy:  -512.88445914833949

   => Energetics <=

    Nuclear Repulsion Energy =            548.4114695343679386
    One-Electron Energy =               -1788.8385643365884334
    Two-Electron Energy =                 727.5426356538808932
    Total Energy =                       -512.8844591483394879
  Basis Set: (AUG-CC-PVTZ AUX)
    Blend: AUG-CC-PVTZ-RI
    Molecular point group: c1

    Geometry (in Angstrom), charge = 0, multiplicity = 1:

       Center              X                  Y                   Z               Mass
    ------------   -----------------  -----------------  -----------------  -----------------
         O           -1.966035694311     1.663308279982     0.187157342103    15.994914619570
         O            1.649295605689    -1.193648520018    -0.677383557897    15.994914619570
         O           -3.283895394311    -0.045074520018    -0.514573557897    15.994914619570
         N            0.213423605689     0.276665479982     0.294541442103    14.003074004430
         C           -0.941398794311    -0.476004320018    -0.106456557897    12.000000000000
         C           -1.202916394311    -1.687507520018     0.803124442103    12.000000000000
         C            2.592295605689     0.784528479982     0.367331442103    12.000000000000
         C            1.463378605689    -0.136596520018    -0.066933557897    12.000000000000
         C           -2.191089394311     0.369671479982    -0.181559557897    12.000000000000
         C            3.947530605689     0.287384479982    -0.112445557897    12.000000000000
         H           -0.768517394311    -0.863437520018    -1.125310557897     1.007825032230
         H            0.075564605689     1.195309479982     0.697256442103     1.007825032230
         H           -1.369897394311    -1.351402520018     1.829764442103     1.007825032230
         H           -2.077650394311    -2.243909520018     0.459558442103     1.007825032230
         H           -0.325552394311    -2.334464520018     0.774502442103     1.007825032230
         H            2.387920605689     1.793963479982    -0.015174557897     1.007825032230
         H            2.574159605689     0.862316479982     1.461416442103     1.007825032230
         H            4.152899605689    -0.710353520018     0.281102442103     1.007825032230
         H            3.969434605689     0.222760479982    -1.201779557897     1.007825032230
         H            4.740214605689     0.965566479982     0.216632442103     1.007825032230
         H           -2.851129394311     2.103385479982     0.105248442103     1.007825032230

  Basis Set: AUG-CC-PVTZ
    Blend: AUG-CC-PVTZ
  Basis Set: (AUG-CC-PVTZ AUX)
    Blend: AUG-CC-PVTZ-JKFIT
	 Reference Energy          =    -512.8844591483394879 [Eh]
	 Singles Energy            =      -0.0000000000000000 [Eh]
	 Same-Spin Energy          =      -0.5117353429645287 [Eh]
	 Opposite-Spin Energy      =      -1.6155640155401740 [Eh]
	 Correlation Energy        =      -2.1272993585047026 [Eh]
	 Total Energy              =    -515.0117585068442168 [Eh]

	 ================> DF-SCS-MP2 Energies <==================
	-----------------------------------------------------------
	 SCS Same-Spin Scale       =       0.3333333333333333 [-]
	 SCS Opposite-Spin Scale   =       1.2000000000000000 [-]
	 SCS Same-Spin Energy      =      -0.1705784476548429 [Eh]
	 SCS Opposite-Spin Energy  =      -1.9386768186482088 [Eh]
	 SCS Correlation Energy    =      -2.1092552663030517 [Eh]
	 SCS Total Energy          =    -514.9937144146425680 [Eh]
	-----------------------------------------------------------

  Dipole Moment: [D]
     X:    -0.0295      Y:     3.3450      Z:     1.9584     Total:     3.8762

*** Psi4 exiting successfully. Buy a developer a beer!
