                               Psi4 1.3.2 release

  ==> Input File <==

--------------------------------------------------------------------------
#psi4
#
memory 32 gb

molecule  {
0 1
  O       -1.9756670     1.6664010     0.1857370
  O        1.6511300    -1.1930600    -0.6768240
  O       -3.2820610    -0.0444860    -0.5140140
  N        0.2152580     0.2772540     0.2951010
  C       -0.9464590    -0.4858680    -0.1100250
  C       -1.2010820    -1.6869190     0.8036840
  C        2.5941300     0.7851170     0.3678910
  C        1.4652130    -0.1360080    -0.0663740
  C       -2.1892550     0.3702600    -0.1810000
  C        3.9493650     0.2879730    -0.1118860
  H       -0.7666830    -0.8628490    -1.1247510
  H        0.0773990     1.1958980     0.6978160
  H       -1.3680630    -1.3508140     1.8303240
  H       -2.0758160    -2.2433210     0.4601180
  H       -0.3237180    -2.3338760     0.7750620
  H        2.3897550     1.7945520    -0.0146150
  H        2.5759940     0.8629050     1.4619760
  H        4.1547340    -0.7097650     0.2816620
  H        3.9712690     0.2233490    -1.2012200
  H        4.7420490     0.9661550     0.2171920
  H       -3.0275229     2.1932428     0.0895018
units angstrom
no_reorient  #important for SAPT in psi4, default
symmetry c1  #important for SAPT in psi4, default
}

set PROPERTIES_ORIGIN ["COM"]
properties('MP2/aug-cc-pvtz', properties = ['dipole'])
--------------------------------------------------------------------------

    Molecular point group: c1
  Charge       = 0
  Multiplicity = 1
  Basis Set: AUG-CC-PVTZ
    Blend: AUG-CC-PVTZ
  Basis Set: (AUG-CC-PVTZ AUX)
    Blend: AUG-CC-PVTZ-JKFIT

    Orbital Energies [Eh]
    ---------------------

    Doubly Occupied:

       1A    -20.643543     2A    -20.559981     3A    -20.523625
       4A    -15.591127     5A    -11.400864     6A    -11.355126
       7A    -11.295616     8A    -11.246766     9A    -11.225806
      10A    -11.218883    11A     -1.457294    12A     -1.379659
      13A     -1.356951    14A     -1.243244    15A     -1.073036
      16A     -1.033985    17A     -0.919685    18A     -0.880177
      19A     -0.798993    20A     -0.787137    21A     -0.726486
      22A     -0.694253    23A     -0.677639    24A     -0.662058
      25A     -0.639402    26A     -0.629237    27A     -0.601134
      28A     -0.595862    29A     -0.579309    30A     -0.544802
      31A     -0.538286    32A     -0.523211    33A     -0.519176
      34A     -0.517585    35A     -0.494718    36A     -0.485809
      37A     -0.464687    38A     -0.427713    39A     -0.398964

  @DF-RHF Final Energy:  -512.85104805115111

   => Energetics <=

    Nuclear Repulsion Energy =            547.0471039964407964
    One-Electron Energy =               -1786.3726479121644388
    Two-Electron Energy =                 726.4744958645726456
    Total Energy =                       -512.8510480511511105
  Basis Set: (AUG-CC-PVTZ AUX)
    Blend: AUG-CC-PVTZ-RI
    Molecular point group: c1

    Geometry (in Angstrom), charge = 0, multiplicity = 1:

       Center              X                  Y                   Z               Mass
    ------------   -----------------  -----------------  -----------------  -----------------
         O           -1.974428817835     1.665780803736     0.185850465525    15.994914619570
         O            1.652368182165    -1.193680196264    -0.676710534475    15.994914619570
         O           -3.280822817835    -0.045106196264    -0.513900534475    15.994914619570
         N            0.216496182165     0.276633803736     0.295214465525    14.003074004430
         C           -0.945220817835    -0.486488196264    -0.109911534475    12.000000000000
         C           -1.199843817835    -1.687539196264     0.803797465525    12.000000000000
         C            2.595368182165     0.784496803736     0.368004465525    12.000000000000
         C            1.466451182165    -0.136628196264    -0.066260534475    12.000000000000
         C           -2.188016817835     0.369639803736    -0.180886534475    12.000000000000
         C            3.950603182165     0.287352803736    -0.111772534475    12.000000000000
         H           -0.765444817835    -0.863469196264    -1.124637534475     1.007825032230
         H            0.078637182165     1.195277803736     0.697929465525     1.007825032230
         H           -1.366824817835    -1.351434196264     1.830437465525     1.007825032230
         H           -2.074577817835    -2.243941196264     0.460231465525     1.007825032230
         H           -0.322479817835    -2.334496196264     0.775175465525     1.007825032230
         H            2.390993182165     1.793931803736    -0.014501534475     1.007825032230
         H            2.577232182165     0.862284803736     1.462089465525     1.007825032230
         H            4.155972182165    -0.710385196264     0.281775465525     1.007825032230
         H            3.972507182165     0.222728803736    -1.201106534475     1.007825032230
         H            4.743287182165     0.965534803736     0.217305465525     1.007825032230
         H           -3.026284717835     2.192622603736     0.089615265525     1.007825032230

  Basis Set: AUG-CC-PVTZ
    Blend: AUG-CC-PVTZ
  Basis Set: (AUG-CC-PVTZ AUX)
    Blend: AUG-CC-PVTZ-JKFIT
	 Reference Energy          =    -512.8510480511511105 [Eh]
	 Singles Energy            =      -0.0000000000000000 [Eh]
	 Same-Spin Energy          =      -0.5139739791633114 [Eh]
	 Opposite-Spin Energy      =      -1.6214681078920874 [Eh]
	 Correlation Energy        =      -2.1354420870553987 [Eh]
	 Total Energy              =    -514.9864901382064772 [Eh]

	 ================> DF-SCS-MP2 Energies <==================
	-----------------------------------------------------------
	 SCS Same-Spin Scale       =       0.3333333333333333 [-]
	 SCS Opposite-Spin Scale   =       1.2000000000000000 [-]
	 SCS Same-Spin Energy      =      -0.1713246597211038 [Eh]
	 SCS Opposite-Spin Energy  =      -1.9457617294705047 [Eh]
	 SCS Correlation Energy    =      -2.1170863891916087 [Eh]
	 SCS Total Energy          =    -514.9681344403427374 [Eh]
	-----------------------------------------------------------

  Dipole Moment: [D]
     X:    -0.2487      Y:     3.4688      Z:     1.9563     Total:     3.9902

*** Psi4 exiting successfully. Buy a developer a beer!
