                               Psi4 1.3.2 release

  ==> Input File <==

--------------------------------------------------------------------------
#psi4
#
memory 32 gb

molecule  {
0 1
  O       -1.9756670     1.6664010     0.1857370
  O        1.6511300    -1.1930600    -0.6768240
  O       -3.2820610    -0.0444860    -0.5140140
  N        0.2008540     0.2979594     0.2966150
  C       -0.9464590    -0.4858680    -0.1100250
  C       -1.2010820    -1.6869190     0.8036840
  C        2.5941300     0.7851170     0.3678910
  C        1.4652130    -0.1360080    -0.0663740
  C       -2.1750086     0.3911538    -0.1735321
  C        3.9493650     0.2879730    -0.1118860
  H       -0.7666830    -0.8628490    -1.1247510
  H        0.0773990     1.1958980     0.6978160
  H       -1.3680630    -1.3508140     1.8303240
  H       -2.0758160    -2.2433210     0.4601180
  H       -0.3237180    -2.3338760     0.7750620
  H        2.3897550     1.7945520    -0.0146150
  H        2.5759940     0.8629050     1.4619760
  H        4.1547340    -0.7097650     0.2816620
  H        3.9712690     0.2233490    -1.2012200
  H        4.7420490     0.9661550     0.2171920
  H       -2.8492950     2.1039740     0.1058080
units angstrom
no_reorient  #important for SAPT in psi4, default
symmetry c1  #important for SAPT in psi4, default
}

set PROPERTIES_ORIGIN ["COM"]
properties('MP2/aug-cc-pvtz', properties = ['dipole'])
--------------------------------------------------------------------------

    Molecular point group: c1
  Charge       = 0
  Multiplicity = 1
  Basis Set: AUG-CC-PVTZ
    Blend: AUG-CC-PVTZ
  Basis Set: (AUG-CC-PVTZ AUX)
    Blend: AUG-CC-PVTZ-JKFIT

    Orbital Energies [Eh]
    ---------------------

    Doubly Occupied:

       1A    -20.641879     2A    -20.557431     3A    -20.528878
       4A    -15.590173     5A    -11.404439     6A    -11.359550
       7A    -11.295917     8A    -11.248401     9A    -11.226291
      10A    -11.220291    11A     -1.484796    12A     -1.381229
      13A     -1.361985    14A     -1.245080    15A     -1.074077
      16A     -1.034868    17A     -0.929491    18A     -0.886752
      19A     -0.822980    20A     -0.793295    21A     -0.730547
      22A     -0.715625    23A     -0.683346    24A     -0.666010
      25A     -0.641796    26A     -0.633669    27A     -0.606591
      28A     -0.604399    29A     -0.582093    30A     -0.545917
      31A     -0.542310    32A     -0.525569    33A     -0.520717
      34A     -0.519234    35A     -0.494975    36A     -0.483737
      37A     -0.465064    38A     -0.430058    39A     -0.400439

  @DF-RHF Final Energy:  -512.88297152753341

   => Energetics <=

    Nuclear Repulsion Energy =            548.0323065698385108
    One-Electron Energy =               -1788.0707576441138826
    Two-Electron Energy =                 727.1554795467419581
    Total Energy =                       -512.8829715275334138
  Basis Set: (AUG-CC-PVTZ AUX)
    Blend: AUG-CC-PVTZ-RI
    Molecular point group: c1

    Geometry (in Angstrom), charge = 0, multiplicity = 1:

       Center              X                  Y                   Z               Mass
    ------------   -----------------  -----------------  -----------------  -----------------
         O           -1.975455047005     1.662674128184     0.184973331481    15.994914619570
         O            1.651341952995    -1.196786871816    -0.677587668519    15.994914619570
         O           -3.281849047005    -0.048212871816    -0.514777668519    15.994914619570
         N            0.201065952995     0.294232528184     0.295851331481    14.003074004430
         C           -0.946247047005    -0.489594871816    -0.110788668519    12.000000000000
         C           -1.200870047005    -1.690645871816     0.802920331481    12.000000000000
         C            2.594341952995     0.781390128184     0.367127331481    12.000000000000
         C            1.465424952995    -0.139734871816    -0.067137668519    12.000000000000
         C           -2.174796647005     0.387426928184    -0.174295768519    12.000000000000
         C            3.949576952995     0.284246128184    -0.112649668519    12.000000000000
         H           -0.766471047005    -0.866575871816    -1.125514668519     1.007825032230
         H            0.077610952995     1.192171128184     0.697052331481     1.007825032230
         H           -1.367851047005    -1.354540871816     1.829560331481     1.007825032230
         H           -2.075604047005    -2.247047871816     0.459354331481     1.007825032230
         H           -0.323506047005    -2.337602871816     0.774298331481     1.007825032230
         H            2.389966952995     1.790825128184    -0.015378668519     1.007825032230
         H            2.576205952995     0.859178128184     1.461212331481     1.007825032230
         H            4.154945952995    -0.713491871816     0.280898331481     1.007825032230
         H            3.971480952995     0.219622128184    -1.201983668519     1.007825032230
         H            4.742260952995     0.962428128184     0.216428331481     1.007825032230
         H           -2.849083047005     2.100247128184     0.105044331481     1.007825032230

  Basis Set: AUG-CC-PVTZ
    Blend: AUG-CC-PVTZ
  Basis Set: (AUG-CC-PVTZ AUX)
    Blend: AUG-CC-PVTZ-JKFIT
	 Reference Energy          =    -512.8829715275334138 [Eh]
	 Singles Energy            =      -0.0000000000000000 [Eh]
	 Same-Spin Energy          =      -0.5115908286104134 [Eh]
	 Opposite-Spin Energy      =      -1.6154261858076713 [Eh]
	 Correlation Energy        =      -2.1270170144180849 [Eh]
	 Total Energy              =    -515.0099885419515431 [Eh]

	 ================> DF-SCS-MP2 Energies <==================
	-----------------------------------------------------------
	 SCS Same-Spin Scale       =       0.3333333333333333 [-]
	 SCS Opposite-Spin Scale   =       1.2000000000000000 [-]
	 SCS Same-Spin Energy      =      -0.1705302762034711 [Eh]
	 SCS Opposite-Spin Energy  =      -1.9385114229692055 [Eh]
	 SCS Correlation Energy    =      -2.1090416991726766 [Eh]
	 SCS Total Energy          =    -514.9920132267060353 [Eh]
	-----------------------------------------------------------

  Dipole Moment: [D]
     X:     0.1685      Y:     3.4228      Z:     2.0011     Total:     3.9685

*** Psi4 exiting successfully. Buy a developer a beer!
