                               Psi4 1.3.2 release

  ==> Input File <==

--------------------------------------------------------------------------
#psi4
#
memory 32 gb

molecule  {
0 1
  O       -1.9756670     1.6664010     0.1857370
  O        1.6404944    -1.1947801    -0.6769896
  O       -3.2820610    -0.0444860    -0.5140140
  N        0.2152580     0.2772540     0.2951010
  C       -0.9464590    -0.4858680    -0.1100250
  C       -1.2010820    -1.6869190     0.8036840
  C        2.5852432     0.7933943     0.3732335
  C        1.4652130    -0.1360080    -0.0663740
  C       -2.1892550     0.3702600    -0.1810000
  C        3.9493650     0.2879730    -0.1118860
  H       -0.7666830    -0.8628490    -1.1247510
  H        0.0773990     1.1958980     0.6978160
  H       -1.3680630    -1.3508140     1.8303240
  H       -2.0758160    -2.2433210     0.4601180
  H       -0.3237180    -2.3338760     0.7750620
  H        2.3897550     1.7945520    -0.0146150
  H        2.5759940     0.8629050     1.4619760
  H        4.1547340    -0.7097650     0.2816620
  H        3.9712690     0.2233490    -1.2012200
  H        4.7420490     0.9661550     0.2171920
  H       -2.8492950     2.1039740     0.1058080
units angstrom
no_reorient  #important for SAPT in psi4, default
symmetry c1  #important for SAPT in psi4, default
}

set PROPERTIES_ORIGIN ["COM"]
properties('MP2/aug-cc-pvtz', properties = ['dipole'])
--------------------------------------------------------------------------

    Molecular point group: c1
  Charge       = 0
  Multiplicity = 1
  Basis Set: AUG-CC-PVTZ
    Blend: AUG-CC-PVTZ
  Basis Set: (AUG-CC-PVTZ AUX)
    Blend: AUG-CC-PVTZ-JKFIT

    Orbital Energies [Eh]
    ---------------------

    Doubly Occupied:

       1A    -20.635728     2A    -20.563514     3A    -20.524797
       4A    -15.591682     5A    -11.404447     6A    -11.356250
       7A    -11.295915     8A    -11.247454     9A    -11.226577
      10A    -11.220414    11A     -1.478174    12A     -1.380889
      13A     -1.373279    14A     -1.244706    15A     -1.074667
      16A     -1.034434    17A     -0.927426    18A     -0.885695
      19A     -0.816402    20A     -0.792497    21A     -0.731051
      22A     -0.714325    23A     -0.682724    24A     -0.665323
      25A     -0.642351    26A     -0.633333    27A     -0.609991
      28A     -0.602609    29A     -0.580552    30A     -0.545868
      31A     -0.543492    32A     -0.522672    33A     -0.520519
      34A     -0.518574    35A     -0.498937    36A     -0.488997
      37A     -0.467523    38A     -0.429335    39A     -0.399857

  @DF-RHF Final Energy:  -512.88581042241992

   => Energetics <=

    Nuclear Repulsion Energy =            548.2231539334756008
    One-Electron Energy =               -1788.4719707888934863
    Two-Electron Energy =                 727.3630064329978495
    Total Energy =                       -512.8858104224199224
  Basis Set: (AUG-CC-PVTZ AUX)
    Blend: AUG-CC-PVTZ-RI
    Molecular point group: c1

    Geometry (in Angstrom), charge = 0, multiplicity = 1:

       Center              X                  Y                   Z               Mass
    ------------   -----------------  -----------------  -----------------  -----------------
         O           -1.973759265425     1.665905930204     0.185313531987    15.994914619570
         O            1.642402134575    -1.195275169796    -0.677413068013    15.994914619570
         O           -3.280153265425    -0.044981069796    -0.514437468013    15.994914619570
         N            0.217165734575     0.276758930204     0.294677531987    14.003074004430
         C           -0.944551265425    -0.486363069796    -0.110448468013    12.000000000000
         C           -1.199174265425    -1.687414069796     0.803260531987    12.000000000000
         C            2.587150934575     0.792899230204     0.372810031987    12.000000000000
         C            1.467120734575    -0.136503069796    -0.066797468013    12.000000000000
         C           -2.187347265425     0.369764930204    -0.181423468013    12.000000000000
         C            3.951272734575     0.287477930204    -0.112309468013    12.000000000000
         H           -0.764775265425    -0.863344069796    -1.125174468013     1.007825032230
         H            0.079306734575     1.195402930204     0.697392531987     1.007825032230
         H           -1.366155265425    -1.351309069796     1.829900531987     1.007825032230
         H           -2.073908265425    -2.243816069796     0.459694531987     1.007825032230
         H           -0.321810265425    -2.334371069796     0.774638531987     1.007825032230
         H            2.391662734575     1.794056930204    -0.015038468013     1.007825032230
         H            2.577901734575     0.862409930204     1.461552531987     1.007825032230
         H            4.156641734575    -0.710260069796     0.281238531987     1.007825032230
         H            3.973176734575     0.222853930204    -1.201643468013     1.007825032230
         H            4.743956734575     0.965659930204     0.216768531987     1.007825032230
         H           -2.847387265425     2.103478930204     0.105384531987     1.007825032230

  Basis Set: AUG-CC-PVTZ
    Blend: AUG-CC-PVTZ
  Basis Set: (AUG-CC-PVTZ AUX)
    Blend: AUG-CC-PVTZ-JKFIT
	 Reference Energy          =    -512.8858104224199224 [Eh]
	 Singles Energy            =      -0.0000000000000000 [Eh]
	 Same-Spin Energy          =      -0.5113411471643885 [Eh]
	 Opposite-Spin Energy      =      -1.6149774199539682 [Eh]
	 Correlation Energy        =      -2.1263185671183567 [Eh]
	 Total Energy              =    -515.0121289895382688 [Eh]

	 ================> DF-SCS-MP2 Energies <==================
	-----------------------------------------------------------
	 SCS Same-Spin Scale       =       0.3333333333333333 [-]
	 SCS Opposite-Spin Scale   =       1.2000000000000000 [-]
	 SCS Same-Spin Energy      =      -0.1704470490547962 [Eh]
	 SCS Opposite-Spin Energy  =      -1.9379729039447617 [Eh]
	 SCS Correlation Energy    =      -2.1084199529995580 [Eh]
	 SCS Total Energy          =    -514.9942303754195336 [Eh]
	-----------------------------------------------------------

  Dipole Moment: [D]
     X:    -0.0123      Y:     3.3238      Z:     1.9625     Total:     3.8599

*** Psi4 exiting successfully. Buy a developer a beer!
