                               Psi4 1.3.2 release

  ==> Input File <==

--------------------------------------------------------------------------
#psi4
#
memory 32 gb

molecule  {
0 1
  O       -1.9756670     1.6664010     0.1857370
  O        1.6511300    -1.1930600    -0.6768240
  O       -3.2820610    -0.0444860    -0.5140140
  N        0.2152580     0.2772540     0.2951010
  C       -0.9464590    -0.4858680    -0.1100250
  C       -1.2010820    -1.6869190     0.8036840
  C        2.5941300     0.7851170     0.3678910
  C        1.4652130    -0.1360080    -0.0663740
  C       -2.1892550     0.3702600    -0.1810000
  C        3.9560000     0.3338632    -0.1377571
  H       -0.7666830    -0.8628490    -1.1247510
  H        0.0773990     1.1958980     0.6978160
  H       -1.3680630    -1.3508140     1.8303240
  H       -2.0758160    -2.2433210     0.4601180
  H       -0.3237180    -2.3338760     0.7750620
  H        2.4237179     1.7939558    -0.0324126
  H        2.5759940     0.8629050     1.4619760
  H        4.1547340    -0.7097650     0.2816620
  H        3.9712690     0.2233490    -1.2012200
  H        4.7420490     0.9661550     0.2171920
  H       -2.8492950     2.1039740     0.1058080
units angstrom
no_reorient  #important for SAPT in psi4, default
symmetry c1  #important for SAPT in psi4, default
}

set PROPERTIES_ORIGIN ["COM"]
properties('MP2/aug-cc-pvtz', properties = ['dipole'])
--------------------------------------------------------------------------

    Molecular point group: c1
  Charge       = 0
  Multiplicity = 1
  Basis Set: AUG-CC-PVTZ
    Blend: AUG-CC-PVTZ
  Basis Set: (AUG-CC-PVTZ AUX)
    Blend: AUG-CC-PVTZ-JKFIT

    Orbital Energies [Eh]
    ---------------------

    Doubly Occupied:

       1A    -20.636020     2A    -20.563884     3A    -20.524959
       4A    -15.592744     5A    -11.404872     6A    -11.357010
       7A    -11.296618     8A    -11.247561     9A    -11.227000
      10A    -11.219514    11A     -1.478495    12A     -1.380897
      13A     -1.373614    14A     -1.245574    15A     -1.074952
      16A     -1.036071    17A     -0.927915    18A     -0.885338
      19A     -0.816786    20A     -0.792497    21A     -0.731145
      22A     -0.714651    23A     -0.683200    24A     -0.666221
      25A     -0.640999    26A     -0.633453    27A     -0.610687
      28A     -0.604500    29A     -0.579893    30A     -0.549195
      31A     -0.544905    32A     -0.528417    33A     -0.525496
      34A     -0.512797    35A     -0.492868    36A     -0.484109
      37A     -0.467916    38A     -0.429422    39A     -0.400379

  @DF-RHF Final Energy:  -512.88259973946822

   => Energetics <=

    Nuclear Repulsion Energy =            547.9894203830327797
    One-Electron Energy =               -1787.9788919532791169
    Two-Electron Energy =                 727.1068718307780046
    Total Energy =                       -512.8825997394682190
  Basis Set: (AUG-CC-PVTZ AUX)
    Blend: AUG-CC-PVTZ-RI
    Molecular point group: c1

    Geometry (in Angstrom), charge = 0, multiplicity = 1:

       Center              X                  Y                   Z               Mass
    ------------   -----------------  -----------------  -----------------  -----------------
         O           -1.976451726253     1.662609218599     0.188000792254    15.994914619570
         O            1.650345273747    -1.196851781401    -0.674560207746    15.994914619570
         O           -3.282845726253    -0.048277781401    -0.511750207746    15.994914619570
         N            0.214473273747     0.273462218599     0.297364792254    14.003074004430
         C           -0.947243726253    -0.489659781401    -0.107761207746    12.000000000000
         C           -1.201866726253    -1.690710781401     0.805947792254    12.000000000000
         C            2.593345273747     0.781325218599     0.370154792254    12.000000000000
         C            1.464428273747    -0.139799781401    -0.064110207746    12.000000000000
         C           -2.190039726253     0.366468218599    -0.178736207746    12.000000000000
         C            3.955215273747     0.330071418599    -0.135493307746    12.000000000000
         H           -0.767467726253    -0.866640781401    -1.122487207746     1.007825032230
         H            0.076614273747     1.192106218599     0.700079792254     1.007825032230
         H           -1.368847726253    -1.354605781401     1.832587792254     1.007825032230
         H           -2.076600726253    -2.247112781401     0.462381792254     1.007825032230
         H           -0.324502726253    -2.337667781401     0.777325792254     1.007825032230
         H            2.422933173747     1.790164018599    -0.030148807746     1.007825032230
         H            2.575209273747     0.859113218599     1.464239792254     1.007825032230
         H            4.153949273747    -0.713556781401     0.283925792254     1.007825032230
         H            3.970484273747     0.219557218599    -1.198956207746     1.007825032230
         H            4.741264273747     0.962363218599     0.219455792254     1.007825032230
         H           -2.850079726253     2.100182218599     0.108071792254     1.007825032230

  Basis Set: AUG-CC-PVTZ
    Blend: AUG-CC-PVTZ
  Basis Set: (AUG-CC-PVTZ AUX)
    Blend: AUG-CC-PVTZ-JKFIT
	 Reference Energy          =    -512.8825997394682190 [Eh]
	 Singles Energy            =      -0.0000000000000000 [Eh]
	 Same-Spin Energy          =      -0.5114290095336919 [Eh]
	 Opposite-Spin Energy      =      -1.6151602444331217 [Eh]
	 Correlation Energy        =      -2.1265892539668134 [Eh]
	 Total Energy              =    -515.0091889934350320 [Eh]

	 ================> DF-SCS-MP2 Energies <==================
	-----------------------------------------------------------
	 SCS Same-Spin Scale       =       0.3333333333333333 [-]
	 SCS Opposite-Spin Scale   =       1.2000000000000000 [-]
	 SCS Same-Spin Energy      =      -0.1704763365112306 [Eh]
	 SCS Opposite-Spin Energy  =      -1.9381922933197460 [Eh]
	 SCS Correlation Energy    =      -2.1086686298309765 [Eh]
	 SCS Total Energy          =    -514.9912683692991777 [Eh]
	-----------------------------------------------------------

  Dipole Moment: [D]
     X:    -0.0523      Y:     3.3325      Z:     1.9476     Total:     3.8602

*** Psi4 exiting successfully. Buy a developer a beer!
