                               Psi4 1.3.2 release

  ==> Input File <==

--------------------------------------------------------------------------
#psi4
#
memory 32 gb

molecule  {
0 1
  O       -1.9756670     1.6664010     0.1857370
  O        1.6511300    -1.1930600    -0.6768240
  O       -3.2820610    -0.0444860    -0.5140140
  N        0.2112944     0.2931030     0.2758246
  C       -0.9464590    -0.4858680    -0.1100250
  C       -1.2223884    -1.6933434     0.7889114
  C        2.5941300     0.7851170     0.3678910
  C        1.4652130    -0.1360080    -0.0663740
  C       -2.1892550     0.3702600    -0.1810000
  C        3.9493650     0.2879730    -0.1118860
  H       -0.7666830    -0.8628490    -1.1247510
  H        0.0773990     1.1958980     0.6978160
  H       -1.3680630    -1.3508140     1.8303240
  H       -2.0758160    -2.2433210     0.4601180
  H       -0.3237180    -2.3338760     0.7750620
  H        2.3897550     1.7945520    -0.0146150
  H        2.5759940     0.8629050     1.4619760
  H        4.1547340    -0.7097650     0.2816620
  H        3.9712690     0.2233490    -1.2012200
  H        4.7420490     0.9661550     0.2171920
  H       -2.8492950     2.1039740     0.1058080
units angstrom
no_reorient  #important for SAPT in psi4, default
symmetry c1  #important for SAPT in psi4, default
}

set PROPERTIES_ORIGIN ["COM"]
properties('MP2/aug-cc-pvtz', properties = ['dipole'])
--------------------------------------------------------------------------

    Molecular point group: c1
  Charge       = 0
  Multiplicity = 1
  Basis Set: AUG-CC-PVTZ
    Blend: AUG-CC-PVTZ
  Basis Set: (AUG-CC-PVTZ AUX)
    Blend: AUG-CC-PVTZ-JKFIT

    Orbital Energies [Eh]
    ---------------------

    Doubly Occupied:

       1A    -20.635281     2A    -20.563018     3A    -20.525396
       4A    -15.592403     5A    -11.403823     6A    -11.356967
       7A    -11.296453     8A    -11.247751     9A    -11.227617
      10A    -11.219674    11A     -1.477817    12A     -1.380774
      13A     -1.372927    14A     -1.245443    15A     -1.074982
      16A     -1.036137    17A     -0.927959    18A     -0.885203
      19A     -0.817348    20A     -0.792727    21A     -0.730473
      22A     -0.714193    23A     -0.682721    24A     -0.665200
      25A     -0.641131    26A     -0.633003    27A     -0.608914
      28A     -0.604268    29A     -0.583253    30A     -0.550228
      31A     -0.541043    32A     -0.526401    33A     -0.519882
      34A     -0.517039    35A     -0.497467    36A     -0.487739
      37A     -0.466819    38A     -0.429212    39A     -0.400435

  @DF-RHF Final Energy:  -512.88515110131902

   => Energetics <=

    Nuclear Repulsion Energy =            548.1110626208055692
    One-Electron Energy =               -1788.2341846169997552
    Two-Electron Energy =                 727.2379708948751613
    Total Energy =                       -512.8851511013190247
  Basis Set: (AUG-CC-PVTZ AUX)
    Blend: AUG-CC-PVTZ-RI
    Molecular point group: c1

    Geometry (in Angstrom), charge = 0, multiplicity = 1:

       Center              X                  Y                   Z               Mass
    ------------   -----------------  -----------------  -----------------  -----------------
         O           -1.973521991375     1.665402551057     0.188819754138    15.994914619570
         O            1.653275008625    -1.194058448943    -0.673741245862    15.994914619570
         O           -3.279915991375    -0.045484448943    -0.510931245862    15.994914619570
         N            0.213439408625     0.292104551057     0.278907354138    14.003074004430
         C           -0.944313991375    -0.486866448943    -0.106942245862    12.000000000000
         C           -1.220243391375    -1.694341848943     0.791994154138    12.000000000000
         C            2.596275008625     0.784118551057     0.370973754138    12.000000000000
         C            1.467358008625    -0.137006448943    -0.063291245862    12.000000000000
         C           -2.187109991375     0.369261551057    -0.177917245862    12.000000000000
         C            3.951510008625     0.286974551057    -0.108803245862    12.000000000000
         H           -0.764537991375    -0.863847448943    -1.121668245862     1.007825032230
         H            0.079544008625     1.194899551057     0.700898754138     1.007825032230
         H           -1.365917991375    -1.351812448943     1.833406754138     1.007825032230
         H           -2.073670991375    -2.244319448943     0.463200754138     1.007825032230
         H           -0.321572991375    -2.334874448943     0.778144754138     1.007825032230
         H            2.391900008625     1.793553551057    -0.011532245862     1.007825032230
         H            2.578139008625     0.861906551057     1.465058754138     1.007825032230
         H            4.156879008625    -0.710763448943     0.284744754138     1.007825032230
         H            3.973414008625     0.222350551057    -1.198137245862     1.007825032230
         H            4.744194008625     0.965156551057     0.220274754138     1.007825032230
         H           -2.847149991375     2.102975551057     0.108890754138     1.007825032230

  Basis Set: AUG-CC-PVTZ
    Blend: AUG-CC-PVTZ
  Basis Set: (AUG-CC-PVTZ AUX)
    Blend: AUG-CC-PVTZ-JKFIT
	 Reference Energy          =    -512.8851511013190247 [Eh]
	 Singles Energy            =      -0.0000000000000000 [Eh]
	 Same-Spin Energy          =      -0.5113364410022507 [Eh]
	 Opposite-Spin Energy      =      -1.6148825039755264 [Eh]
	 Correlation Energy        =      -2.1262189449777771 [Eh]
	 Total Energy              =    -515.0113700462967472 [Eh]

	 ================> DF-SCS-MP2 Energies <==================
	-----------------------------------------------------------
	 SCS Same-Spin Scale       =       0.3333333333333333 [-]
	 SCS Opposite-Spin Scale   =       1.2000000000000000 [-]
	 SCS Same-Spin Energy      =      -0.1704454803340836 [Eh]
	 SCS Opposite-Spin Energy  =      -1.9378590047706314 [Eh]
	 SCS Correlation Energy    =      -2.1083044851047150 [Eh]
	 SCS Total Energy          =    -514.9934555864236927 [Eh]
	-----------------------------------------------------------

  Dipole Moment: [D]
     X:    -0.0078      Y:     3.2741      Z:     1.9865     Total:     3.8296

*** Psi4 exiting successfully. Buy a developer a beer!
