                               Psi4 1.4a3.dev225

  ==> Input File <==

--------------------------------------------------------------------------
#psi4
#
memory 32 gb

molecule  {
0 1
  O        2.1858500    -1.4843500     0.4466430
  O       -1.5901990     1.2021140    -0.7742790
  O        3.2899360     0.0893000    -0.7567370
  N       -0.1552130    -0.3501220     0.0655300
  C        0.9973750     0.5138300    -0.1038320
  C        1.1366130     1.5332170     1.0331740
  C       -2.5208420    -0.9251940    -0.0919400
  C       -1.4008270     0.0814870    -0.2899980
  C        2.2291854    -0.2645862    -0.2082986
  C       -3.8280260    -0.2360070     0.2837800
  H        0.8752740     1.0541530    -1.0466610
  H       -0.0274960    -1.2421660     0.5250420
  H        1.2555520     1.0181310     1.9903510
  H        2.0023980     2.1787030     0.8613650
  H        0.2327940     2.1443920     1.0604580
  H       -2.6404080    -1.4674310    -1.0380590
  H       -2.2372030    -1.6677960     0.6628800
  H       -3.7417830     0.2575120     1.2553170
  H       -4.0728600     0.5241080    -0.4590610
  H       -4.6456460    -0.9595500     0.3374610
  H        3.0673500    -1.9023430     0.3513230
units angstrom
no_reorient  #important for SAPT in psi4, default
symmetry c1  #important for SAPT in psi4, default
}

set PROPERTIES_ORIGIN ["COM"]
properties('MP2/aug-cc-pvtz', properties = ['dipole'])
--------------------------------------------------------------------------

    Molecular point group: c1
  Charge       = 0
  Multiplicity = 1
  Basis Set: AUG-CC-PVTZ
    Blend: AUG-CC-PVTZ
  Basis Set: (AUG-CC-PVTZ AUX)
    Blend: AUG-CC-PVTZ-JKFIT

    Orbital Energies [Eh]
    ---------------------

    Doubly Occupied:

       1A    -20.629965     2A    -20.562925     3A    -20.524828
       4A    -15.598739     5A    -11.408276     6A    -11.359054
       7A    -11.298593     8A    -11.249162     9A    -11.236890
      10A    -11.223518    11A     -1.463211    12A     -1.381690
      13A     -1.353980    14A     -1.250400    15A     -1.083355
      16A     -1.042803    17A     -0.935118    18A     -0.889285
      19A     -0.823128    20A     -0.795182    21A     -0.729985
      22A     -0.707397    23A     -0.680928    24A     -0.659395
      25A     -0.642703    26A     -0.629829    27A     -0.610153
      28A     -0.600400    29A     -0.584646    30A     -0.558284
      31A     -0.551747    32A     -0.530861    33A     -0.525029
      34A     -0.514660    35A     -0.496219    36A     -0.481958
      37A     -0.470129    38A     -0.429779    39A     -0.403739

  @DF-RHF Final Energy:  -512.87880528479070

   => Energetics <=

    Nuclear Repulsion Energy =            548.1014138389654136
    One-Electron Energy =               -1788.1245497375130071
    Two-Electron Energy =                 727.1443306137567788
    Total Energy =                       -512.8788052847907011
  Basis Set: (AUG-CC-PVTZ AUX)
    Blend: AUG-CC-PVTZ-RI
    Molecular point group: c1

    Geometry (in Angstrom), charge = 0, multiplicity = 1:

       Center              X                  Y                   Z               Mass
    ------------   -----------------  -----------------  -----------------  -----------------
         O            2.121550577545    -1.486979060751     0.477086626438    15.994914619570
         O           -1.654498422455     1.199484939249    -0.743835373562    15.994914619570
         O            3.225636577545     0.086670939249    -0.726293373562    15.994914619570
         N           -0.219512422455    -0.352751060751     0.095973626438    14.003074004430
         C            0.933075577545     0.511200939249    -0.073388373562    12.000000000000
         C            1.072313577545     1.530587939249     1.063617626438    12.000000000000
         C           -2.585141422455    -0.927823060751    -0.061496373562    12.000000000000
         C           -1.465126422455     0.078857939249    -0.259554373562    12.000000000000
         C            2.164885977545    -0.267215260751    -0.177854973562    12.000000000000
         C           -3.892325422455    -0.238636060751     0.314223626438    12.000000000000
         H            0.810974577545     1.051523939249    -1.016217373562     1.007825032230
         H           -0.091795422455    -1.244795060751     0.555485626438     1.007825032230
         H            1.191252577545     1.015501939249     2.020794626438     1.007825032230
         H            1.938098577545     2.176073939249     0.891808626438     1.007825032230
         H            0.168494577545     2.141762939249     1.090901626438     1.007825032230
         H           -2.704707422455    -1.470060060751    -1.007615373562     1.007825032230
         H           -2.301502422455    -1.670425060751     0.693323626438     1.007825032230
         H           -3.806082422455     0.254882939249     1.285760626438     1.007825032230
         H           -4.137159422455     0.521478939249    -0.428617373562     1.007825032230
         H           -4.709945422455    -0.962179060751     0.367904626438     1.007825032230
         H            3.003050577545    -1.904972060751     0.381766626438     1.007825032230

  Basis Set: AUG-CC-PVTZ
    Blend: AUG-CC-PVTZ
  Basis Set: (AUG-CC-PVTZ AUX)
    Blend: AUG-CC-PVTZ-JKFIT
	 Reference Energy          =    -512.8788052847907011 [Eh]
	 Singles Energy            =      -0.0000000000000000 [Eh]
	 Same-Spin Energy          =      -0.5123243229036947 [Eh]
	 Opposite-Spin Energy      =      -1.6173686742973237 [Eh]
	 Correlation Energy        =      -2.1296929972010181 [Eh]
	 Total Energy              =    -515.0084982819917059 [Eh]

	 ================> DF-SCS-MP2 Energies <==================
	-----------------------------------------------------------
	 SCS Same-Spin Scale       =       0.3333333333333333 [-]
	 SCS Opposite-Spin Scale   =       1.2000000000000000 [-]
	 SCS Same-Spin Energy      =      -0.1707747743012316 [Eh]
	 SCS Opposite-Spin Energy  =      -1.9408424091567884 [Eh]
	 SCS Correlation Energy    =      -2.1116171834580197 [Eh]
	 SCS Total Energy          =    -514.9904224682487666 [Eh]
	-----------------------------------------------------------

  Dipole Moment: [D]
     X:    -0.1276      Y:    -3.1180      Z:     2.3199     Total:     3.8884

*** Psi4 exiting successfully. Buy a developer a beer!
