                               Psi4 1.3.2 release

  ==> Input File <==

--------------------------------------------------------------------------
#psi4
#
memory 32 gb

molecule  {
0 1
  O       -1.9756670     1.6664010     0.1857370
  O        1.6511300    -1.1930600    -0.6768240
  O       -3.2820610    -0.0444860    -0.5140140
  N        0.2152580     0.2772540     0.2951010
  C       -0.9389178    -0.4941133    -0.1159215
  C       -1.2010820    -1.6869190     0.8036840
  C        2.5941300     0.7851170     0.3678910
  C        1.4604340    -0.1453361    -0.0720385
  C       -2.1892550     0.3702600    -0.1810000
  C        3.9493650     0.2879730    -0.1118860
  H       -0.7666830    -0.8628490    -1.1247510
  H        0.0773990     1.1958980     0.6978160
  H       -1.3680630    -1.3508140     1.8303240
  H       -2.0758160    -2.2433210     0.4601180
  H       -0.3237180    -2.3338760     0.7750620
  H        2.3897550     1.7945520    -0.0146150
  H        2.5759940     0.8629050     1.4619760
  H        4.1547340    -0.7097650     0.2816620
  H        3.9712690     0.2233490    -1.2012200
  H        4.7420490     0.9661550     0.2171920
  H       -2.8492950     2.1039740     0.1058080
units angstrom
no_reorient  #important for SAPT in psi4, default
symmetry c1  #important for SAPT in psi4, default
}

set PROPERTIES_ORIGIN ["COM"]
properties('MP2/aug-cc-pvtz', properties = ['dipole'])
--------------------------------------------------------------------------

    Molecular point group: c1
  Charge       = 0
  Multiplicity = 1
  Basis Set: AUG-CC-PVTZ
    Blend: AUG-CC-PVTZ
  Basis Set: (AUG-CC-PVTZ AUX)
    Blend: AUG-CC-PVTZ-JKFIT

    Orbital Energies [Eh]
    ---------------------

    Doubly Occupied:

       1A    -20.635912     2A    -20.563634     3A    -20.525998
       4A    -15.591590     5A    -11.404557     6A    -11.355194
       7A    -11.296143     8A    -11.246768     9A    -11.226693
      10A    -11.218911    11A     -1.478019    12A     -1.386725
      13A     -1.373291    14A     -1.246341    15A     -1.072981
      16A     -1.034410    17A     -0.926436    18A     -0.882950
      19A     -0.817843    20A     -0.792462    21A     -0.729682
      22A     -0.714455    23A     -0.682988    24A     -0.665364
      25A     -0.640497    26A     -0.634589    27A     -0.609885
      28A     -0.604878    29A     -0.582314    30A     -0.546422
      31A     -0.543630    32A     -0.523752    33A     -0.521766
      34A     -0.519274    35A     -0.497266    36A     -0.489914
      37A     -0.467026    38A     -0.427898    39A     -0.401316

  @DF-RHF Final Energy:  -512.88665574317406

   => Energetics <=

    Nuclear Repulsion Energy =            548.2194361523419275
    One-Electron Energy =               -1788.4526343843681389
    Two-Electron Energy =                 727.3465424888520374
    Total Energy =                       -512.8866557431740603
  Basis Set: (AUG-CC-PVTZ AUX)
    Blend: AUG-CC-PVTZ-RI
    Molecular point group: c1

    Geometry (in Angstrom), charge = 0, multiplicity = 1:

       Center              X                  Y                   Z               Mass
    ------------   -----------------  -----------------  -----------------  -----------------
         O           -1.975895442424     1.667854561629     0.186693471808    15.994914619570
         O            1.650901557576    -1.191606438371    -0.675867528192    15.994914619570
         O           -3.282289442424    -0.043032438371    -0.513057528192    15.994914619570
         N            0.215029557576     0.278707561629     0.296057471808    14.003074004430
         C           -0.939146242424    -0.492659738371    -0.114965028192    12.000000000000
         C           -1.201310442424    -1.685465438371     0.804640471808    12.000000000000
         C            2.593901557576     0.786570561629     0.368847471808    12.000000000000
         C            1.460205557576    -0.143882538371    -0.071082028192    12.000000000000
         C           -2.189483442424     0.371713561629    -0.180043528192    12.000000000000
         C            3.949136557576     0.289426561629    -0.110929528192    12.000000000000
         H           -0.766911442424    -0.861395438371    -1.123794528192     1.007825032230
         H            0.077170557576     1.197351561629     0.698772471808     1.007825032230
         H           -1.368291442424    -1.349360438371     1.831280471808     1.007825032230
         H           -2.076044442424    -2.241867438371     0.461074471808     1.007825032230
         H           -0.323946442424    -2.332422438371     0.776018471808     1.007825032230
         H            2.389526557576     1.796005561629    -0.013658528192     1.007825032230
         H            2.575765557576     0.864358561629     1.462932471808     1.007825032230
         H            4.154505557576    -0.708311438371     0.282618471808     1.007825032230
         H            3.971040557576     0.224802561629    -1.200263528192     1.007825032230
         H            4.741820557576     0.967608561629     0.218148471808     1.007825032230
         H           -2.849523442424     2.105427561629     0.106764471808     1.007825032230

  Basis Set: AUG-CC-PVTZ
    Blend: AUG-CC-PVTZ
  Basis Set: (AUG-CC-PVTZ AUX)
    Blend: AUG-CC-PVTZ-JKFIT
	 Reference Energy          =    -512.8866557431740603 [Eh]
	 Singles Energy            =      -0.0000000000000000 [Eh]
	 Same-Spin Energy          =      -0.5110344566961607 [Eh]
	 Opposite-Spin Energy      =      -1.6143748647050478 [Eh]
	 Correlation Energy        =      -2.1254093214012082 [Eh]
	 Total Energy              =    -515.0120650645752676 [Eh]

	 ================> DF-SCS-MP2 Energies <==================
	-----------------------------------------------------------
	 SCS Same-Spin Scale       =       0.3333333333333333 [-]
	 SCS Opposite-Spin Scale   =       1.2000000000000000 [-]
	 SCS Same-Spin Energy      =      -0.1703448188987202 [Eh]
	 SCS Opposite-Spin Energy  =      -1.9372498376460572 [Eh]
	 SCS Correlation Energy    =      -2.1075946565447774 [Eh]
	 SCS Total Energy          =    -514.9942503997187941 [Eh]
	-----------------------------------------------------------

  Dipole Moment: [D]
     X:    -0.0653      Y:     3.2704      Z:     1.9303     Total:     3.7981

*** Psi4 exiting successfully. Buy a developer a beer!
