                               Psi4 1.3.2 release

  ==> Input File <==

--------------------------------------------------------------------------
#psi4
#
memory 32 gb

molecule  {
0 1
  O       -1.9756670     1.6664010     0.1857370
  O        1.6511300    -1.1930600    -0.6768240
  O       -3.2820610    -0.0444860    -0.5140140
  N        0.2248316     0.2964498     0.3054746
  C       -0.9464590    -0.4858680    -0.1100250
  C       -1.2010820    -1.6869190     0.8036840
  C        2.5763174     0.8012882     0.3790852
  C        1.4652130    -0.1360080    -0.0663740
  C       -2.1892550     0.3702600    -0.1810000
  C        3.9493650     0.2879730    -0.1118860
  H       -0.7666830    -0.8628490    -1.1247510
  H        0.0773990     1.1958980     0.6978160
  H       -1.3680630    -1.3508140     1.8303240
  H       -2.0758160    -2.2433210     0.4601180
  H       -0.3237180    -2.3338760     0.7750620
  H        2.3897550     1.7945520    -0.0146150
  H        2.5759940     0.8629050     1.4619760
  H        4.1547340    -0.7097650     0.2816620
  H        3.9712690     0.2233490    -1.2012200
  H        4.7420490     0.9661550     0.2171920
  H       -2.8492950     2.1039740     0.1058080
units angstrom
no_reorient  #important for SAPT in psi4, default
symmetry c1  #important for SAPT in psi4, default
}

set PROPERTIES_ORIGIN ["COM"]
properties('MP2/aug-cc-pvtz', properties = ['dipole'])
--------------------------------------------------------------------------

    Molecular point group: c1
  Charge       = 0
  Multiplicity = 1
  Basis Set: AUG-CC-PVTZ
    Blend: AUG-CC-PVTZ
  Basis Set: (AUG-CC-PVTZ AUX)
    Blend: AUG-CC-PVTZ-JKFIT

    Orbital Energies [Eh]
    ---------------------

    Doubly Occupied:

       1A    -20.635998     2A    -20.563898     3A    -20.526255
       4A    -15.591413     5A    -11.404768     6A    -11.356651
       7A    -11.297803     8A    -11.245023     9A    -11.227696
      10A    -11.219791    11A     -1.478450    12A     -1.380464
      13A     -1.373633    14A     -1.244170    15A     -1.074150
      16A     -1.033276    17A     -0.927324    18A     -0.884910
      19A     -0.817738    20A     -0.795678    21A     -0.729288
      22A     -0.715340    23A     -0.680840    24A     -0.665873
      25A     -0.642793    26A     -0.633744    27A     -0.610433
      28A     -0.604067    29A     -0.579723    30A     -0.546066
      31A     -0.543564    32A     -0.521805    33A     -0.520787
      34A     -0.514011    35A     -0.500095    36A     -0.489986
      37A     -0.467830    38A     -0.429217    39A     -0.402336

  @DF-RHF Final Energy:  -512.88488388305200

   => Energetics <=

    Nuclear Repulsion Energy =            547.8214856682729987
    One-Electron Energy =               -1787.6589680085683085
    Two-Electron Energy =                 726.9525984572433117
    Total Energy =                       -512.8848838830519981
  Basis Set: (AUG-CC-PVTZ AUX)
    Blend: AUG-CC-PVTZ-RI
    Molecular point group: c1

    Geometry (in Angstrom), charge = 0, multiplicity = 1:

       Center              X                  Y                   Z               Mass
    ------------   -----------------  -----------------  -----------------  -----------------
         O           -1.975117647273     1.663210477204     0.183809943426    15.994914619570
         O            1.651679352727    -1.196250522796    -0.678751056574    15.994914619570
         O           -3.281511647273    -0.047676522796    -0.515941056574    15.994914619570
         N            0.225380952727     0.293259277204     0.303547543426    14.003074004430
         C           -0.945909647273    -0.489058522796    -0.111952056574    12.000000000000
         C           -1.200532647273    -1.690109522796     0.801756943426    12.000000000000
         C            2.576866752727     0.798097677204     0.377158143426    12.000000000000
         C            1.465762352727    -0.139198522796    -0.068301056574    12.000000000000
         C           -2.188705647273     0.367069477204    -0.182927056574    12.000000000000
         C            3.949914352727     0.284782477204    -0.113813056574    12.000000000000
         H           -0.766133647273    -0.866039522796    -1.126678056574     1.007825032230
         H            0.077948352727     1.192707477204     0.695888943426     1.007825032230
         H           -1.367513647273    -1.354004522796     1.828396943426     1.007825032230
         H           -2.075266647273    -2.246511522796     0.458190943426     1.007825032230
         H           -0.323168647273    -2.337066522796     0.773134943426     1.007825032230
         H            2.390304352727     1.791361477204    -0.016542056574     1.007825032230
         H            2.576543352727     0.859714477204     1.460048943426     1.007825032230
         H            4.155283352727    -0.712955522796     0.279734943426     1.007825032230
         H            3.971818352727     0.220158477204    -1.203147056574     1.007825032230
         H            4.742598352727     0.962964477204     0.215264943426     1.007825032230
         H           -2.848745647273     2.100783477204     0.103880943426     1.007825032230

  Basis Set: AUG-CC-PVTZ
    Blend: AUG-CC-PVTZ
  Basis Set: (AUG-CC-PVTZ AUX)
    Blend: AUG-CC-PVTZ-JKFIT
	 Reference Energy          =    -512.8848838830519981 [Eh]
	 Singles Energy            =      -0.0000000000000000 [Eh]
	 Same-Spin Energy          =      -0.5110901394159083 [Eh]
	 Opposite-Spin Energy      =      -1.6148399548820653 [Eh]
	 Correlation Energy        =      -2.1259300942979737 [Eh]
	 Total Energy              =    -515.0108139773499261 [Eh]

	 ================> DF-SCS-MP2 Energies <==================
	-----------------------------------------------------------
	 SCS Same-Spin Scale       =       0.3333333333333333 [-]
	 SCS Opposite-Spin Scale   =       1.2000000000000000 [-]
	 SCS Same-Spin Energy      =      -0.1703633798053028 [Eh]
	 SCS Opposite-Spin Energy  =      -1.9378079458584783 [Eh]
	 SCS Correlation Energy    =      -2.1081713256637808 [Eh]
	 SCS Total Energy          =    -514.9930552087157594 [Eh]
	-----------------------------------------------------------

  Dipole Moment: [D]
     X:    -0.0992      Y:     3.2706      Z:     1.9469     Total:     3.8075

*** Psi4 exiting successfully. Buy a developer a beer!
