                               Psi4 1.3.2 release

  ==> Input File <==

--------------------------------------------------------------------------
#psi4
#
memory 32 gb

molecule  {
0 1
  O       -1.9071472     1.6499019     0.1971921
  O        1.6511300    -1.1930600    -0.6768240
  O       -3.2820610    -0.0444860    -0.5140140
  N        0.2152580     0.2772540     0.2951010
  C       -0.9065295    -0.4222049    -0.0853490
  C       -1.2010820    -1.6869190     0.8036840
  C        2.5941300     0.7851170     0.3678910
  C        1.4652130    -0.1360080    -0.0663740
  C       -2.1892550     0.3702600    -0.1810000
  C        3.9493650     0.2879730    -0.1118860
  H       -0.7666830    -0.8628490    -1.1247510
  H        0.0773990     1.1958980     0.6978160
  H       -1.3680630    -1.3508140     1.8303240
  H       -2.0758160    -2.2433210     0.4601180
  H       -0.3237180    -2.3338760     0.7750620
  H        2.3897550     1.7945520    -0.0146150
  H        2.5759940     0.8629050     1.4619760
  H        4.1547340    -0.7097650     0.2816620
  H        3.9712690     0.2233490    -1.2012200
  H        4.7420490     0.9661550     0.2171920
  H       -2.8492950     2.1039740     0.1058080
units angstrom
no_reorient  #important for SAPT in psi4, default
symmetry c1  #important for SAPT in psi4, default
}

set PROPERTIES_ORIGIN ["COM"]
properties('MP2/aug-cc-pvtz', properties = ['dipole'])
--------------------------------------------------------------------------

    Molecular point group: c1
  Charge       = 0
  Multiplicity = 1
  Basis Set: AUG-CC-PVTZ
    Blend: AUG-CC-PVTZ
  Basis Set: (AUG-CC-PVTZ AUX)
    Blend: AUG-CC-PVTZ-JKFIT

    Orbital Energies [Eh]
    ---------------------

    Doubly Occupied:

       1A    -20.642376     2A    -20.566834     3A    -20.527051
       4A    -15.593151     5A    -11.405179     6A    -11.358529
       7A    -11.291902     8A    -11.249154     9A    -11.225130
      10A    -11.220539    11A     -1.472388    12A     -1.384618
      13A     -1.372893    14A     -1.261224    15A     -1.072774
      16A     -1.029689    17A     -0.924072    18A     -0.886410
      19A     -0.806924    20A     -0.798913    21A     -0.735273
      22A     -0.710214    23A     -0.686675    24A     -0.663843
      25A     -0.642352    26A     -0.634405    27A     -0.605894
      28A     -0.600438    29A     -0.581962    30A     -0.545591
      31A     -0.536762    32A     -0.528821    33A     -0.520771
      34A     -0.514541    35A     -0.499732    36A     -0.485973
      37A     -0.464845    38A     -0.431480    39A     -0.394030

  @DF-RHF Final Energy:  -512.86642691217855

   => Energetics <=

    Nuclear Repulsion Energy =            549.5479172369142589
    One-Electron Energy =               -1791.0819831226642691
    Two-Electron Energy =                 728.6676389735713428
    Total Energy =                       -512.8664269121785537
  Basis Set: (AUG-CC-PVTZ AUX)
    Blend: AUG-CC-PVTZ-RI
    Molecular point group: c1

    Geometry (in Angstrom), charge = 0, multiplicity = 1:

       Center              X                  Y                   Z               Mass
    ------------   -----------------  -----------------  -----------------  -----------------
         O           -1.918004542749     1.646454949977     0.193888209500    15.994914619570
         O            1.640272657251    -1.196506950023    -0.680127890500    15.994914619570
         O           -3.292918342749    -0.047932950023    -0.517317890500    15.994914619570
         N            0.204400657251     0.273807049977     0.291797109500    14.003074004430
         C           -0.917386842749    -0.425651850023    -0.088652890500    12.000000000000
         C           -1.211939342749    -1.690365950023     0.800380109500    12.000000000000
         C            2.583272657251     0.781670049977     0.364587109500    12.000000000000
         C            1.454355657251    -0.139454950023    -0.069677890500    12.000000000000
         C           -2.200112342749     0.366813049977    -0.184303890500    12.000000000000
         C            3.938507657251     0.284526049977    -0.115189890500    12.000000000000
         H           -0.777540342749    -0.866295950023    -1.128054890500     1.007825032230
         H            0.066541657251     1.192451049977     0.694512109500     1.007825032230
         H           -1.378920342749    -1.354260950023     1.827020109500     1.007825032230
         H           -2.086673342749    -2.246767950023     0.456814109500     1.007825032230
         H           -0.334575342749    -2.337322950023     0.771758109500     1.007825032230
         H            2.378897657251     1.791105049977    -0.017918890500     1.007825032230
         H            2.565136657251     0.859458049977     1.458672109500     1.007825032230
         H            4.143876657251    -0.713211950023     0.278358109500     1.007825032230
         H            3.960411657251     0.219902049977    -1.204523890500     1.007825032230
         H            4.731191657251     0.962708049977     0.213888109500     1.007825032230
         H           -2.860152342749     2.100527049977     0.102504109500     1.007825032230

  Basis Set: AUG-CC-PVTZ
    Blend: AUG-CC-PVTZ
  Basis Set: (AUG-CC-PVTZ AUX)
    Blend: AUG-CC-PVTZ-JKFIT
	 Reference Energy          =    -512.8664269121785537 [Eh]
	 Singles Energy            =      -0.0000000000000000 [Eh]
	 Same-Spin Energy          =      -0.5139252997276472 [Eh]
	 Opposite-Spin Energy      =      -1.6192608625072671 [Eh]
	 Correlation Energy        =      -2.1331861622349142 [Eh]
	 Total Energy              =    -514.9996130744134462 [Eh]

	 ================> DF-SCS-MP2 Energies <==================
	-----------------------------------------------------------
	 SCS Same-Spin Scale       =       0.3333333333333333 [-]
	 SCS Opposite-Spin Scale   =       1.2000000000000000 [-]
	 SCS Same-Spin Energy      =      -0.1713084332425491 [Eh]
	 SCS Opposite-Spin Energy  =      -1.9431130350087205 [Eh]
	 SCS Correlation Energy    =      -2.1144214682512694 [Eh]
	 SCS Total Energy          =    -514.9808483804298476 [Eh]
	-----------------------------------------------------------

  Dipole Moment: [D]
     X:     0.0528      Y:     3.4865      Z:     1.9475     Total:     3.9939

*** Psi4 exiting successfully. Buy a developer a beer!
