                               Psi4 1.3.2 release

  ==> Input File <==

--------------------------------------------------------------------------
#psi4
#
memory 32 gb

molecule  {
0 1
  O       -1.9756670     1.6664010     0.1857370
  O        1.6511300    -1.1930600    -0.6768240
  O       -3.2820610    -0.0444860    -0.5140140
  N        0.2152580     0.2772540     0.2951010
  C       -0.9464590    -0.4858680    -0.1100250
  C       -1.2010820    -1.6869190     0.8036840
  C        2.5941300     0.7851170     0.3678910
  C        1.4652130    -0.1360080    -0.0663740
  C       -2.1816571     0.3840616    -0.1034883
  C        3.9493650     0.2879730    -0.1118860
  H       -0.7204368    -0.8904056    -1.1046939
  H        0.0773990     1.1958980     0.6978160
  H       -1.3680630    -1.3508140     1.8303240
  H       -2.0758160    -2.2433210     0.4601180
  H       -0.3237180    -2.3338760     0.7750620
  H        2.3897550     1.7945520    -0.0146150
  H        2.5759940     0.8629050     1.4619760
  H        4.1547340    -0.7097650     0.2816620
  H        3.9712690     0.2233490    -1.2012200
  H        4.7420490     0.9661550     0.2171920
  H       -2.8492950     2.1039740     0.1058080
units angstrom
no_reorient  #important for SAPT in psi4, default
symmetry c1  #important for SAPT in psi4, default
}

set PROPERTIES_ORIGIN ["COM"]
properties('MP2/aug-cc-pvtz', properties = ['dipole'])
--------------------------------------------------------------------------

    Molecular point group: c1
  Charge       = 0
  Multiplicity = 1
  Basis Set: AUG-CC-PVTZ
    Blend: AUG-CC-PVTZ
  Basis Set: (AUG-CC-PVTZ AUX)
    Blend: AUG-CC-PVTZ-JKFIT

    Orbital Energies [Eh]
    ---------------------

    Doubly Occupied:

       1A    -20.646497     2A    -20.557420     3A    -20.525496
       4A    -15.592445     5A    -11.408028     6A    -11.356671
       7A    -11.296599     8A    -11.248022     9A    -11.225607
      10A    -11.219877    11A     -1.489829    12A     -1.381557
      13A     -1.356597    14A     -1.246616    15A     -1.075370
      16A     -1.035787    17A     -0.930016    18A     -0.887391
      19A     -0.824123    20A     -0.794997    21A     -0.732521
      22A     -0.717463    23A     -0.683218    24A     -0.668438
      25A     -0.642908    26A     -0.635290    27A     -0.607375
      28A     -0.602100    29A     -0.581433    30A     -0.545530
      31A     -0.541407    32A     -0.524177    33A     -0.520249
      34A     -0.518628    35A     -0.494197    36A     -0.480701
      37A     -0.466771    38A     -0.429174    39A     -0.399001

  @DF-RHF Final Energy:  -512.87834897841788

   => Energetics <=

    Nuclear Repulsion Energy =            548.3234970411963332
    One-Electron Energy =               -1788.6246393594315123
    Two-Electron Energy =                 727.4227933398173036
    Total Energy =                       -512.8783489784178755
  Basis Set: (AUG-CC-PVTZ AUX)
    Blend: AUG-CC-PVTZ-RI
    Molecular point group: c1

    Geometry (in Angstrom), charge = 0, multiplicity = 1:

       Center              X                  Y                   Z               Mass
    ------------   -----------------  -----------------  -----------------  -----------------
         O           -1.976616705745     1.665450767528     0.179186356480    15.994914619570
         O            1.650180294255    -1.194010232472    -0.683374643520    15.994914619570
         O           -3.283010705745    -0.045436232472    -0.520564643520    15.994914619570
         N            0.214308294255     0.276303767528     0.288550356480    14.003074004430
         C           -0.947408705745    -0.486818232472    -0.116575643520    12.000000000000
         C           -1.202031705745    -1.687869232472     0.797133356480    12.000000000000
         C            2.593180294255     0.784166767528     0.361340356480    12.000000000000
         C            1.464263294255    -0.136958232472    -0.072924643520    12.000000000000
         C           -2.182606805745     0.383111367528    -0.110038943520    12.000000000000
         C            3.948415294255     0.287022767528    -0.118436643520    12.000000000000
         H           -0.721386505745    -0.891355832472    -1.111244543520     1.007825032230
         H            0.076449294255     1.194947767528     0.691265356480     1.007825032230
         H           -1.369012705745    -1.351764232472     1.823773356480     1.007825032230
         H           -2.076765705745    -2.244271232472     0.453567356480     1.007825032230
         H           -0.324667705745    -2.334826232472     0.768511356480     1.007825032230
         H            2.388805294255     1.793601767528    -0.021165643520     1.007825032230
         H            2.575044294255     0.861954767528     1.455425356480     1.007825032230
         H            4.153784294255    -0.710715232472     0.275111356480     1.007825032230
         H            3.970319294255     0.222398767528    -1.207770643520     1.007825032230
         H            4.741099294255     0.965204767528     0.210641356480     1.007825032230
         H           -2.850244705745     2.103023767528     0.099257356480     1.007825032230

  Basis Set: AUG-CC-PVTZ
    Blend: AUG-CC-PVTZ
  Basis Set: (AUG-CC-PVTZ AUX)
    Blend: AUG-CC-PVTZ-JKFIT
	 Reference Energy          =    -512.8783489784178755 [Eh]
	 Singles Energy            =      -0.0000000000000000 [Eh]
	 Same-Spin Energy          =      -0.5121326279732390 [Eh]
	 Opposite-Spin Energy      =      -1.6163422941481191 [Eh]
	 Correlation Energy        =      -2.1284749221213581 [Eh]
	 Total Energy              =    -515.0068239005391888 [Eh]

	 ================> DF-SCS-MP2 Energies <==================
	-----------------------------------------------------------
	 SCS Same-Spin Scale       =       0.3333333333333333 [-]
	 SCS Opposite-Spin Scale   =       1.2000000000000000 [-]
	 SCS Same-Spin Energy      =      -0.1707108759910796 [Eh]
	 SCS Opposite-Spin Energy  =      -1.9396107529777429 [Eh]
	 SCS Correlation Energy    =      -2.1103216289688227 [Eh]
	 SCS Total Energy          =    -514.9886706073866662 [Eh]
	-----------------------------------------------------------

  Dipole Moment: [D]
     X:     0.0907      Y:     3.5403      Z:     2.1121     Total:     4.1235

*** Psi4 exiting successfully. Buy a developer a beer!
