                               Psi4 1.3.2 release

  ==> Input File <==

--------------------------------------------------------------------------
#psi4
#
memory 32 gb

molecule  {
0 1
  O       -1.9756670     1.6664010     0.1857370
  O        1.6511300    -1.1930600    -0.6768240
  O       -3.2820610    -0.0444860    -0.5140140
  N        0.2152580     0.2772540     0.2951010
  C       -0.9464590    -0.4858680    -0.1100250
  C       -1.2010820    -1.6869190     0.8036840
  C        2.5941300     0.7851170     0.3678910
  C        1.4593349    -0.1258168    -0.0725074
  C       -2.1892550     0.3702600    -0.1810000
  C        3.9493650     0.2879730    -0.1118860
  H       -0.7666830    -0.8628490    -1.1247510
  H        0.0773990     1.1958980     0.6978160
  H       -1.3680630    -1.3508140     1.8303240
  H       -2.0758160    -2.2433210     0.4601180
  H       -0.3237180    -2.3338760     0.7750620
  H        2.3816507     1.7913504    -0.0186138
  H        2.5759940     0.8629050     1.4619760
  H        4.1547340    -0.7097650     0.2816620
  H        3.9712690     0.2233490    -1.2012200
  H        4.7420490     0.9661550     0.2171920
  H       -2.8492950     2.1039740     0.1058080
units angstrom
no_reorient  #important for SAPT in psi4, default
symmetry c1  #important for SAPT in psi4, default
}

set PROPERTIES_ORIGIN ["COM"]
properties('MP2/aug-cc-pvtz', properties = ['dipole'])
--------------------------------------------------------------------------

    Molecular point group: c1
  Charge       = 0
  Multiplicity = 1
  Basis Set: AUG-CC-PVTZ
    Blend: AUG-CC-PVTZ
  Basis Set: (AUG-CC-PVTZ AUX)
    Blend: AUG-CC-PVTZ-JKFIT

    Orbital Energies [Eh]
    ---------------------

    Doubly Occupied:

       1A    -20.636445     2A    -20.564224     3A    -20.522817
       4A    -15.593859     5A    -11.405223     6A    -11.355808
       7A    -11.297119     8A    -11.247653     9A    -11.227212
      10A    -11.219412    11A     -1.478904    12A     -1.376881
      13A     -1.373858    14A     -1.246686    15A     -1.075457
      16A     -1.036145    17A     -0.928315    18A     -0.885758
      19A     -0.817365    20A     -0.793748    21A     -0.731384
      22A     -0.714999    23A     -0.682386    24A     -0.665801
      25A     -0.641285    26A     -0.633174    27A     -0.610730
      28A     -0.601477    29A     -0.580687    30A     -0.546921
      31A     -0.543896    32A     -0.524142    33A     -0.520327
      34A     -0.518566    35A     -0.497763    36A     -0.487374
      37A     -0.468197    38A     -0.427808    39A     -0.400560

  @DF-RHF Final Energy:  -512.88531803672470

   => Energetics <=

    Nuclear Repulsion Energy =            548.2228594924366689
    One-Electron Energy =               -1788.4556239301330152
    Two-Electron Energy =                 727.3474464009717622
    Total Energy =                       -512.8853180367246978
  Basis Set: (AUG-CC-PVTZ AUX)
    Blend: AUG-CC-PVTZ-RI
    Molecular point group: c1

    Geometry (in Angstrom), charge = 0, multiplicity = 1:

       Center              X                  Y                   Z               Mass
    ------------   -----------------  -----------------  -----------------  -----------------
         O           -1.975124446941     1.665580213433     0.186272299480    15.994914619570
         O            1.651672553059    -1.193880786567    -0.676288700520    15.994914619570
         O           -3.281518446941    -0.045306786567    -0.513478700520    15.994914619570
         N            0.215800553059     0.276433213433     0.295636299480    14.003074004430
         C           -0.945916446941    -0.486688786567    -0.109489700520    12.000000000000
         C           -1.200539446941    -1.687739786567     0.804219299480    12.000000000000
         C            2.594672553059     0.784296213433     0.368426299480    12.000000000000
         C            1.459877453059    -0.126637586567    -0.071972100520    12.000000000000
         C           -2.188712446941     0.369439213433    -0.180464700520    12.000000000000
         C            3.949907553059     0.287152213433    -0.111350700520    12.000000000000
         H           -0.766140446941    -0.863669786567    -1.124215700520     1.007825032230
         H            0.077941553059     1.195077213433     0.698351299480     1.007825032230
         H           -1.367520446941    -1.351634786567     1.830859299480     1.007825032230
         H           -2.075273446941    -2.244141786567     0.460653299480     1.007825032230
         H           -0.323175446941    -2.334696786567     0.775597299480     1.007825032230
         H            2.382193253059     1.790529613433    -0.018078500520     1.007825032230
         H            2.576536553059     0.862084213433     1.462511299480     1.007825032230
         H            4.155276553059    -0.710585786567     0.282197299480     1.007825032230
         H            3.971811553059     0.222528213433    -1.200684700520     1.007825032230
         H            4.742591553059     0.965334213433     0.217727299480     1.007825032230
         H           -2.848752446941     2.103153213433     0.106343299480     1.007825032230

  Basis Set: AUG-CC-PVTZ
    Blend: AUG-CC-PVTZ
  Basis Set: (AUG-CC-PVTZ AUX)
    Blend: AUG-CC-PVTZ-JKFIT
	 Reference Energy          =    -512.8853180367246978 [Eh]
	 Singles Energy            =      -0.0000000000000000 [Eh]
	 Same-Spin Energy          =      -0.5114945861722554 [Eh]
	 Opposite-Spin Energy      =      -1.6152040540797248 [Eh]
	 Correlation Energy        =      -2.1266986402519801 [Eh]
	 Total Energy              =    -515.0120166769767138 [Eh]

	 ================> DF-SCS-MP2 Energies <==================
	-----------------------------------------------------------
	 SCS Same-Spin Scale       =       0.3333333333333333 [-]
	 SCS Opposite-Spin Scale   =       1.2000000000000000 [-]
	 SCS Same-Spin Energy      =      -0.1704981953907518 [Eh]
	 SCS Opposite-Spin Energy  =      -1.9382448648956696 [Eh]
	 SCS Correlation Energy    =      -2.1087430602864212 [Eh]
	 SCS Total Energy          =    -514.9940610970111265 [Eh]
	-----------------------------------------------------------

  Dipole Moment: [D]
     X:    -0.0999      Y:     3.3434      Z:     1.9774     Total:     3.8857

*** Psi4 exiting successfully. Buy a developer a beer!
