                               Psi4 1.3.2 release

  ==> Input File <==

--------------------------------------------------------------------------
#psi4
#
memory 32 gb

molecule  {
0 1
  O       -1.9756670     1.6664010     0.1857370
  O        1.6511300    -1.1930600    -0.6768240
  O       -3.2560238    -0.1020325    -0.5217076
  N        0.2152580     0.2772540     0.2951010
  C       -0.9900490    -0.5474582    -0.1337489
  C       -1.2010820    -1.6869190     0.8036840
  C        2.5941300     0.7851170     0.3678910
  C        1.4652130    -0.1360080    -0.0663740
  C       -2.1892550     0.3702600    -0.1810000
  C        3.9493650     0.2879730    -0.1118860
  H       -0.7666830    -0.8628490    -1.1247510
  H        0.0773990     1.1958980     0.6978160
  H       -1.3680630    -1.3508140     1.8303240
  H       -2.0758160    -2.2433210     0.4601180
  H       -0.3237180    -2.3338760     0.7750620
  H        2.3897550     1.7945520    -0.0146150
  H        2.5759940     0.8629050     1.4619760
  H        4.1547340    -0.7097650     0.2816620
  H        3.9712690     0.2233490    -1.2012200
  H        4.7420490     0.9661550     0.2171920
  H       -2.8492950     2.1039740     0.1058080
units angstrom
no_reorient  #important for SAPT in psi4, default
symmetry c1  #important for SAPT in psi4, default
}

set PROPERTIES_ORIGIN ["COM"]
properties('MP2/aug-cc-pvtz', properties = ['dipole'])
--------------------------------------------------------------------------

    Molecular point group: c1
  Charge       = 0
  Multiplicity = 1
  Basis Set: AUG-CC-PVTZ
    Blend: AUG-CC-PVTZ
  Basis Set: (AUG-CC-PVTZ AUX)
    Blend: AUG-CC-PVTZ-JKFIT

    Orbital Energies [Eh]
    ---------------------

    Doubly Occupied:

       1A    -20.643547     2A    -20.565664     3A    -20.519684
       4A    -15.586553     5A    -11.406292     6A    -11.351050
       7A    -11.296518     8A    -11.244265     9A    -11.225676
      10A    -11.217146    11A     -1.480283    12A     -1.380308
      13A     -1.374627    14A     -1.227865    15A     -1.075874
      16A     -1.037244    17A     -0.927578    18A     -0.881052
      19A     -0.819990    20A     -0.784990    21A     -0.725749
      22A     -0.717754    23A     -0.676936    24A     -0.667835
      25A     -0.639292    26A     -0.633793    27A     -0.614214
      28A     -0.600176    29A     -0.578745    30A     -0.550869
      31A     -0.543201    32A     -0.524625    33A     -0.516725
      34A     -0.515363    35A     -0.497910    36A     -0.489364
      37A     -0.467612    38A     -0.423337    39A     -0.399136

  @DF-RHF Final Energy:  -512.87883778147409

   => Energetics <=

    Nuclear Repulsion Energy =            547.7440750832121239
    One-Electron Energy =               -1787.5881386494743310
    Two-Electron Energy =                 726.9652257847882311
    Total Energy =                       -512.8788377814740898
  Basis Set: (AUG-CC-PVTZ AUX)
    Blend: AUG-CC-PVTZ-RI
    Molecular point group: c1

    Geometry (in Angstrom), charge = 0, multiplicity = 1:

       Center              X                  Y                   Z               Mass
    ------------   -----------------  -----------------  -----------------  -----------------
         O           -1.974932046420     1.677840182902     0.188547790798    15.994914619570
         O            1.651864953580    -1.181620817098    -0.674013209202    15.994914619570
         O           -3.255288846420    -0.090593317098    -0.518896809202    15.994914619570
         N            0.215992953580     0.288693182902     0.297911790798    14.003074004430
         C           -0.989314046420    -0.536019017098    -0.130938109202    12.000000000000
         C           -1.200347046420    -1.675479817098     0.806494790798    12.000000000000
         C            2.594864953580     0.796556182902     0.370701790798    12.000000000000
         C            1.465947953580    -0.124568817098    -0.063563209202    12.000000000000
         C           -2.188520046420     0.381699182902    -0.178189209202    12.000000000000
         C            3.950099953580     0.299412182902    -0.109075209202    12.000000000000
         H           -0.765948046420    -0.851409817098    -1.121940209202     1.007825032230
         H            0.078133953580     1.207337182902     0.700626790798     1.007825032230
         H           -1.367328046420    -1.339374817098     1.833134790798     1.007825032230
         H           -2.075081046420    -2.231881817098     0.462928790798     1.007825032230
         H           -0.322983046420    -2.322436817098     0.777872790798     1.007825032230
         H            2.390489953580     1.805991182902    -0.011804209202     1.007825032230
         H            2.576728953580     0.874344182902     1.464786790798     1.007825032230
         H            4.155468953580    -0.698325817098     0.284472790798     1.007825032230
         H            3.972003953580     0.234788182902    -1.198409209202     1.007825032230
         H            4.742783953580     0.977594182902     0.220002790798     1.007825032230
         H           -2.848560046420     2.115413182902     0.108618790798     1.007825032230

  Basis Set: AUG-CC-PVTZ
    Blend: AUG-CC-PVTZ
  Basis Set: (AUG-CC-PVTZ AUX)
    Blend: AUG-CC-PVTZ-JKFIT
	 Reference Energy          =    -512.8788377814740898 [Eh]
	 Singles Energy            =      -0.0000000000000000 [Eh]
	 Same-Spin Energy          =      -0.5112967915359986 [Eh]
	 Opposite-Spin Energy      =      -1.6155184063114911 [Eh]
	 Correlation Energy        =      -2.1268151978474896 [Eh]
	 Total Energy              =    -515.0056529793215532 [Eh]

	 ================> DF-SCS-MP2 Energies <==================
	-----------------------------------------------------------
	 SCS Same-Spin Scale       =       0.3333333333333333 [-]
	 SCS Opposite-Spin Scale   =       1.2000000000000000 [-]
	 SCS Same-Spin Energy      =      -0.1704322638453329 [Eh]
	 SCS Opposite-Spin Energy  =      -1.9386220875737892 [Eh]
	 SCS Correlation Energy    =      -2.1090543514191222 [Eh]
	 SCS Total Energy          =    -514.9878921328931938 [Eh]
	-----------------------------------------------------------

  Dipole Moment: [D]
     X:    -0.4275      Y:     3.3765      Z:     1.9647     Total:     3.9298

*** Psi4 exiting successfully. Buy a developer a beer!
