                               Psi4 1.3.2 release

  ==> Input File <==

--------------------------------------------------------------------------
#psi4
#
memory 32 gb

molecule  {
0 1
  O       -1.9756670     1.6664010     0.1857370
  O        1.6511300    -1.1930600    -0.6768240
  O       -3.2820610    -0.0444860    -0.5140140
  N        0.2152580     0.2772540     0.2951010
  C       -0.9464590    -0.4858680    -0.1100250
  C       -1.2010820    -1.6869190     0.8036840
  C        2.5941300     0.7851170     0.3678910
  C        1.4464677    -0.1773998    -0.0807313
  C       -2.1892550     0.3702600    -0.1810000
  C        3.9493650     0.2879730    -0.1118860
  H       -0.7666830    -0.8628490    -1.1247510
  H        0.0428227     1.1889878     0.7001922
  H       -1.3680630    -1.3508140     1.8303240
  H       -2.0758160    -2.2433210     0.4601180
  H       -0.3237180    -2.3338760     0.7750620
  H        2.3897550     1.7945520    -0.0146150
  H        2.5759940     0.8629050     1.4619760
  H        4.1547340    -0.7097650     0.2816620
  H        3.9712690     0.2233490    -1.2012200
  H        4.7420490     0.9661550     0.2171920
  H       -2.8492950     2.1039740     0.1058080
units angstrom
no_reorient  #important for SAPT in psi4, default
symmetry c1  #important for SAPT in psi4, default
}

set PROPERTIES_ORIGIN ["COM"]
properties('MP2/aug-cc-pvtz', properties = ['dipole'])
--------------------------------------------------------------------------

    Molecular point group: c1
  Charge       = 0
  Multiplicity = 1
  Basis Set: AUG-CC-PVTZ
    Blend: AUG-CC-PVTZ
  Basis Set: (AUG-CC-PVTZ AUX)
    Blend: AUG-CC-PVTZ-JKFIT

    Orbital Energies [Eh]
    ---------------------

    Doubly Occupied:

       1A    -20.636507     2A    -20.563819     3A    -20.530605
       4A    -15.589616     5A    -11.404600     6A    -11.354001
       7A    -11.294737     8A    -11.244185     9A    -11.227245
      10A    -11.217110    11A     -1.478846    12A     -1.405695
      13A     -1.373814    14A     -1.249166    15A     -1.068658
      16A     -1.031595    17A     -0.927512    18A     -0.878171
      19A     -0.817084    20A     -0.795647    21A     -0.729287
      22A     -0.715016    23A     -0.683679    24A     -0.665603
      25A     -0.639010    26A     -0.636629    27A     -0.610591
      28A     -0.609014    29A     -0.583440    30A     -0.546597
      31A     -0.546314    32A     -0.523826    33A     -0.522544
      34A     -0.517848    35A     -0.496701    36A     -0.492637
      37A     -0.468579    38A     -0.424397    39A     -0.403063

  @DF-RHF Final Energy:  -512.88549192829134

   => Energetics <=

    Nuclear Repulsion Energy =            548.6053541760601320
    One-Electron Energy =               -1789.1749198807406174
    Two-Electron Energy =                 727.6840737763890274
    Total Energy =                       -512.8854919282913443
  Basis Set: (AUG-CC-PVTZ AUX)
    Blend: AUG-CC-PVTZ-RI
    Molecular point group: c1

    Geometry (in Angstrom), charge = 0, multiplicity = 1:

       Center              X                  Y                   Z               Mass
    ------------   -----------------  -----------------  -----------------  -----------------
         O           -1.973876217227     1.669872740545     0.186908264459    15.994914619570
         O            1.652920782773    -1.189588259455    -0.675652735541    15.994914619570
         O           -3.280270217227    -0.041014259455    -0.512842735541    15.994914619570
         N            0.217048782773     0.280725740545     0.296272264459    14.003074004430
         C           -0.944668217227    -0.482396259455    -0.108853735541    12.000000000000
         C           -1.199291217227    -1.683447259455     0.804855264459    12.000000000000
         C            2.595920782773     0.788588740545     0.369062264459    12.000000000000
         C            1.448258482773    -0.173928059455    -0.079560035541    12.000000000000
         C           -2.187464217227     0.373731740545    -0.179828735541    12.000000000000
         C            3.951155782773     0.291444740545    -0.110714735541    12.000000000000
         H           -0.764892217227    -0.859377259455    -1.123579735541     1.007825032230
         H            0.044613482773     1.192459540545     0.701363464459     1.007825032230
         H           -1.366272217227    -1.347342259455     1.831495264459     1.007825032230
         H           -2.074025217227    -2.239849259455     0.461289264459     1.007825032230
         H           -0.321927217227    -2.330404259455     0.776233264459     1.007825032230
         H            2.391545782773     1.798023740545    -0.013443735541     1.007825032230
         H            2.577784782773     0.866376740545     1.463147264459     1.007825032230
         H            4.156524782773    -0.706293259455     0.282833264459     1.007825032230
         H            3.973059782773     0.226820740545    -1.200048735541     1.007825032230
         H            4.743839782773     0.969626740545     0.218363264459     1.007825032230
         H           -2.847504217227     2.107445740545     0.106979264459     1.007825032230

  Basis Set: AUG-CC-PVTZ
    Blend: AUG-CC-PVTZ
  Basis Set: (AUG-CC-PVTZ AUX)
    Blend: AUG-CC-PVTZ-JKFIT
	 Reference Energy          =    -512.8854919282913443 [Eh]
	 Singles Energy            =      -0.0000000000000000 [Eh]
	 Same-Spin Energy          =      -0.5105404283213225 [Eh]
	 Opposite-Spin Energy      =      -1.6133426218810993 [Eh]
	 Correlation Energy        =      -2.1238830502024220 [Eh]
	 Total Energy              =    -515.0093749784937245 [Eh]

	 ================> DF-SCS-MP2 Energies <==================
	-----------------------------------------------------------
	 SCS Same-Spin Scale       =       0.3333333333333333 [-]
	 SCS Opposite-Spin Scale   =       1.2000000000000000 [-]
	 SCS Same-Spin Energy      =      -0.1701801427737742 [Eh]
	 SCS Opposite-Spin Energy  =      -1.9360111462573191 [Eh]
	 SCS Correlation Energy    =      -2.1061912890310932 [Eh]
	 SCS Total Energy          =    -514.9916832173224748 [Eh]
	-----------------------------------------------------------

  Dipole Moment: [D]
     X:    -0.1406      Y:     3.1224      Z:     1.8582     Total:     3.6362

*** Psi4 exiting successfully. Buy a developer a beer!
