                               Psi4 1.3.2 release

  ==> Input File <==

--------------------------------------------------------------------------
#psi4
#
memory 32 gb

molecule  {
0 1
  O       -1.9756670     1.6664010     0.1857370
  O        1.6511300    -1.1930600    -0.6768240
  O       -3.2820610    -0.0444860    -0.5140140
  N        0.2152580     0.2772540     0.2951010
  C       -0.9464590    -0.4858680    -0.1100250
  C       -1.2259548    -1.6781420     0.8078995
  C        2.5941300     0.7851170     0.3678910
  C        1.4652130    -0.1360080    -0.0663740
  C       -2.2014581     0.3534892    -0.1647179
  C        3.9493650     0.2879730    -0.1118860
  H       -0.7666830    -0.8628490    -1.1247510
  H        0.0773990     1.1958980     0.6978160
  H       -1.3680630    -1.3508140     1.8303240
  H       -2.0758160    -2.2433210     0.4601180
  H       -0.3237180    -2.3338760     0.7750620
  H        2.3897550     1.7945520    -0.0146150
  H        2.5759940     0.8629050     1.4619760
  H        4.1547340    -0.7097650     0.2816620
  H        3.9712690     0.2233490    -1.2012200
  H        4.7420490     0.9661550     0.2171920
  H       -2.8492950     2.1039740     0.1058080
units angstrom
no_reorient  #important for SAPT in psi4, default
symmetry c1  #important for SAPT in psi4, default
}

set PROPERTIES_ORIGIN ["COM"]
properties('MP2/aug-cc-pvtz', properties = ['dipole'])
--------------------------------------------------------------------------

    Molecular point group: c1
  Charge       = 0
  Multiplicity = 1
  Basis Set: AUG-CC-PVTZ
    Blend: AUG-CC-PVTZ
  Basis Set: (AUG-CC-PVTZ AUX)
    Blend: AUG-CC-PVTZ-JKFIT

    Orbital Energies [Eh]
    ---------------------

    Doubly Occupied:

       1A    -20.631619     2A    -20.566287     3A    -20.524539
       4A    -15.592683     5A    -11.403535     6A    -11.356206
       7A    -11.296648     8A    -11.247506     9A    -11.226985
      10A    -11.219439    11A     -1.475813    12A     -1.380861
      13A     -1.377229    14A     -1.245088    15A     -1.075326
      16A     -1.036447    17A     -0.925774    18A     -0.884669
      19A     -0.814269    20A     -0.791388    21A     -0.730404
      22A     -0.713933    23A     -0.682801    24A     -0.665143
      25A     -0.640874    26A     -0.633946    27A     -0.611198
      28A     -0.603519    29A     -0.581697    30A     -0.550239
      31A     -0.538577    32A     -0.525228    33A     -0.520276
      34A     -0.519108    35A     -0.499343    36A     -0.489690
      37A     -0.468069    38A     -0.428742    39A     -0.400253

  @DF-RHF Final Energy:  -512.88507993807252

   => Energetics <=

    Nuclear Repulsion Energy =            548.1768316664810072
    One-Electron Energy =               -1788.3731296835724152
    Two-Electron Energy =                 727.3112180790189996
    Total Energy =                       -512.8850799380725221
  Basis Set: (AUG-CC-PVTZ AUX)
    Blend: AUG-CC-PVTZ-RI
    Molecular point group: c1

    Geometry (in Angstrom), charge = 0, multiplicity = 1:

       Center              X                  Y                   Z               Mass
    ------------   -----------------  -----------------  -----------------  -----------------
         O           -1.972600175513     1.667062170956     0.184041697657    15.994914619570
         O            1.654196824487    -1.192398829044    -0.678519302343    15.994914619570
         O           -3.278994175513    -0.043824829044    -0.515709302343    15.994914619570
         N            0.218324824487     0.277915170956     0.293405697657    14.003074004430
         C           -0.943392175513    -0.485206829044    -0.111720302343    12.000000000000
         C           -1.222887975513    -1.677480829044     0.806204197657    12.000000000000
         C            2.597196824487     0.785778170956     0.366195697657    12.000000000000
         C            1.468279824487    -0.135346829044    -0.068069302343    12.000000000000
         C           -2.198391275513     0.354150370956    -0.166413202343    12.000000000000
         C            3.952431824487     0.288634170956    -0.113581302343    12.000000000000
         H           -0.763616175513    -0.862187829044    -1.126446302343     1.007825032230
         H            0.080465824487     1.196559170956     0.696120697657     1.007825032230
         H           -1.364996175513    -1.350152829044     1.828628697657     1.007825032230
         H           -2.072749175513    -2.242659829044     0.458422697657     1.007825032230
         H           -0.320651175513    -2.333214829044     0.773366697657     1.007825032230
         H            2.392821824487     1.795213170956    -0.016310302343     1.007825032230
         H            2.579060824487     0.863566170956     1.460280697657     1.007825032230
         H            4.157800824487    -0.709103829044     0.279966697657     1.007825032230
         H            3.974335824487     0.224010170956    -1.202915302343     1.007825032230
         H            4.745115824487     0.966816170956     0.215496697657     1.007825032230
         H           -2.846228175513     2.104635170956     0.104112697657     1.007825032230

  Basis Set: AUG-CC-PVTZ
    Blend: AUG-CC-PVTZ
  Basis Set: (AUG-CC-PVTZ AUX)
    Blend: AUG-CC-PVTZ-JKFIT
	 Reference Energy          =    -512.8850799380725221 [Eh]
	 Singles Energy            =      -0.0000000000000000 [Eh]
	 Same-Spin Energy          =      -0.5112889804415108 [Eh]
	 Opposite-Spin Energy      =      -1.6148475454517934 [Eh]
	 Correlation Energy        =      -2.1261365258933043 [Eh]
	 Total Energy              =    -515.0112164639658658 [Eh]

	 ================> DF-SCS-MP2 Energies <==================
	-----------------------------------------------------------
	 SCS Same-Spin Scale       =       0.3333333333333333 [-]
	 SCS Opposite-Spin Scale   =       1.2000000000000000 [-]
	 SCS Same-Spin Energy      =      -0.1704296601471703 [Eh]
	 SCS Opposite-Spin Energy  =      -1.9378170545421520 [Eh]
	 SCS Correlation Energy    =      -2.1082467146893222 [Eh]
	 SCS Total Energy          =    -514.9933266527618798 [Eh]
	-----------------------------------------------------------

  Dipole Moment: [D]
     X:    -0.0945      Y:     3.2127      Z:     1.9492     Total:     3.7590

*** Psi4 exiting successfully. Buy a developer a beer!
