                               Psi4 1.3.2 release

  ==> Input File <==

--------------------------------------------------------------------------
#psi4
#
memory 32 gb

molecule  {
0 1
  O       -1.9756670     1.6664010     0.1857370
  O        1.6511300    -1.1930600    -0.6768240
  O       -3.2820610    -0.0444860    -0.5140140
  N        0.2152580     0.2772540     0.2951010
  C       -0.9464590    -0.4858680    -0.1100250
  C       -1.1994949    -1.6951131     0.7932577
  C        2.5941300     0.7851170     0.3678910
  C        1.4652130    -0.1360080    -0.0663740
  C       -2.1892550     0.3702600    -0.1810000
  C        3.9493650     0.2879730    -0.1118860
  H       -0.7678543    -0.8718099    -1.1215843
  H        0.0773990     1.1958980     0.6978160
  H       -1.3680630    -1.3508140     1.8303240
  H       -2.0758160    -2.2433210     0.4601180
  H       -0.3237180    -2.3338760     0.7750620
  H        2.3897550     1.7945520    -0.0146150
  H        2.5759940     0.8629050     1.4619760
  H        4.1547340    -0.7097650     0.2816620
  H        3.9712690     0.2233490    -1.2012200
  H        4.7420490     0.9661550     0.2171920
  H       -2.8492950     2.1039740     0.1058080
units angstrom
no_reorient  #important for SAPT in psi4, default
symmetry c1  #important for SAPT in psi4, default
}

set PROPERTIES_ORIGIN ["COM"]
properties('MP2/aug-cc-pvtz', properties = ['dipole'])
--------------------------------------------------------------------------

    Molecular point group: c1
  Charge       = 0
  Multiplicity = 1
  Basis Set: AUG-CC-PVTZ
    Blend: AUG-CC-PVTZ
  Basis Set: (AUG-CC-PVTZ AUX)
    Blend: AUG-CC-PVTZ-JKFIT

    Orbital Energies [Eh]
    ---------------------

    Doubly Occupied:

       1A    -20.636065     2A    -20.563871     3A    -20.524700
       4A    -15.592622     5A    -11.404956     6A    -11.356246
       7A    -11.296362     8A    -11.247623     9A    -11.226937
      10A    -11.219551    11A     -1.478502    12A     -1.380760
      13A     -1.373612    14A     -1.245361    15A     -1.074963
      16A     -1.035767    17A     -0.927875    18A     -0.885463
      19A     -0.816464    20A     -0.792452    21A     -0.731023
      22A     -0.714659    23A     -0.682987    24A     -0.665614
      25A     -0.641317    26A     -0.633388    27A     -0.610366
      28A     -0.602840    29A     -0.580712    30A     -0.548523
      31A     -0.543909    32A     -0.524467    33A     -0.519819
      34A     -0.518243    35A     -0.497798    36A     -0.487723
      37A     -0.467844    38A     -0.428945    39A     -0.400291

  @DF-RHF Final Energy:  -512.88576733931382

   => Energetics <=

    Nuclear Repulsion Energy =            548.1659517025661899
    One-Electron Energy =               -1788.3422024038011386
    Two-Electron Energy =                 727.2904833619211331
    Total Energy =                       -512.8857673393138157
  Basis Set: (AUG-CC-PVTZ AUX)
    Blend: AUG-CC-PVTZ-RI
    Molecular point group: c1

    Geometry (in Angstrom), charge = 0, multiplicity = 1:

       Center              X                  Y                   Z               Mass
    ------------   -----------------  -----------------  -----------------  -----------------
         O           -1.975790105309     1.667140990232     0.186577614439    15.994914619570
         O            1.651006894691    -1.192320009768    -0.675983385561    15.994914619570
         O           -3.282184105309    -0.043746009768    -0.513173385561    15.994914619570
         N            0.215134894691     0.277993990232     0.295941614439    14.003074004430
         C           -0.946582105309    -0.485128009768    -0.109184385561    12.000000000000
         C           -1.199618005309    -1.694373109768     0.794098314439    12.000000000000
         C            2.594006894691     0.785856990232     0.368731614439    12.000000000000
         C            1.465089894691    -0.135268009768    -0.065533385561    12.000000000000
         C           -2.189378105309     0.370999990232    -0.180159385561    12.000000000000
         C            3.949241894691     0.288712990232    -0.111045385561    12.000000000000
         H           -0.767977405309    -0.871069909768    -1.120743685561     1.007825032230
         H            0.077275894691     1.196637990232     0.698656614439     1.007825032230
         H           -1.368186105309    -1.350074009768     1.831164614439     1.007825032230
         H           -2.075939105309    -2.242581009768     0.460958614439     1.007825032230
         H           -0.323841105309    -2.333136009768     0.775902614439     1.007825032230
         H            2.389631894691     1.795291990232    -0.013774385561     1.007825032230
         H            2.575870894691     0.863644990232     1.462816614439     1.007825032230
         H            4.154610894691    -0.709025009768     0.282502614439     1.007825032230
         H            3.971145894691     0.224088990232    -1.200379385561     1.007825032230
         H            4.741925894691     0.966894990232     0.218032614439     1.007825032230
         H           -2.849418105309     2.104713990232     0.106648614439     1.007825032230

  Basis Set: AUG-CC-PVTZ
    Blend: AUG-CC-PVTZ
  Basis Set: (AUG-CC-PVTZ AUX)
    Blend: AUG-CC-PVTZ-JKFIT
	 Reference Energy          =    -512.8857673393138157 [Eh]
	 Singles Energy            =      -0.0000000000000000 [Eh]
	 Same-Spin Energy          =      -0.5113616419276592 [Eh]
	 Opposite-Spin Energy      =      -1.6149551499672439 [Eh]
	 Correlation Energy        =      -2.1263167918949031 [Eh]
	 Total Energy              =    -515.0120841312086668 [Eh]

	 ================> DF-SCS-MP2 Energies <==================
	-----------------------------------------------------------
	 SCS Same-Spin Scale       =       0.3333333333333333 [-]
	 SCS Opposite-Spin Scale   =       1.2000000000000000 [-]
	 SCS Same-Spin Energy      =      -0.1704538806425531 [Eh]
	 SCS Opposite-Spin Energy  =      -1.9379461799606925 [Eh]
	 SCS Correlation Energy    =      -2.1084000606032456 [Eh]
	 SCS Total Energy          =    -514.9941673999170462 [Eh]
	-----------------------------------------------------------

  Dipole Moment: [D]
     X:    -0.0396      Y:     3.3113      Z:     1.9543     Total:     3.8453

*** Psi4 exiting successfully. Buy a developer a beer!
