                               Psi4 1.3.2 release

  ==> Input File <==

--------------------------------------------------------------------------
#psi4
#
memory 32 gb

molecule  {
0 1
  O       -1.9756670     1.6664010     0.1857370
  O        1.6511300    -1.1930600    -0.6768240
  O       -3.2820610    -0.0444860    -0.5140140
  N        0.2260056     0.2723301     0.2727688
  C       -0.9464590    -0.4858680    -0.1100250
  C       -1.2010820    -1.6869190     0.8036840
  C        2.5941300     0.7851170     0.3678910
  C        1.4652130    -0.1360080    -0.0663740
  C       -2.1892550     0.3702600    -0.1810000
  C        3.9493650     0.2879730    -0.1118860
  H       -0.7495391    -0.8543129    -1.1247042
  H        0.0773990     1.1958980     0.6978160
  H       -1.3680630    -1.3508140     1.8303240
  H       -2.0758160    -2.2433210     0.4601180
  H       -0.3237180    -2.3338760     0.7750620
  H        2.3897550     1.7945520    -0.0146150
  H        2.5759940     0.8629050     1.4619760
  H        4.1547340    -0.7097650     0.2816620
  H        3.9712690     0.2233490    -1.2012200
  H        4.7420490     0.9661550     0.2171920
  H       -2.8492950     2.1039740     0.1058080
units angstrom
no_reorient  #important for SAPT in psi4, default
symmetry c1  #important for SAPT in psi4, default
}

set PROPERTIES_ORIGIN ["COM"]
properties('MP2/aug-cc-pvtz', properties = ['dipole'])
--------------------------------------------------------------------------

    Molecular point group: c1
  Charge       = 0
  Multiplicity = 1
  Basis Set: AUG-CC-PVTZ
    Blend: AUG-CC-PVTZ
  Basis Set: (AUG-CC-PVTZ AUX)
    Blend: AUG-CC-PVTZ-JKFIT

    Orbital Energies [Eh]
    ---------------------

    Doubly Occupied:

       1A    -20.636784     2A    -20.564744     3A    -20.520948
       4A    -15.593859     5A    -11.405910     6A    -11.353234
       7A    -11.297048     8A    -11.246962     9A    -11.227808
      10A    -11.218943    11A     -1.479220    12A     -1.380549
      13A     -1.374344    14A     -1.246416    15A     -1.075673
      16A     -1.036085    17A     -0.928920    18A     -0.885096
      19A     -0.816637    20A     -0.793664    21A     -0.731485
      22A     -0.714865    23A     -0.682421    24A     -0.666294
      25A     -0.641444    26A     -0.633074    27A     -0.611327
      28A     -0.600970    29A     -0.581149    30A     -0.547083
      31A     -0.544389    32A     -0.523403    33A     -0.520327
      34A     -0.518549    35A     -0.497744    36A     -0.488069
      37A     -0.468738    38A     -0.427465    39A     -0.399704

  @DF-RHF Final Energy:  -512.88540965863683

   => Energetics <=

    Nuclear Repulsion Energy =            548.4399593600634262
    One-Electron Energy =               -1788.8880474459504057
    Two-Electron Energy =                 727.5626784272500345
    Total Energy =                       -512.8854096586368314
  Basis Set: (AUG-CC-PVTZ AUX)
    Blend: AUG-CC-PVTZ-RI
    Molecular point group: c1

    Geometry (in Angstrom), charge = 0, multiplicity = 1:

       Center              X                  Y                   Z               Mass
    ------------   -----------------  -----------------  -----------------  -----------------
         O           -1.976823459773     1.666816925182     0.187892448958    15.994914619570
         O            1.649973540227    -1.192644074818    -0.674668551042    15.994914619570
         O           -3.283217459773    -0.044070074818    -0.511858551042    15.994914619570
         N            0.224849140227     0.272746025182     0.274924248958    14.003074004430
         C           -0.947615459773    -0.485452074818    -0.107869551042    12.000000000000
         C           -1.202238459773    -1.686503074818     0.805839448958    12.000000000000
         C            2.592973540227     0.785532925182     0.370046448958    12.000000000000
         C            1.464056540227    -0.135592074818    -0.064218551042    12.000000000000
         C           -2.190411459773     0.370675925182    -0.178844551042    12.000000000000
         C            3.948208540227     0.288388925182    -0.109730551042    12.000000000000
         H           -0.750695559773    -0.853896974818    -1.122548751042     1.007825032230
         H            0.076242540227     1.196313925182     0.699971448958     1.007825032230
         H           -1.369219459773    -1.350398074818     1.832479448958     1.007825032230
         H           -2.076972459773    -2.242905074818     0.462273448958     1.007825032230
         H           -0.324874459773    -2.333460074818     0.777217448958     1.007825032230
         H            2.388598540227     1.794967925182    -0.012459551042     1.007825032230
         H            2.574837540227     0.863320925182     1.464131448958     1.007825032230
         H            4.153577540227    -0.709349074818     0.283817448958     1.007825032230
         H            3.970112540227     0.223764925182    -1.199064551042     1.007825032230
         H            4.740892540227     0.966570925182     0.219347448958     1.007825032230
         H           -2.850451459773     2.104389925182     0.107963448958     1.007825032230

  Basis Set: AUG-CC-PVTZ
    Blend: AUG-CC-PVTZ
  Basis Set: (AUG-CC-PVTZ AUX)
    Blend: AUG-CC-PVTZ-JKFIT
	 Reference Energy          =    -512.8854096586368314 [Eh]
	 Singles Energy            =      -0.0000000000000000 [Eh]
	 Same-Spin Energy          =      -0.5114542969719477 [Eh]
	 Opposite-Spin Energy      =      -1.6149680777770821 [Eh]
	 Correlation Energy        =      -2.1264223747490298 [Eh]
	 Total Energy              =    -515.0118320333858719 [Eh]

	 ================> DF-SCS-MP2 Energies <==================
	-----------------------------------------------------------
	 SCS Same-Spin Scale       =       0.3333333333333333 [-]
	 SCS Opposite-Spin Scale   =       1.2000000000000000 [-]
	 SCS Same-Spin Energy      =      -0.1704847656573159 [Eh]
	 SCS Opposite-Spin Energy  =      -1.9379616933324983 [Eh]
	 SCS Correlation Energy    =      -2.1084464589898144 [Eh]
	 SCS Total Energy          =    -514.9938561176265921 [Eh]
	-----------------------------------------------------------

  Dipole Moment: [D]
     X:    -0.1451      Y:     3.3428      Z:     2.0205     Total:     3.9087

*** Psi4 exiting successfully. Buy a developer a beer!
