                               Psi4 1.3.2 release

  ==> Input File <==

--------------------------------------------------------------------------
#psi4
#
memory 32 gb

molecule  {
0 1
  O       -1.9756670     1.6664010     0.1857370
  O        1.6511300    -1.1930600    -0.6768240
  O       -3.2820610    -0.0444860    -0.5140140
  N        0.2152580     0.2772540     0.2951010
  C       -0.7859765    -0.3804484    -0.0540599
  C       -1.2010820    -1.6869190     0.8036840
  C        2.5941300     0.7851170     0.3678910
  C        1.4652130    -0.1360080    -0.0663740
  C       -2.1892550     0.3702600    -0.1810000
  C        3.9493650     0.2879730    -0.1118860
  H       -0.7666830    -0.8628490    -1.1247510
  H        0.0773990     1.1958980     0.6978160
  H       -1.3680630    -1.3508140     1.8303240
  H       -2.0758160    -2.2433210     0.4601180
  H       -0.3237180    -2.3338760     0.7750620
  H        2.3897550     1.7945520    -0.0146150
  H        2.5759940     0.8629050     1.4619760
  H        4.1547340    -0.7097650     0.2816620
  H        3.9712690     0.2233490    -1.2012200
  H        4.7420490     0.9661550     0.2171920
  H       -2.8492950     2.1039740     0.1058080
units angstrom
no_reorient  #important for SAPT in psi4, default
symmetry c1  #important for SAPT in psi4, default
}

set PROPERTIES_ORIGIN ["COM"]
properties('MP2/aug-cc-pvtz', properties = ['dipole'])
--------------------------------------------------------------------------

    Molecular point group: c1
  Charge       = 0
  Multiplicity = 1
  Basis Set: AUG-CC-PVTZ
    Blend: AUG-CC-PVTZ
  Basis Set: (AUG-CC-PVTZ AUX)
    Blend: AUG-CC-PVTZ-JKFIT

    Orbital Energies [Eh]
    ---------------------

    Doubly Occupied:

       1A    -20.629638     2A    -20.562053     3A    -20.536176
       4A    -15.598313     5A    -11.403407     6A    -11.365735
       7A    -11.296308     8A    -11.254113     9A    -11.224150
      10A    -11.221637    11A     -1.473437    12A     -1.400567
      13A     -1.368662    14A     -1.302690    15A     -1.075846
      16A     -1.018546    17A     -0.928052    18A     -0.888586
      19A     -0.825193    20A     -0.814381    21A     -0.741358
      22A     -0.712031    23A     -0.697548    24A     -0.665096
      25A     -0.643791    26A     -0.634219    27A     -0.612638
      28A     -0.604110    29A     -0.584547    30A     -0.548104
      31A     -0.537171    32A     -0.525191    33A     -0.523499
      34A     -0.513158    35A     -0.497916    36A     -0.487122
      37A     -0.451580    38A     -0.437259    39A     -0.382333

  @DF-RHF Final Energy:  -512.83087812977078

   => Energetics <=

    Nuclear Repulsion Energy =            550.1267442910898353
    One-Electron Energy =               -1791.9429218737607243
    Two-Electron Energy =                 728.9852994529001080
    Total Energy =                       -512.8308781297707810
  Basis Set: (AUG-CC-PVTZ AUX)
    Blend: AUG-CC-PVTZ-RI
    Molecular point group: c1

    Geometry (in Angstrom), charge = 0, multiplicity = 1:

       Center              X                  Y                   Z               Mass
    ------------   -----------------  -----------------  -----------------  -----------------
         O           -1.988941508522     1.657681015120     0.181107951339    15.994914619570
         O            1.637855491478    -1.201779984880    -0.681453048661    15.994914619570
         O           -3.295335508522    -0.053205984880    -0.518643048661    15.994914619570
         N            0.201983491478     0.268534015120     0.290471951339    14.003074004430
         C           -0.799251008522    -0.389168384880    -0.058688948661    12.000000000000
         C           -1.214356508522    -1.695638984880     0.799054951339    12.000000000000
         C            2.580855491478     0.776397015120     0.363261951339    12.000000000000
         C            1.451938491478    -0.144727984880    -0.071003048661    12.000000000000
         C           -2.202529508522     0.361540015120    -0.185629048661    12.000000000000
         C            3.936090491478     0.279253015120    -0.116515048661    12.000000000000
         H           -0.779957508522    -0.871568984880    -1.129380048661     1.007825032230
         H            0.064124491478     1.187178015120     0.693186951339     1.007825032230
         H           -1.381337508522    -1.359533984880     1.825694951339     1.007825032230
         H           -2.089090508522    -2.252040984880     0.455488951339     1.007825032230
         H           -0.336992508522    -2.342595984880     0.770432951339     1.007825032230
         H            2.376480491478     1.785832015120    -0.019244048661     1.007825032230
         H            2.562719491478     0.854185015120     1.457346951339     1.007825032230
         H            4.141459491478    -0.718484984880     0.277032951339     1.007825032230
         H            3.957994491478     0.214629015120    -1.205849048661     1.007825032230
         H            4.728774491478     0.957435015120     0.212562951339     1.007825032230
         H           -2.862569508522     2.095254015120     0.101178951339     1.007825032230

  Basis Set: AUG-CC-PVTZ
    Blend: AUG-CC-PVTZ
  Basis Set: (AUG-CC-PVTZ AUX)
    Blend: AUG-CC-PVTZ-JKFIT
	 Reference Energy          =    -512.8308781297707810 [Eh]
	 Singles Energy            =      -0.0000000000000000 [Eh]
	 Same-Spin Energy          =      -0.5146736920568610 [Eh]
	 Opposite-Spin Energy      =      -1.6189142871900624 [Eh]
	 Correlation Energy        =      -2.1335879792469234 [Eh]
	 Total Energy              =    -514.9644661090177351 [Eh]

	 ================> DF-SCS-MP2 Energies <==================
	-----------------------------------------------------------
	 SCS Same-Spin Scale       =       0.3333333333333333 [-]
	 SCS Opposite-Spin Scale   =       1.2000000000000000 [-]
	 SCS Same-Spin Energy      =      -0.1715578973522870 [Eh]
	 SCS Opposite-Spin Energy  =      -1.9426971446280747 [Eh]
	 SCS Correlation Energy    =      -2.1142550419803618 [Eh]
	 SCS Total Energy          =    -514.9451331717511948 [Eh]
	-----------------------------------------------------------

  Dipole Moment: [D]
     X:     0.6180      Y:     3.5939      Z:     1.9734     Total:     4.1463

*** Psi4 exiting successfully. Buy a developer a beer!
