                               Psi4 1.3.2 release

  ==> Input File <==

--------------------------------------------------------------------------
#psi4
#
memory 32 gb

molecule  {
0 1
  O       -1.9756670     1.6664010     0.1857370
  O        1.6511300    -1.1930600    -0.6768240
  O       -3.2820610    -0.0444860    -0.5140140
  N        0.2152580     0.2772540     0.2951010
  C       -0.9464590    -0.4858680    -0.1100250
  C       -1.2010820    -1.6869190     0.8036840
  C        2.5941300     0.7851170     0.3678910
  C        1.4652130    -0.1360080    -0.0663740
  C       -2.0993399     0.4043849    -0.1535999
  C        3.9493650     0.2879730    -0.1118860
  H       -0.7666830    -0.8628490    -1.1247510
  H        0.0773990     1.1958980     0.6978160
  H       -1.3680630    -1.3508140     1.8303240
  H       -2.0758160    -2.2433210     0.4601180
  H       -0.3237180    -2.3338760     0.7750620
  H        2.3897550     1.7945520    -0.0146150
  H        2.5759940     0.8629050     1.4619760
  H        4.1547340    -0.7097650     0.2816620
  H        3.9712690     0.2233490    -1.2012200
  H        4.7420490     0.9661550     0.2171920
  H       -2.8492950     2.1039740     0.1058080
units angstrom
no_reorient  #important for SAPT in psi4, default
symmetry c1  #important for SAPT in psi4, default
}

set PROPERTIES_ORIGIN ["COM"]
properties('MP2/aug-cc-pvtz', properties = ['dipole'])
--------------------------------------------------------------------------

    Molecular point group: c1
  Charge       = 0
  Multiplicity = 1
  Basis Set: AUG-CC-PVTZ
    Blend: AUG-CC-PVTZ
  Basis Set: (AUG-CC-PVTZ AUX)
    Blend: AUG-CC-PVTZ-JKFIT

    Orbital Energies [Eh]
    ---------------------

    Doubly Occupied:

       1A    -20.652382     2A    -20.544520     3A    -20.527899
       4A    -15.595791     5A    -11.412018     6A    -11.359020
       7A    -11.299294     8A    -11.249878     9A    -11.230141
      10A    -11.221320    11A     -1.494821    12A     -1.383997
      13A     -1.316176    14A     -1.252267    15A     -1.081968
      16A     -1.040691    17A     -0.942577    18A     -0.891132
      19A     -0.835021    20A     -0.798518    21A     -0.736790
      22A     -0.714904    23A     -0.687231    24A     -0.670229
      25A     -0.644149    26A     -0.635027    27A     -0.607055
      28A     -0.589812    29A     -0.582403    30A     -0.549049
      31A     -0.543373    32A     -0.525181    33A     -0.521890
      34A     -0.521088    35A     -0.495320    36A     -0.462408
      37A     -0.456325    38A     -0.431184    39A     -0.403479

  @DF-RHF Final Energy:  -512.86360473211573

   => Energetics <=

    Nuclear Repulsion Energy =            548.6689651754452370
    One-Electron Energy =               -1789.2524829591111484
    Two-Electron Energy =                 727.7199130515501793
    Total Energy =                       -512.8636047321157321
  Basis Set: (AUG-CC-PVTZ AUX)
    Blend: AUG-CC-PVTZ-RI
    Molecular point group: c1

    Geometry (in Angstrom), charge = 0, multiplicity = 1:

       Center              X                  Y                   Z               Mass
    ------------   -----------------  -----------------  -----------------  -----------------
         O           -1.983104422461     1.663578260868     0.183470747239    15.994914619570
         O            1.643692577539    -1.195882739132    -0.679090252761    15.994914619570
         O           -3.289498422461    -0.047308739132    -0.516280252761    15.994914619570
         N            0.207820577539     0.274431260868     0.292834747239    14.003074004430
         C           -0.953896422461    -0.488690739132    -0.112291252761    12.000000000000
         C           -1.208519422461    -1.689741739132     0.801417747239    12.000000000000
         C            2.586692577539     0.782294260868     0.365624747239    12.000000000000
         C            1.457775577539    -0.138830739132    -0.068640252761    12.000000000000
         C           -2.106777322461     0.401562160868    -0.155866152761    12.000000000000
         C            3.941927577539     0.285150260868    -0.114152252761    12.000000000000
         H           -0.774120422461    -0.865671739132    -1.127017252761     1.007825032230
         H            0.069961577539     1.193075260868     0.695549747239     1.007825032230
         H           -1.375500422461    -1.353636739132     1.828057747239     1.007825032230
         H           -2.083253422461    -2.246143739132     0.457851747239     1.007825032230
         H           -0.331155422461    -2.336698739132     0.772795747239     1.007825032230
         H            2.382317577539     1.791729260868    -0.016881252761     1.007825032230
         H            2.568556577539     0.860082260868     1.459709747239     1.007825032230
         H            4.147296577539    -0.712587739132     0.279395747239     1.007825032230
         H            3.963831577539     0.220526260868    -1.203486252761     1.007825032230
         H            4.734611577539     0.963332260868     0.214925747239     1.007825032230
         H           -2.856732422461     2.101151260868     0.103541747239     1.007825032230

  Basis Set: AUG-CC-PVTZ
    Blend: AUG-CC-PVTZ
  Basis Set: (AUG-CC-PVTZ AUX)
    Blend: AUG-CC-PVTZ-JKFIT
	 Reference Energy          =    -512.8636047321157321 [Eh]
	 Singles Energy            =      -0.0000000000000000 [Eh]
	 Same-Spin Energy          =      -0.5135170925499841 [Eh]
	 Opposite-Spin Energy      =      -1.6187030091334016 [Eh]
	 Correlation Energy        =      -2.1322201016833855 [Eh]
	 Total Energy              =    -514.9958248337991336 [Eh]

	 ================> DF-SCS-MP2 Energies <==================
	-----------------------------------------------------------
	 SCS Same-Spin Scale       =       0.3333333333333333 [-]
	 SCS Opposite-Spin Scale   =       1.2000000000000000 [-]
	 SCS Same-Spin Energy      =      -0.1711723641833280 [Eh]
	 SCS Opposite-Spin Energy  =      -1.9424436109600818 [Eh]
	 SCS Correlation Energy    =      -2.1136159751434098 [Eh]
	 SCS Total Energy          =    -514.9772207072591073 [Eh]
	-----------------------------------------------------------

  Dipole Moment: [D]
     X:     0.5198      Y:     3.6129      Z:     2.1680     Total:     4.2454

*** Psi4 exiting successfully. Buy a developer a beer!
