                               Psi4 1.3.2 release

  ==> Input File <==

--------------------------------------------------------------------------
#psi4
#
memory 32 gb

molecule  {
0 1
  O       -1.9756670     1.6664010     0.1857370
  O        1.6511300    -1.1930600    -0.6768240
  O       -3.2820610    -0.0444860    -0.5140140
  N        0.2152580     0.2772540     0.2951010
  C       -0.9464590    -0.4858680    -0.1100250
  C       -1.2010820    -1.6869190     0.8036840
  C        2.5941300     0.7851170     0.3678910
  C        1.4652130    -0.1360080    -0.0663740
  C       -2.1892550     0.3702600    -0.1810000
  C        3.9454277     0.2652516    -0.0987292
  H       -0.7666830    -0.8628490    -1.1247510
  H        0.0773990     1.1958980     0.6978160
  H       -1.3680630    -1.3508140     1.8303240
  H       -2.0758160    -2.2433210     0.4601180
  H       -0.3237180    -2.3338760     0.7750620
  H        2.3728643     1.7943889    -0.0055400
  H        2.5759940     0.8629050     1.4619760
  H        4.1547340    -0.7097650     0.2816620
  H        3.9712690     0.2233490    -1.2012200
  H        4.7420490     0.9661550     0.2171920
  H       -2.8492950     2.1039740     0.1058080
units angstrom
no_reorient  #important for SAPT in psi4, default
symmetry c1  #important for SAPT in psi4, default
}

set PROPERTIES_ORIGIN ["COM"]
properties('MP2/aug-cc-pvtz', properties = ['dipole'])
--------------------------------------------------------------------------

    Molecular point group: c1
  Charge       = 0
  Multiplicity = 1
  Basis Set: AUG-CC-PVTZ
    Blend: AUG-CC-PVTZ
  Basis Set: (AUG-CC-PVTZ AUX)
    Blend: AUG-CC-PVTZ-JKFIT

    Orbital Energies [Eh]
    ---------------------

    Doubly Occupied:

       1A    -20.635973     2A    -20.563765     3A    -20.524444
       4A    -15.592218     5A    -11.404724     6A    -11.355749
       7A    -11.296346     8A    -11.247735     9A    -11.226857
      10A    -11.219912    11A     -1.478419    12A     -1.380584
      13A     -1.373518    14A     -1.245263    15A     -1.074997
      16A     -1.035603    17A     -0.927752    18A     -0.885740
      19A     -0.816683    20A     -0.792381    21A     -0.730822
      22A     -0.714559    23A     -0.682839    24A     -0.665331
      25A     -0.641604    26A     -0.633467    27A     -0.610226
      28A     -0.601916    29A     -0.581396    30A     -0.546242
      31A     -0.544189    32A     -0.525225    33A     -0.521660
      34A     -0.517135    35A     -0.497754    36A     -0.488085
      37A     -0.467825    38A     -0.428489    39A     -0.400204

  @DF-RHF Final Energy:  -512.88506305125645

   => Energetics <=

    Nuclear Repulsion Energy =            548.3089925875265180
    One-Electron Energy =               -1788.6328493643438833
    Two-Electron Energy =                 727.4387937255609131
    Total Energy =                       -512.8850630512564521
  Basis Set: (AUG-CC-PVTZ AUX)
    Blend: AUG-CC-PVTZ-RI
    Molecular point group: c1

    Geometry (in Angstrom), charge = 0, multiplicity = 1:

       Center              X                  Y                   Z               Mass
    ------------   -----------------  -----------------  -----------------  -----------------
         O           -1.975223944141     1.668281519057     0.184585858885    15.994914619570
         O            1.651573055859    -1.191179480943    -0.677975141115    15.994914619570
         O           -3.281617944141    -0.042605480943    -0.515165141115    15.994914619570
         N            0.215701055859     0.279134519057     0.293949858885    14.003074004430
         C           -0.946015944141    -0.483987480943    -0.111176141115    12.000000000000
         C           -1.200638944141    -1.685038480943     0.802532858885    12.000000000000
         C            2.594573055859     0.786997519057     0.366739858885    12.000000000000
         C            1.465656055859    -0.134127480943    -0.067525141115    12.000000000000
         C           -2.188811944141     0.372140519057    -0.182151141115    12.000000000000
         C            3.945870755859     0.267132119057    -0.099880341115    12.000000000000
         H           -0.766239944141    -0.860968480943    -1.125902141115     1.007825032230
         H            0.077842055859     1.197778519057     0.696664858885     1.007825032230
         H           -1.367619944141    -1.348933480943     1.829172858885     1.007825032230
         H           -2.075372944141    -2.241440480943     0.458966858885     1.007825032230
         H           -0.323274944141    -2.331995480943     0.773910858885     1.007825032230
         H            2.373307355859     1.796269419057    -0.006691141115     1.007825032230
         H            2.576437055859     0.864785519057     1.460824858885     1.007825032230
         H            4.155177055859    -0.707884480943     0.280510858885     1.007825032230
         H            3.971712055859     0.225229519057    -1.202371141115     1.007825032230
         H            4.742492055859     0.968035519057     0.216040858885     1.007825032230
         H           -2.848851944141     2.105854519057     0.104656858885     1.007825032230

  Basis Set: AUG-CC-PVTZ
    Blend: AUG-CC-PVTZ
  Basis Set: (AUG-CC-PVTZ AUX)
    Blend: AUG-CC-PVTZ-JKFIT
	 Reference Energy          =    -512.8850630512564521 [Eh]
	 Singles Energy            =      -0.0000000000000000 [Eh]
	 Same-Spin Energy          =      -0.5113954235734968 [Eh]
	 Opposite-Spin Energy      =      -1.6149971349465693 [Eh]
	 Correlation Energy        =      -2.1263925585200658 [Eh]
	 Total Energy              =    -515.0114556097764762 [Eh]

	 ================> DF-SCS-MP2 Energies <==================
	-----------------------------------------------------------
	 SCS Same-Spin Scale       =       0.3333333333333333 [-]
	 SCS Opposite-Spin Scale   =       1.2000000000000000 [-]
	 SCS Same-Spin Energy      =      -0.1704651411911656 [Eh]
	 SCS Opposite-Spin Energy  =      -1.9379965619358830 [Eh]
	 SCS Correlation Energy    =      -2.1084617031270487 [Eh]
	 SCS Total Energy          =    -514.9935247543835430 [Eh]
	-----------------------------------------------------------

  Dipole Moment: [D]
     X:    -0.0444      Y:     3.3082      Z:     1.9670     Total:     3.8490

*** Psi4 exiting successfully. Buy a developer a beer!
