                               Psi4 1.3.2 release

  ==> Input File <==

--------------------------------------------------------------------------
#psi4
#
memory 32 gb

molecule  {
0 1
  O       -1.9756670     1.6664010     0.1857370
  O        1.6511300    -1.1930600    -0.6768240
  O       -3.2820610    -0.0444860    -0.5140140
  N        0.2152580     0.2772540     0.2951010
  C       -0.9464590    -0.4858680    -0.1100250
  C       -1.1912730    -1.7346899     0.7401105
  C        2.5941300     0.7851170     0.3678910
  C        1.4652130    -0.1360080    -0.0663740
  C       -2.1892550     0.3702600    -0.1810000
  C        3.9493650     0.2879730    -0.1118860
  H       -0.7739132    -0.9161597    -1.1046003
  H        0.0773990     1.1958980     0.6978160
  H       -1.3680630    -1.3508140     1.8303240
  H       -2.0758160    -2.2433210     0.4601180
  H       -0.3237180    -2.3338760     0.7750620
  H        2.3897550     1.7945520    -0.0146150
  H        2.5759940     0.8629050     1.4619760
  H        4.1547340    -0.7097650     0.2816620
  H        3.9712690     0.2233490    -1.2012200
  H        4.7420490     0.9661550     0.2171920
  H       -2.8492950     2.1039740     0.1058080
units angstrom
no_reorient  #important for SAPT in psi4, default
symmetry c1  #important for SAPT in psi4, default
}

set PROPERTIES_ORIGIN ["COM"]
properties('MP2/aug-cc-pvtz', properties = ['dipole'])
--------------------------------------------------------------------------

    Molecular point group: c1
  Charge       = 0
  Multiplicity = 1
  Basis Set: AUG-CC-PVTZ
    Blend: AUG-CC-PVTZ
  Basis Set: (AUG-CC-PVTZ AUX)
    Blend: AUG-CC-PVTZ-JKFIT

    Orbital Energies [Eh]
    ---------------------

    Doubly Occupied:

       1A    -20.636551     2A    -20.564284     3A    -20.525324
       4A    -15.593961     5A    -11.406005     6A    -11.356828
       7A    -11.296498     8A    -11.247972     9A    -11.228205
      10A    -11.219809    11A     -1.478896    12A     -1.381332
      13A     -1.374019    14A     -1.245601    15A     -1.075476
      16A     -1.036547    17A     -0.929002    18A     -0.885792
      19A     -0.815881    20A     -0.793030    21A     -0.731997
      22A     -0.715115    23A     -0.683271    24A     -0.665761
      25A     -0.641766    26A     -0.634268    27A     -0.612415
      28A     -0.603110    29A     -0.582712    30A     -0.561115
      31A     -0.541894    32A     -0.526193    33A     -0.519878
      34A     -0.507548    35A     -0.498702    36A     -0.483896
      37A     -0.466264    38A     -0.429755    39A     -0.400231

  @DF-RHF Final Energy:  -512.87858621837086

   => Energetics <=

    Nuclear Repulsion Energy =            548.0186810664665700
    One-Electron Energy =               -1788.0007214638210371
    Two-Electron Energy =                 727.1034541789836112
    Total Energy =                       -512.8785862183708559
  Basis Set: (AUG-CC-PVTZ AUX)
    Blend: AUG-CC-PVTZ-RI
    Molecular point group: c1

    Geometry (in Angstrom), charge = 0, multiplicity = 1:

       Center              X                  Y                   Z               Mass
    ------------   -----------------  -----------------  -----------------  -----------------
         O           -1.976428100794     1.670722740381     0.190855775629    15.994914619570
         O            1.650368899206    -1.188738259619    -0.671705224371    15.994914619570
         O           -3.282822100794    -0.040164259619    -0.508895224371    15.994914619570
         N            0.214496899206     0.281575740381     0.300219775629    14.003074004430
         C           -0.947220100794    -0.481546259619    -0.104906224371    12.000000000000
         C           -1.192034100794    -1.730368159619     0.745229275629    12.000000000000
         C            2.593368899206     0.789438740381     0.373009775629    12.000000000000
         C            1.464451899206    -0.131686259619    -0.061255224371    12.000000000000
         C           -2.190016100794     0.374581740381    -0.175881224371    12.000000000000
         C            3.948603899206     0.292294740381    -0.106767224371    12.000000000000
         H           -0.774674300794    -0.911837959619    -1.099481524371     1.007825032230
         H            0.076637899206     1.200219740381     0.702934775629     1.007825032230
         H           -1.368824100794    -1.346492259619     1.835442775629     1.007825032230
         H           -2.076577100794    -2.238999259619     0.465236775629     1.007825032230
         H           -0.324479100794    -2.329554259619     0.780180775629     1.007825032230
         H            2.388993899206     1.798873740381    -0.009496224371     1.007825032230
         H            2.575232899206     0.867226740381     1.467094775629     1.007825032230
         H            4.153972899206    -0.705443259619     0.286780775629     1.007825032230
         H            3.970507899206     0.227670740381    -1.196101224371     1.007825032230
         H            4.741287899206     0.970476740381     0.222310775629     1.007825032230
         H           -2.850056100794     2.108295740381     0.110926775629     1.007825032230

  Basis Set: AUG-CC-PVTZ
    Blend: AUG-CC-PVTZ
  Basis Set: (AUG-CC-PVTZ AUX)
    Blend: AUG-CC-PVTZ-JKFIT
	 Reference Energy          =    -512.8785862183708559 [Eh]
	 Singles Energy            =      -0.0000000000000000 [Eh]
	 Same-Spin Energy          =      -0.5114397946028106 [Eh]
	 Opposite-Spin Energy      =      -1.6152195908521532 [Eh]
	 Correlation Energy        =      -2.1266593854549640 [Eh]
	 Total Energy              =    -515.0052456038258697 [Eh]

	 ================> DF-SCS-MP2 Energies <==================
	-----------------------------------------------------------
	 SCS Same-Spin Scale       =       0.3333333333333333 [-]
	 SCS Opposite-Spin Scale   =       1.2000000000000000 [-]
	 SCS Same-Spin Energy      =      -0.1704799315342702 [Eh]
	 SCS Opposite-Spin Energy  =      -1.9382635090225837 [Eh]
	 SCS Correlation Energy    =      -2.1087434405568537 [Eh]
	 SCS Total Energy          =    -514.9873296589277061 [Eh]
	-----------------------------------------------------------

  Dipole Moment: [D]
     X:    -0.0115      Y:     3.2946      Z:     1.9119     Total:     3.8092

*** Psi4 exiting successfully. Buy a developer a beer!
