                               Psi4 1.3.2 release

  ==> Input File <==

--------------------------------------------------------------------------
#psi4
#
memory 32 gb

molecule  {
0 1
  O       -1.9756670     1.6664010     0.1857370
  O        1.6511300    -1.1930600    -0.6768240
  O       -3.2820610    -0.0444860    -0.5140140
  N        0.2250213     0.2283319     0.3521666
  C       -0.9464590    -0.4858680    -0.1100250
  C       -1.1367236    -1.6654591     0.8463142
  C        2.5941300     0.7851170     0.3678910
  C        1.4652130    -0.1360080    -0.0663740
  C       -2.1892550     0.3702600    -0.1810000
  C        3.9493650     0.2879730    -0.1118860
  H       -0.7666830    -0.8628490    -1.1247510
  H        0.0773990     1.1958980     0.6978160
  H       -1.3680630    -1.3508140     1.8303240
  H       -2.0758160    -2.2433210     0.4601180
  H       -0.3237180    -2.3338760     0.7750620
  H        2.3897550     1.7945520    -0.0146150
  H        2.5759940     0.8629050     1.4619760
  H        4.1547340    -0.7097650     0.2816620
  H        3.9712690     0.2233490    -1.2012200
  H        4.7420490     0.9661550     0.2171920
  H       -2.8492950     2.1039740     0.1058080
units angstrom
no_reorient  #important for SAPT in psi4, default
symmetry c1  #important for SAPT in psi4, default
}

set PROPERTIES_ORIGIN ["COM"]
properties('MP2/aug-cc-pvtz', properties = ['dipole'])
--------------------------------------------------------------------------

    Molecular point group: c1
  Charge       = 0
  Multiplicity = 1
  Basis Set: AUG-CC-PVTZ
    Blend: AUG-CC-PVTZ
  Basis Set: (AUG-CC-PVTZ AUX)
    Blend: AUG-CC-PVTZ-JKFIT

    Orbital Energies [Eh]
    ---------------------

    Doubly Occupied:

       1A    -20.637854     2A    -20.565921     3A    -20.523586
       4A    -15.592938     5A    -11.407375     6A    -11.354583
       7A    -11.296598     8A    -11.247563     9A    -11.226183
      10A    -11.219417    11A     -1.480101    12A     -1.381075
      13A     -1.375199    14A     -1.244925    15A     -1.074858
      16A     -1.034513    17A     -0.927927    18A     -0.886232
      19A     -0.815735    20A     -0.789417    21A     -0.731748
      22A     -0.715363    23A     -0.684264    24A     -0.666688
      25A     -0.641844    26A     -0.634441    27A     -0.615739
      28A     -0.599765    29A     -0.578367    30A     -0.554182
      31A     -0.535966    32A     -0.527798    33A     -0.519227
      34A     -0.509911    35A     -0.495825    36A     -0.489208
      37A     -0.470468    38A     -0.428521    39A     -0.399406

  @DF-RHF Final Energy:  -512.87585898408270

   => Energetics <=

    Nuclear Repulsion Energy =            548.4358121255132801
    One-Electron Energy =               -1788.8618777655738086
    Two-Electron Energy =                 727.5502066559779450
    Total Energy =                       -512.8758589840826971
  Basis Set: (AUG-CC-PVTZ AUX)
    Blend: AUG-CC-PVTZ-RI
    Molecular point group: c1

    Geometry (in Angstrom), charge = 0, multiplicity = 1:

       Center              X                  Y                   Z               Mass
    ------------   -----------------  -----------------  -----------------  -----------------
         O           -1.981932852692     1.669348008741     0.176702782320    15.994914619570
         O            1.644864147308    -1.190112991259    -0.685858217680    15.994914619570
         O           -3.288326852692    -0.041538991259    -0.523048217680    15.994914619570
         N            0.218755447308     0.231278908741     0.343132382320    14.003074004430
         C           -0.952724852692    -0.482920991259    -0.119059217680    12.000000000000
         C           -1.142989452692    -1.662512091259     0.837279982320    12.000000000000
         C            2.587864147308     0.788064008741     0.358856782320    12.000000000000
         C            1.458947147308    -0.133060991259    -0.075408217680    12.000000000000
         C           -2.195520852692     0.373207008741    -0.190034217680    12.000000000000
         C            3.943099147308     0.290920008741    -0.120920217680    12.000000000000
         H           -0.772948852692    -0.859901991259    -1.133785217680     1.007825032230
         H            0.071133147308     1.198845008741     0.688781782320     1.007825032230
         H           -1.374328852692    -1.347866991259     1.821289782320     1.007825032230
         H           -2.082081852692    -2.240373991259     0.451083782320     1.007825032230
         H           -0.329983852692    -2.330928991259     0.766027782320     1.007825032230
         H            2.383489147308     1.797499008741    -0.023649217680     1.007825032230
         H            2.569728147308     0.865852008741     1.452941782320     1.007825032230
         H            4.148468147308    -0.706817991259     0.272627782320     1.007825032230
         H            3.965003147308     0.226296008741    -1.210254217680     1.007825032230
         H            4.735783147308     0.969102008741     0.208157782320     1.007825032230
         H           -2.855560852692     2.106921008741     0.096773782320     1.007825032230

  Basis Set: AUG-CC-PVTZ
    Blend: AUG-CC-PVTZ
  Basis Set: (AUG-CC-PVTZ AUX)
    Blend: AUG-CC-PVTZ-JKFIT
	 Reference Energy          =    -512.8758589840826971 [Eh]
	 Singles Energy            =      -0.0000000000000000 [Eh]
	 Same-Spin Energy          =      -0.5117970467133832 [Eh]
	 Opposite-Spin Energy      =      -1.6161048661582917 [Eh]
	 Correlation Energy        =      -2.1279019128716747 [Eh]
	 Total Energy              =    -515.0037608969544181 [Eh]

	 ================> DF-SCS-MP2 Energies <==================
	-----------------------------------------------------------
	 SCS Same-Spin Scale       =       0.3333333333333333 [-]
	 SCS Opposite-Spin Scale   =       1.2000000000000000 [-]
	 SCS Same-Spin Energy      =      -0.1705990155711277 [Eh]
	 SCS Opposite-Spin Energy  =      -1.9393258393899500 [Eh]
	 SCS Correlation Energy    =      -2.1099248549610778 [Eh]
	 SCS Total Energy          =    -514.9857838390437337 [Eh]
	-----------------------------------------------------------

  Dipole Moment: [D]
     X:    -0.0922      Y:     3.4435      Z:     1.8723     Total:     3.9207

*** Psi4 exiting successfully. Buy a developer a beer!
