                               Psi4 1.3.2 release

  ==> Input File <==

--------------------------------------------------------------------------
#psi4
#
memory 32 gb

molecule  {
0 1
  O       -1.9756670     1.6664010     0.1857370
  O        1.6511300    -1.1930600    -0.6768240
  O       -3.2820610    -0.0444860    -0.5140140
  N        0.2152580     0.2772540     0.2951010
  C       -0.9464590    -0.4858680    -0.1100250
  C       -1.2177193    -1.7653969     0.8633867
  C        2.5941300     0.7851170     0.3678910
  C        1.4652130    -0.1360080    -0.0663740
  C       -2.1892550     0.3702600    -0.1810000
  C        3.9493650     0.2879730    -0.1118860
  H       -0.7666830    -0.8628490    -1.1247510
  H        0.0773990     1.1958980     0.6978160
  H       -1.3680630    -1.3508140     1.8303240
  H       -2.0758160    -2.2433210     0.4601180
  H       -0.3237180    -2.3338760     0.7750620
  H        2.3897550     1.7945520    -0.0146150
  H        2.5759940     0.8629050     1.4619760
  H        4.1547340    -0.7097650     0.2816620
  H        3.9712690     0.2233490    -1.2012200
  H        4.7420490     0.9661550     0.2171920
  H       -2.8492950     2.1039740     0.1058080
units angstrom
no_reorient  #important for SAPT in psi4, default
symmetry c1  #important for SAPT in psi4, default
}

set PROPERTIES_ORIGIN ["COM"]
properties('MP2/aug-cc-pvtz', properties = ['dipole'])
--------------------------------------------------------------------------

    Molecular point group: c1
  Charge       = 0
  Multiplicity = 1
  Basis Set: AUG-CC-PVTZ
    Blend: AUG-CC-PVTZ
  Basis Set: (AUG-CC-PVTZ AUX)
    Blend: AUG-CC-PVTZ-JKFIT

    Orbital Energies [Eh]
    ---------------------

    Doubly Occupied:

       1A    -20.635161     2A    -20.562557     3A    -20.524622
       4A    -15.592809     5A    -11.403905     6A    -11.355978
       7A    -11.298453     8A    -11.247541     9A    -11.227065
      10A    -11.219511    11A     -1.477466    12A     -1.380481
      13A     -1.372498    14A     -1.243113    15A     -1.069693
      16A     -1.029094    17A     -0.932066    18A     -0.884992
      19A     -0.817385    20A     -0.791954    21A     -0.728558
      22A     -0.713650    23A     -0.681191    24A     -0.663940
      25A     -0.641146    26A     -0.631130    27A     -0.610476
      28A     -0.603362    29A     -0.576506    30A     -0.560527
      31A     -0.546170    32A     -0.527464    33A     -0.519513
      34A     -0.516373    35A     -0.498076    36A     -0.484409
      37A     -0.468175    38A     -0.429096    39A     -0.393804

  @DF-RHF Final Energy:  -512.87899365506360

   => Energetics <=

    Nuclear Repulsion Energy =            546.3248518580678592
    One-Electron Energy =               -1784.6878729454185759
    Two-Electron Energy =                 725.4840274322871210
    Total Energy =                       -512.8789936550635957
  Basis Set: (AUG-CC-PVTZ AUX)
    Blend: AUG-CC-PVTZ-RI
    Molecular point group: c1

    Geometry (in Angstrom), charge = 0, multiplicity = 1:

       Center              X                  Y                   Z               Mass
    ------------   -----------------  -----------------  -----------------  -----------------
         O           -1.974290784309     1.672892366735     0.180798790270    15.994914619570
         O            1.652506215691    -1.186568633265    -0.681762209730    15.994914619570
         O           -3.280684784309    -0.037994633265    -0.518952209730    15.994914619570
         N            0.216634215691     0.283745366735     0.290162790270    14.003074004430
         C           -0.945082784309    -0.479376633265    -0.114963209730    12.000000000000
         C           -1.216343084309    -1.758905533265     0.858448490270    12.000000000000
         C            2.595506215691     0.791608366735     0.362952790270    12.000000000000
         C            1.466589215691    -0.129516633265    -0.071312209730    12.000000000000
         C           -2.187878784309     0.376751366735    -0.185938209730    12.000000000000
         C            3.950741215691     0.294464366735    -0.116824209730    12.000000000000
         H           -0.765306784309    -0.856357633265    -1.129689209730     1.007825032230
         H            0.078775215691     1.202389366735     0.692877790270     1.007825032230
         H           -1.366686784309    -1.344322633265     1.825385790270     1.007825032230
         H           -2.074439784309    -2.236829633265     0.455179790270     1.007825032230
         H           -0.322341784309    -2.327384633265     0.770123790270     1.007825032230
         H            2.391131215691     1.801043366735    -0.019553209730     1.007825032230
         H            2.577370215691     0.869396366735     1.457037790270     1.007825032230
         H            4.156110215691    -0.703273633265     0.276723790270     1.007825032230
         H            3.972645215691     0.229840366735    -1.206158209730     1.007825032230
         H            4.743425215691     0.972646366735     0.212253790270     1.007825032230
         H           -2.847918784309     2.110465366735     0.100869790270     1.007825032230

  Basis Set: AUG-CC-PVTZ
    Blend: AUG-CC-PVTZ
  Basis Set: (AUG-CC-PVTZ AUX)
    Blend: AUG-CC-PVTZ-JKFIT
	 Reference Energy          =    -512.8789936550635957 [Eh]
	 Singles Energy            =      -0.0000000000000000 [Eh]
	 Same-Spin Energy          =      -0.5111196160315135 [Eh]
	 Opposite-Spin Energy      =      -1.6149900160548285 [Eh]
	 Correlation Energy        =      -2.1261096320863420 [Eh]
	 Total Energy              =    -515.0051032871499501 [Eh]

	 ================> DF-SCS-MP2 Energies <==================
	-----------------------------------------------------------
	 SCS Same-Spin Scale       =       0.3333333333333333 [-]
	 SCS Opposite-Spin Scale   =       1.2000000000000000 [-]
	 SCS Same-Spin Energy      =      -0.1703732053438378 [Eh]
	 SCS Opposite-Spin Energy  =      -1.9379880192657941 [Eh]
	 SCS Correlation Energy    =      -2.1083612246096317 [Eh]
	 SCS Total Energy          =    -514.9873548796732621 [Eh]
	-----------------------------------------------------------

  Dipole Moment: [D]
     X:    -0.0076      Y:     3.3206      Z:     1.9738     Total:     3.8629

*** Psi4 exiting successfully. Buy a developer a beer!
