                               Psi4 1.3.2 release

  ==> Input File <==

--------------------------------------------------------------------------
#psi4
#
memory 32 gb

molecule  {
0 1
  O       -1.9756670     1.6664010     0.1857370
  O        1.6511300    -1.1930600    -0.6768240
  O       -3.2820610    -0.0444860    -0.5140140
  N        0.2152580     0.2772540     0.2951010
  C       -0.9464590    -0.4858680    -0.1100250
  C       -1.2010820    -1.6869190     0.8036840
  C        2.5941300     0.7851170     0.3678910
  C        1.4696622    -0.1255794    -0.0627152
  C       -2.1892550     0.3702600    -0.1810000
  C        3.9493650     0.2879730    -0.1118860
  H       -0.7666830    -0.8628490    -1.1247510
  H        0.0860710     1.1974510     0.6971452
  H       -1.3680630    -1.3508140     1.8303240
  H       -2.0758160    -2.2433210     0.4601180
  H       -0.3237180    -2.3338760     0.7750620
  H        2.3897550     1.7945520    -0.0146150
  H        2.5759940     0.8629050     1.4619760
  H        4.1547340    -0.7097650     0.2816620
  H        3.9712690     0.2233490    -1.2012200
  H        4.7420490     0.9661550     0.2171920
  H       -2.8492950     2.1039740     0.1058080
units angstrom
no_reorient  #important for SAPT in psi4, default
symmetry c1  #important for SAPT in psi4, default
}

set PROPERTIES_ORIGIN ["COM"]
properties('MP2/aug-cc-pvtz', properties = ['dipole'])
--------------------------------------------------------------------------

    Molecular point group: c1
  Charge       = 0
  Multiplicity = 1
  Basis Set: AUG-CC-PVTZ
    Blend: AUG-CC-PVTZ
  Basis Set: (AUG-CC-PVTZ AUX)
    Blend: AUG-CC-PVTZ-JKFIT

    Orbital Energies [Eh]
    ---------------------

    Doubly Occupied:

       1A    -20.635869     2A    -20.563809     3A    -20.523086
       4A    -15.593130     5A    -11.404825     6A    -11.356727
       7A    -11.296879     8A    -11.248269     9A    -11.226835
      10A    -11.220087    11A     -1.478356    12A     -1.375104
      13A     -1.373241    14A     -1.244204    15A     -1.076626
      16A     -1.036646    17A     -0.927909    18A     -0.887208
      19A     -0.816723    20A     -0.791445    21A     -0.731290
      22A     -0.714505    23A     -0.683058    24A     -0.665685
      25A     -0.641997    26A     -0.632903    27A     -0.610339
      28A     -0.600793    29A     -0.580030    30A     -0.546648
      31A     -0.543448    32A     -0.524788    33A     -0.520291
      34A     -0.519091    35A     -0.497655    36A     -0.486770
      37A     -0.467703    38A     -0.429198    39A     -0.399459

  @DF-RHF Final Energy:  -512.88485536232577

   => Energetics <=

    Nuclear Repulsion Energy =            548.1036732981519890
    One-Electron Energy =               -1788.2318004600213044
    Two-Electron Energy =                 727.2432717995435496
    Total Energy =                       -512.8848553623257658
  Basis Set: (AUG-CC-PVTZ AUX)
    Blend: AUG-CC-PVTZ-RI
    Molecular point group: c1

    Geometry (in Angstrom), charge = 0, multiplicity = 1:

       Center              X                  Y                   Z               Mass
    ------------   -----------------  -----------------  -----------------  -----------------
         O           -1.976095229292     1.665527546446     0.185439203745    15.994914619570
         O            1.650701770708    -1.193933453554    -0.677121796255    15.994914619570
         O           -3.282489229292    -0.045359453554    -0.514311796255    15.994914619570
         N            0.214829770708     0.276380546446     0.294803203745    14.003074004430
         C           -0.946887229292    -0.486741453554    -0.110322796255    12.000000000000
         C           -1.201510229292    -1.687792453554     0.803386203745    12.000000000000
         C            2.593701770708     0.784243546446     0.367593203745    12.000000000000
         C            1.469233970708    -0.126452853554    -0.063012996255    12.000000000000
         C           -2.189683229292     0.369386546446    -0.181297796255    12.000000000000
         C            3.948936770708     0.287099546446    -0.112183796255    12.000000000000
         H           -0.767111229292    -0.863722453554    -1.125048796255     1.007825032230
         H            0.085642770708     1.196577546446     0.696847403745     1.007825032230
         H           -1.368491229292    -1.351687453554     1.830026203745     1.007825032230
         H           -2.076244229292    -2.244194453554     0.459820203745     1.007825032230
         H           -0.324146229292    -2.334749453554     0.774764203745     1.007825032230
         H            2.389326770708     1.793678546446    -0.014912796255     1.007825032230
         H            2.575565770708     0.862031546446     1.461678203745     1.007825032230
         H            4.154305770708    -0.710638453554     0.281364203745     1.007825032230
         H            3.970840770708     0.222475546446    -1.201517796255     1.007825032230
         H            4.741620770708     0.965281546446     0.216894203745     1.007825032230
         H           -2.849723229292     2.103100546446     0.105510203745     1.007825032230

  Basis Set: AUG-CC-PVTZ
    Blend: AUG-CC-PVTZ
  Basis Set: (AUG-CC-PVTZ AUX)
    Blend: AUG-CC-PVTZ-JKFIT
	 Reference Energy          =    -512.8848553623257658 [Eh]
	 Singles Energy            =      -0.0000000000000000 [Eh]
	 Same-Spin Energy          =      -0.5116210799754013 [Eh]
	 Opposite-Spin Energy      =      -1.6154491912272844 [Eh]
	 Correlation Energy        =      -2.1270702712026859 [Eh]
	 Total Energy              =    -515.0119256335284490 [Eh]

	 ================> DF-SCS-MP2 Energies <==================
	-----------------------------------------------------------
	 SCS Same-Spin Scale       =       0.3333333333333333 [-]
	 SCS Opposite-Spin Scale   =       1.2000000000000000 [-]
	 SCS Same-Spin Energy      =      -0.1705403599918004 [Eh]
	 SCS Opposite-Spin Energy  =      -1.9385390294727411 [Eh]
	 SCS Correlation Energy    =      -2.1090793894645414 [Eh]
	 SCS Total Energy          =    -514.9939347517903343 [Eh]
	-----------------------------------------------------------

  Dipole Moment: [D]
     X:    -0.0240      Y:     3.3604      Z:     1.9855     Total:     3.9032

*** Psi4 exiting successfully. Buy a developer a beer!
