                               Psi4 1.3.2 release

  ==> Input File <==

--------------------------------------------------------------------------
#psi4
#
memory 32 gb

molecule  {
0 1
  O       -1.9297623     1.6559613     0.1928089
  O        1.6511300    -1.1930600    -0.6768240
  O       -3.2648881    -0.0828254    -0.5199168
  N        0.2152580     0.2772540     0.2951010
  C       -0.9464590    -0.4858680    -0.1100250
  C       -1.2010820    -1.6869190     0.8036840
  C        2.5941300     0.7851170     0.3678910
  C        1.4652130    -0.1360080    -0.0663740
  C       -2.1892550     0.3702600    -0.1810000
  C        3.9493650     0.2879730    -0.1118860
  H       -0.7666830    -0.8628490    -1.1247510
  H        0.0773990     1.1958980     0.6978160
  H       -1.3680630    -1.3508140     1.8303240
  H       -2.0758160    -2.2433210     0.4601180
  H       -0.3237180    -2.3338760     0.7750620
  H        2.3897550     1.7945520    -0.0146150
  H        2.5759940     0.8629050     1.4619760
  H        4.1547340    -0.7097650     0.2816620
  H        3.9712690     0.2233490    -1.2012200
  H        4.7420490     0.9661550     0.2171920
  H       -2.8492950     2.1039740     0.1058080
units angstrom
no_reorient  #important for SAPT in psi4, default
symmetry c1  #important for SAPT in psi4, default
}

set PROPERTIES_ORIGIN ["COM"]
properties('MP2/aug-cc-pvtz', properties = ['dipole'])
--------------------------------------------------------------------------

    Molecular point group: c1
  Charge       = 0
  Multiplicity = 1
  Basis Set: AUG-CC-PVTZ
    Blend: AUG-CC-PVTZ
  Basis Set: (AUG-CC-PVTZ AUX)
    Blend: AUG-CC-PVTZ-JKFIT

    Orbital Energies [Eh]
    ---------------------

    Doubly Occupied:

       1A    -20.645347     2A    -20.566726     3A    -20.522950
       4A    -15.589944     5A    -11.405457     6A    -11.354448
       7A    -11.292012     8A    -11.246519     9A    -11.224717
      10A    -11.218702    11A     -1.474994    12A     -1.379253
      13A     -1.376700    14A     -1.242870    15A     -1.072823
      16A     -1.033704    17A     -0.924221    18A     -0.883226
      19A     -0.809744    20A     -0.791496    21A     -0.729920
      22A     -0.713651    23A     -0.681469    24A     -0.665299
      25A     -0.640582    26A     -0.633947    27A     -0.609631
      28A     -0.601049    29A     -0.578884    30A     -0.544868
      31A     -0.542975    32A     -0.522795    33A     -0.519676
      34A     -0.518282    35A     -0.498794    36A     -0.487912
      37A     -0.466998    38A     -0.427180    39A     -0.398123

  @DF-RHF Final Energy:  -512.87863773496429

   => Energetics <=

    Nuclear Repulsion Energy =            548.7454251649926391
    One-Electron Energy =               -1789.5723566679846499
    Two-Electron Energy =                 727.9482937680277246
    Total Energy =                       -512.8786377349642862
  Basis Set: (AUG-CC-PVTZ AUX)
    Blend: AUG-CC-PVTZ-RI
    Molecular point group: c1

    Geometry (in Angstrom), charge = 0, multiplicity = 1:

       Center              X                  Y                   Z               Mass
    ------------   -----------------  -----------------  -----------------  -----------------
         O           -1.936716793575     1.661339321965     0.192680189276    15.994914619570
         O            1.644175506425    -1.187681978035    -0.676952710724    15.994914619570
         O           -3.271842593575    -0.077447378035    -0.520045510724    15.994914619570
         N            0.208303506425     0.282632021965     0.294972289276    14.003074004430
         C           -0.953413493575    -0.480489978035    -0.110153710724    12.000000000000
         C           -1.208036493575    -1.681540978035     0.803555289276    12.000000000000
         C            2.587175506425     0.790495021965     0.367762289276    12.000000000000
         C            1.458258506425    -0.130629978035    -0.066502710724    12.000000000000
         C           -2.196209493575     0.375638021965    -0.181128710724    12.000000000000
         C            3.942410506425     0.293351021965    -0.112014710724    12.000000000000
         H           -0.773637493575    -0.857470978035    -1.124879710724     1.007825032230
         H            0.070444506425     1.201276021965     0.697687289276     1.007825032230
         H           -1.375017493575    -1.345435978035     1.830195289276     1.007825032230
         H           -2.082770493575    -2.237942978035     0.459989289276     1.007825032230
         H           -0.330672493575    -2.328497978035     0.774933289276     1.007825032230
         H            2.382800506425     1.799930021965    -0.014743710724     1.007825032230
         H            2.569039506425     0.868283021965     1.461847289276     1.007825032230
         H            4.147779506425    -0.704386978035     0.281533289276     1.007825032230
         H            3.964314506425     0.228727021965    -1.201348710724     1.007825032230
         H            4.735094506425     0.971533021965     0.217063289276     1.007825032230
         H           -2.856249493575     2.109352021965     0.105679289276     1.007825032230

  Basis Set: AUG-CC-PVTZ
    Blend: AUG-CC-PVTZ
  Basis Set: (AUG-CC-PVTZ AUX)
    Blend: AUG-CC-PVTZ-JKFIT
	 Reference Energy          =    -512.8786377349642862 [Eh]
	 Singles Energy            =      -0.0000000000000000 [Eh]
	 Same-Spin Energy          =      -0.5125499609750392 [Eh]
	 Opposite-Spin Energy      =      -1.6173723658517016 [Eh]
	 Correlation Energy        =      -2.1299223268267409 [Eh]
	 Total Energy              =    -515.0085600617910586 [Eh]

	 ================> DF-SCS-MP2 Energies <==================
	-----------------------------------------------------------
	 SCS Same-Spin Scale       =       0.3333333333333333 [-]
	 SCS Opposite-Spin Scale   =       1.2000000000000000 [-]
	 SCS Same-Spin Energy      =      -0.1708499869916797 [Eh]
	 SCS Opposite-Spin Energy  =      -1.9408468390220419 [Eh]
	 SCS Correlation Energy    =      -2.1116968260137217 [Eh]
	 SCS Total Energy          =    -514.9903345609779990 [Eh]
	-----------------------------------------------------------

  Dipole Moment: [D]
     X:    -0.2317      Y:     3.4772      Z:     1.9543     Total:     3.9955

*** Psi4 exiting successfully. Buy a developer a beer!
