                               Psi4 1.3.2 release

  ==> Input File <==

--------------------------------------------------------------------------
#psi4
#
memory 32 gb

molecule  {
0 1
  O       -1.9756670     1.6664010     0.1857370
  O        1.6511300    -1.1930600    -0.6768240
  O       -3.2820610    -0.0444860    -0.5140140
  N        0.2152580     0.2772540     0.2951010
  C       -0.9464590    -0.4858680    -0.1100250
  C       -1.2010820    -1.6869190     0.8036840
  C        2.5941300     0.7851170     0.3678910
  C        1.4564799    -0.1280629    -0.0603210
  C       -2.1892550     0.3702600    -0.1810000
  C        3.9551781     0.2984081    -0.1060949
  H       -0.7666830    -0.8628490    -1.1247510
  H        0.0773990     1.1958980     0.6978160
  H       -1.3680630    -1.3508140     1.8303240
  H       -2.0758160    -2.2433210     0.4601180
  H       -0.3237180    -2.3338760     0.7750620
  H        2.3897550     1.7945520    -0.0146150
  H        2.5759940     0.8629050     1.4619760
  H        4.1547340    -0.7097650     0.2816620
  H        3.9712690     0.2233490    -1.2012200
  H        4.7420490     0.9661550     0.2171920
  H       -2.8492950     2.1039740     0.1058080
units angstrom
no_reorient  #important for SAPT in psi4, default
symmetry c1  #important for SAPT in psi4, default
}

set PROPERTIES_ORIGIN ["COM"]
properties('MP2/aug-cc-pvtz', properties = ['dipole'])
--------------------------------------------------------------------------

    Molecular point group: c1
  Charge       = 0
  Multiplicity = 1
  Basis Set: AUG-CC-PVTZ
    Blend: AUG-CC-PVTZ
  Basis Set: (AUG-CC-PVTZ AUX)
    Blend: AUG-CC-PVTZ-JKFIT

    Orbital Energies [Eh]
    ---------------------

    Doubly Occupied:

       1A    -20.636818     2A    -20.564599     3A    -20.521669
       4A    -15.595035     5A    -11.405669     6A    -11.356021
       7A    -11.297701     8A    -11.247597     9A    -11.227598
      10A    -11.219234    11A     -1.479287    12A     -1.375091
      13A     -1.373576    14A     -1.247695    15A     -1.075809
      16A     -1.036538    17A     -0.928911    18A     -0.885942
      19A     -0.817864    20A     -0.795008    21A     -0.731945
      22A     -0.715348    23A     -0.682431    24A     -0.666187
      25A     -0.640503    26A     -0.633315    27A     -0.611212
      28A     -0.600497    29A     -0.580972    30A     -0.547935
      31A     -0.544158    32A     -0.526243    33A     -0.519187
      34A     -0.517513    35A     -0.496874    36A     -0.486104
      37A     -0.468445    38A     -0.427454    39A     -0.400722

  @DF-RHF Final Energy:  -512.88479239845606

   => Energetics <=

    Nuclear Repulsion Energy =            548.1372723755496281
    One-Electron Energy =               -1788.2747161053971467
    Two-Electron Energy =                 727.2526513313914620
    Total Energy =                       -512.8847923984560566
  Basis Set: (AUG-CC-PVTZ AUX)
    Blend: AUG-CC-PVTZ-RI
    Molecular point group: c1

    Geometry (in Angstrom), charge = 0, multiplicity = 1:

       Center              X                  Y                   Z               Mass
    ------------   -----------------  -----------------  -----------------  -----------------
         O           -1.975425430912     1.664880606837     0.184757484610    15.994914619570
         O            1.651371569088    -1.194580393163    -0.677803515390    15.994914619570
         O           -3.281819430912    -0.046006393163    -0.514993515390    15.994914619570
         N            0.215499569088     0.275733606837     0.294121484610    14.003074004430
         C           -0.946217430912    -0.487388393163    -0.111004515390    12.000000000000
         C           -1.200840430912    -1.688439393163     0.802704484610    12.000000000000
         C            2.594371569088     0.783596606837     0.366911484610    12.000000000000
         C            1.456721469088    -0.129583293163    -0.061300515390    12.000000000000
         C           -2.189013430912     0.368739606837    -0.181979515390    12.000000000000
         C            3.955419669088     0.296887706837    -0.107074415390    12.000000000000
         H           -0.766441430912    -0.864369393163    -1.125730515390     1.007825032230
         H            0.077640569088     1.194377606837     0.696836484610     1.007825032230
         H           -1.367821430912    -1.352334393163     1.829344484610     1.007825032230
         H           -2.075574430912    -2.244841393163     0.459138484610     1.007825032230
         H           -0.323476430912    -2.335396393163     0.774082484610     1.007825032230
         H            2.389996569088     1.793031606837    -0.015594515390     1.007825032230
         H            2.576235569088     0.861384606837     1.460996484610     1.007825032230
         H            4.154975569088    -0.711285393163     0.280682484610     1.007825032230
         H            3.971510569088     0.221828606837    -1.202199515390     1.007825032230
         H            4.742290569088     0.964634606837     0.216212484610     1.007825032230
         H           -2.849053430912     2.102453606837     0.104828484610     1.007825032230

  Basis Set: AUG-CC-PVTZ
    Blend: AUG-CC-PVTZ
  Basis Set: (AUG-CC-PVTZ AUX)
    Blend: AUG-CC-PVTZ-JKFIT
	 Reference Energy          =    -512.8847923984560566 [Eh]
	 Singles Energy            =      -0.0000000000000000 [Eh]
	 Same-Spin Energy          =      -0.5115706659384487 [Eh]
	 Opposite-Spin Energy      =      -1.6153350150234971 [Eh]
	 Correlation Energy        =      -2.1269056809619458 [Eh]
	 Total Energy              =    -515.0116980794180108 [Eh]

	 ================> DF-SCS-MP2 Energies <==================
	-----------------------------------------------------------
	 SCS Same-Spin Scale       =       0.3333333333333333 [-]
	 SCS Opposite-Spin Scale   =       1.2000000000000000 [-]
	 SCS Same-Spin Energy      =      -0.1705235553128162 [Eh]
	 SCS Opposite-Spin Energy  =      -1.9384020180281964 [Eh]
	 SCS Correlation Energy    =      -2.1089255733410126 [Eh]
	 SCS Total Energy          =    -514.9937179717970821 [Eh]
	-----------------------------------------------------------

  Dipole Moment: [D]
     X:    -0.1412      Y:     3.3656      Z:     2.0035     Total:     3.9193

*** Psi4 exiting successfully. Buy a developer a beer!
