                               Psi4 1.3.2 release

  ==> Input File <==

--------------------------------------------------------------------------
#psi4
#
memory 32 gb

molecule  {
0 1
  O       -1.9756670     1.6664010     0.1857370
  O        1.6511300    -1.1930600    -0.6768240
  O       -3.2820610    -0.0444860    -0.5140140
  N        0.1972559     0.2384907     0.2740267
  C       -0.9464590    -0.4858680    -0.1100250
  C       -1.2010820    -1.6869190     0.8036840
  C        2.6287183     0.7519379     0.3451091
  C        1.4652130    -0.1360080    -0.0663740
  C       -2.1892550     0.3702600    -0.1810000
  C        3.9493650     0.2879730    -0.1118860
  H       -0.7666830    -0.8628490    -1.1247510
  H        0.0773990     1.1958980     0.6978160
  H       -1.3680630    -1.3508140     1.8303240
  H       -2.0758160    -2.2433210     0.4601180
  H       -0.3237180    -2.3338760     0.7750620
  H        2.3897550     1.7945520    -0.0146150
  H        2.5759940     0.8629050     1.4619760
  H        4.1547340    -0.7097650     0.2816620
  H        3.9712690     0.2233490    -1.2012200
  H        4.7420490     0.9661550     0.2171920
  H       -2.8492950     2.1039740     0.1058080
units angstrom
no_reorient  #important for SAPT in psi4, default
symmetry c1  #important for SAPT in psi4, default
}

set PROPERTIES_ORIGIN ["COM"]
properties('MP2/aug-cc-pvtz', properties = ['dipole'])
--------------------------------------------------------------------------

    Molecular point group: c1
  Charge       = 0
  Multiplicity = 1
  Basis Set: AUG-CC-PVTZ
    Blend: AUG-CC-PVTZ
  Basis Set: (AUG-CC-PVTZ AUX)
    Blend: AUG-CC-PVTZ-JKFIT

    Orbital Energies [Eh]
    ---------------------

    Doubly Occupied:

       1A    -20.635918     2A    -20.563589     3A    -20.521419
       4A    -15.594317     5A    -11.404778     6A    -11.355735
       7A    -11.293624     8A    -11.253315     9A    -11.225265
      10A    -11.218902    11A     -1.478382    12A     -1.381502
      13A     -1.373343    14A     -1.248976    15A     -1.077804
      16A     -1.040031    17A     -0.928766    18A     -0.886935
      19A     -0.816442    20A     -0.785583    21A     -0.734007
      22A     -0.712879    23A     -0.686745    24A     -0.665035
      25A     -0.639290    26A     -0.632618    27A     -0.610702
      28A     -0.600393    29A     -0.581853    30A     -0.553251
      31A     -0.544243    32A     -0.535207    33A     -0.518875
      34A     -0.517880    35A     -0.494664    36A     -0.481334
      37A     -0.467621    38A     -0.427246    39A     -0.395970

  @DF-RHF Final Energy:  -512.87804338549893

   => Energetics <=

    Nuclear Repulsion Energy =            548.9948089817382879
    One-Electron Energy =               -1789.9768288202692474
    Two-Electron Energy =                 728.1039764530320326
    Total Energy =                       -512.8780433854989269
  Basis Set: (AUG-CC-PVTZ AUX)
    Blend: AUG-CC-PVTZ-RI
    Molecular point group: c1

    Geometry (in Angstrom), charge = 0, multiplicity = 1:

       Center              X                  Y                   Z               Mass
    ------------   -----------------  -----------------  -----------------  -----------------
         O           -1.976790355069     1.672886988501     0.189655795166    15.994914619570
         O            1.650006644931    -1.186574011499    -0.672905204834    15.994914619570
         O           -3.283184355069    -0.038000011499    -0.510095204834    15.994914619570
         N            0.196132544931     0.244976688501     0.277945495166    14.003074004430
         C           -0.947582355069    -0.479382011499    -0.106106204834    12.000000000000
         C           -1.202205355069    -1.680433011499     0.807602795166    12.000000000000
         C            2.627594944931     0.758423888501     0.349027895166    12.000000000000
         C            1.464089644931    -0.129522011499    -0.062455204834    12.000000000000
         C           -2.190378355069     0.376745988501    -0.177081204834    12.000000000000
         C            3.948241644931     0.294458988501    -0.107967204834    12.000000000000
         H           -0.767806355069    -0.856363011499    -1.120832204834     1.007825032230
         H            0.076275644931     1.202383988501     0.701734795166     1.007825032230
         H           -1.369186355069    -1.344328011499     1.834242795166     1.007825032230
         H           -2.076939355069    -2.236835011499     0.464036795166     1.007825032230
         H           -0.324841355069    -2.327390011499     0.778980795166     1.007825032230
         H            2.388631644931     1.801037988501    -0.010696204834     1.007825032230
         H            2.574870644931     0.869390988501     1.465894795166     1.007825032230
         H            4.153610644931    -0.703279011499     0.285580795166     1.007825032230
         H            3.970145644931     0.229834988501    -1.197301204834     1.007825032230
         H            4.740925644931     0.972640988501     0.221110795166     1.007825032230
         H           -2.850418355069     2.110459988501     0.109726795166     1.007825032230

  Basis Set: AUG-CC-PVTZ
    Blend: AUG-CC-PVTZ
  Basis Set: (AUG-CC-PVTZ AUX)
    Blend: AUG-CC-PVTZ-JKFIT
	 Reference Energy          =    -512.8780433854989269 [Eh]
	 Singles Energy            =      -0.0000000000000000 [Eh]
	 Same-Spin Energy          =      -0.5122663554636606 [Eh]
	 Opposite-Spin Energy      =      -1.6159280173761024 [Eh]
	 Correlation Energy        =      -2.1281943728397632 [Eh]
	 Total Energy              =    -515.0062377583386706 [Eh]

	 ================> DF-SCS-MP2 Energies <==================
	-----------------------------------------------------------
	 SCS Same-Spin Scale       =       0.3333333333333333 [-]
	 SCS Opposite-Spin Scale   =       1.2000000000000000 [-]
	 SCS Same-Spin Energy      =      -0.1707554518212202 [Eh]
	 SCS Opposite-Spin Energy  =      -1.9391136208513227 [Eh]
	 SCS Correlation Energy    =      -2.1098690726725429 [Eh]
	 SCS Total Energy          =    -514.9879124581714223 [Eh]
	-----------------------------------------------------------

  Dipole Moment: [D]
     X:     0.0720      Y:     3.3981      Z:     1.9838     Total:     3.9354

*** Psi4 exiting successfully. Buy a developer a beer!
