                               Psi4 1.3.2 release

  ==> Input File <==

--------------------------------------------------------------------------
#psi4
#
memory 32 gb

molecule  {
0 1
  O       -1.9756670     1.6664010     0.1857370
  O        1.6511300    -1.1930600    -0.6768240
  O       -3.2820610    -0.0444860    -0.5140140
  N        0.2152580     0.2772540     0.2951010
  C       -0.9464590    -0.4858680    -0.1100250
  C       -1.2010820    -1.6869190     0.8036840
  C        2.5941300     0.7851170     0.3678910
  C        1.4652130    -0.1360080    -0.0663740
  C       -2.1892550     0.3702600    -0.1810000
  C        3.9493650     0.2879730    -0.1118860
  H       -0.7666830    -0.8628490    -1.1247510
  H        0.0501667     1.3773643     0.7773672
  H       -1.3680630    -1.3508140     1.8303240
  H       -2.0758160    -2.2433210     0.4601180
  H       -0.3237180    -2.3338760     0.7750620
  H        2.3897550     1.7945520    -0.0146150
  H        2.5759940     0.8629050     1.4619760
  H        4.1547340    -0.7097650     0.2816620
  H        3.9712690     0.2233490    -1.2012200
  H        4.7420490     0.9661550     0.2171920
  H       -2.8492950     2.1039740     0.1058080
units angstrom
no_reorient  #important for SAPT in psi4, default
symmetry c1  #important for SAPT in psi4, default
}

set PROPERTIES_ORIGIN ["COM"]
properties('MP2/aug-cc-pvtz', properties = ['dipole'])
--------------------------------------------------------------------------

    Molecular point group: c1
  Charge       = 0
  Multiplicity = 1
  Basis Set: AUG-CC-PVTZ
    Blend: AUG-CC-PVTZ
  Basis Set: (AUG-CC-PVTZ AUX)
    Blend: AUG-CC-PVTZ-JKFIT

    Orbital Energies [Eh]
    ---------------------

    Doubly Occupied:

       1A    -20.636786     2A    -20.563867     3A    -20.522844
       4A    -15.604626     5A    -11.404774     6A    -11.354378
       7A    -11.296146     8A    -11.245890     9A    -11.226185
      10A    -11.218213    11A     -1.478942    12A     -1.377886
      13A     -1.373884    14A     -1.228911    15A     -1.072211
      16A     -1.031273    17A     -0.926531    18A     -0.883182
      19A     -0.811028    20A     -0.769324    21A     -0.726954
      22A     -0.706171    23A     -0.681249    24A     -0.659278
      25A     -0.639862    26A     -0.630962    27A     -0.610846
      28A     -0.594938    29A     -0.573024    30A     -0.545487
      31A     -0.543164    32A     -0.519901    33A     -0.518168
      34A     -0.517871    35A     -0.496726    36A     -0.487380
      37A     -0.467329    38A     -0.426299    39A     -0.395949

  @DF-RHF Final Energy:  -512.85488756681184

   => Energetics <=

    Nuclear Repulsion Energy =            547.1511493237960622
    One-Electron Energy =               -1786.4751945573646026
    Two-Electron Energy =                 726.4691576667567006
    Total Energy =                       -512.8548875668118399
  Basis Set: (AUG-CC-PVTZ AUX)
    Blend: AUG-CC-PVTZ-RI
    Molecular point group: c1

    Geometry (in Angstrom), charge = 0, multiplicity = 1:

       Center              X                  Y                   Z               Mass
    ------------   -----------------  -----------------  -----------------  -----------------
         O           -1.975477780829     1.665140309803     0.185184546350    15.994914619570
         O            1.651319219171    -1.194320690197    -0.677376453650    15.994914619570
         O           -3.281871780829    -0.045746690197    -0.514566453650    15.994914619570
         N            0.215447219171     0.275993309803     0.294548546350    14.003074004430
         C           -0.946269780829    -0.487128690197    -0.110577453650    12.000000000000
         C           -1.200892780829    -1.688179690197     0.803131546350    12.000000000000
         C            2.594319219171     0.783856309803     0.367338546350    12.000000000000
         C            1.465402219171    -0.137268690197    -0.066926453650    12.000000000000
         C           -2.189065780829     0.368999309803    -0.181552453650    12.000000000000
         C            3.949554219171     0.286712309803    -0.112438453650    12.000000000000
         H           -0.766493780829    -0.864109690197    -1.125303453650     1.007825032230
         H            0.050355919171     1.376103609803     0.776814746350     1.007825032230
         H           -1.367873780829    -1.352074690197     1.829771546350     1.007825032230
         H           -2.075626780829    -2.244581690197     0.459565546350     1.007825032230
         H           -0.323528780829    -2.335136690197     0.774509546350     1.007825032230
         H            2.389944219171     1.793291309803    -0.015167453650     1.007825032230
         H            2.576183219171     0.861644309803     1.461423546350     1.007825032230
         H            4.154923219171    -0.711025690197     0.281109546350     1.007825032230
         H            3.971458219171     0.222088309803    -1.201772453650     1.007825032230
         H            4.742238219171     0.964894309803     0.216639546350     1.007825032230
         H           -2.849105780829     2.102713309803     0.105255546350     1.007825032230

  Basis Set: AUG-CC-PVTZ
    Blend: AUG-CC-PVTZ
  Basis Set: (AUG-CC-PVTZ AUX)
    Blend: AUG-CC-PVTZ-JKFIT
	 Reference Energy          =    -512.8548875668118399 [Eh]
	 Singles Energy            =      -0.0000000000000000 [Eh]
	 Same-Spin Energy          =      -0.5133045797110856 [Eh]
	 Opposite-Spin Energy      =      -1.6194318224686410 [Eh]
	 Correlation Energy        =      -2.1327364021797264 [Eh]
	 Total Energy              =    -514.9876239689915565 [Eh]

	 ================> DF-SCS-MP2 Energies <==================
	-----------------------------------------------------------
	 SCS Same-Spin Scale       =       0.3333333333333333 [-]
	 SCS Opposite-Spin Scale   =       1.2000000000000000 [-]
	 SCS Same-Spin Energy      =      -0.1711015265703618 [Eh]
	 SCS Opposite-Spin Energy  =      -1.9433181869623692 [Eh]
	 SCS Correlation Energy    =      -2.1144197135327309 [Eh]
	 SCS Total Energy          =    -514.9693072803445375 [Eh]
	-----------------------------------------------------------

  Dipole Moment: [D]
     X:    -0.1706      Y:     3.4936      Z:     2.0312     Total:     4.0448

*** Psi4 exiting successfully. Buy a developer a beer!
