                               Psi4 1.3.2 release

  ==> Input File <==

--------------------------------------------------------------------------
#psi4
#
memory 32 gb

molecule  {
0 1
  O       -1.9756670     1.6664010     0.1857370
  O        1.6511300    -1.1930600    -0.6768240
  O       -3.2820610    -0.0444860    -0.5140140
  N        0.2152580     0.2772540     0.2951010
  C       -0.9464590    -0.4858680    -0.1100250
  C       -1.2010820    -1.6869190     0.8036840
  C        2.5941300     0.7851170     0.3678910
  C        1.5009985    -0.1670809    -0.0902505
  C       -2.1892550     0.3702600    -0.1810000
  C        3.9250852     0.2466190    -0.1346805
  H       -0.7666830    -0.8628490    -1.1247510
  H        0.0773990     1.1958980     0.6978160
  H       -1.3680630    -1.3508140     1.8303240
  H       -2.0758160    -2.2433210     0.4601180
  H       -0.3237180    -2.3338760     0.7750620
  H        2.3897550     1.7945520    -0.0146150
  H        2.5759940     0.8629050     1.4619760
  H        4.1547340    -0.7097650     0.2816620
  H        3.9712690     0.2233490    -1.2012200
  H        4.7420490     0.9661550     0.2171920
  H       -2.8492950     2.1039740     0.1058080
units angstrom
no_reorient  #important for SAPT in psi4, default
symmetry c1  #important for SAPT in psi4, default
}

set PROPERTIES_ORIGIN ["COM"]
properties('MP2/aug-cc-pvtz', properties = ['dipole'])
--------------------------------------------------------------------------

    Molecular point group: c1
  Charge       = 0
  Multiplicity = 1
  Basis Set: AUG-CC-PVTZ
    Blend: AUG-CC-PVTZ
  Basis Set: (AUG-CC-PVTZ AUX)
    Blend: AUG-CC-PVTZ-JKFIT

    Orbital Energies [Eh]
    ---------------------

    Doubly Occupied:

       1A    -20.632593     2A    -20.560563     3A    -20.536203
       4A    -15.581370     5A    -11.401118     6A    -11.356503
       7A    -11.291328     8A    -11.248125     9A    -11.224108
      10A    -11.221354    11A     -1.475010    12A     -1.410483
      13A     -1.370365    14A     -1.233266    15A     -1.072872
      16A     -1.031417    17A     -0.923337    18A     -0.883936
      19A     -0.812112    20A     -0.782602    21A     -0.727947
      22A     -0.711506    23A     -0.684934    24A     -0.663471
      25A     -0.646109    26A     -0.636671    27A     -0.610153
      28A     -0.606300    29A     -0.580927    30A     -0.546098
      31A     -0.543049    32A     -0.527525    33A     -0.523240
      34A     -0.511828    35A     -0.505117    36A     -0.491251
      37A     -0.466301    38A     -0.430394    39A     -0.396170

  @DF-RHF Final Energy:  -512.88119258524500

   => Energetics <=

    Nuclear Repulsion Energy =            548.4898929615785619
    One-Electron Energy =               -1789.0268574113749764
    Two-Electron Energy =                 727.6557718645514115
    Total Energy =                       -512.8811925852450031
  Basis Set: (AUG-CC-PVTZ AUX)
    Blend: AUG-CC-PVTZ-RI
    Molecular point group: c1

    Geometry (in Angstrom), charge = 0, multiplicity = 1:

       Center              X                  Y                   Z               Mass
    ------------   -----------------  -----------------  -----------------  -----------------
         O           -1.976618673859     1.672391849389     0.189597646988    15.994914619570
         O            1.650178326141    -1.187069150611    -0.672963353012    15.994914619570
         O           -3.283012673859    -0.038495150611    -0.510153353012    15.994914619570
         N            0.214306326141     0.283244849389     0.298961646988    14.003074004430
         C           -0.947410673859    -0.479877150611    -0.106164353012    12.000000000000
         C           -1.202033673859    -1.680928150611     0.807544646988    12.000000000000
         C            2.593178326141     0.791107849389     0.371751646988    12.000000000000
         C            1.500046826141    -0.161090050611    -0.086389853012    12.000000000000
         C           -2.190206673859     0.376250849389    -0.177139353012    12.000000000000
         C            3.924133526141     0.252609849389    -0.130819853012    12.000000000000
         H           -0.767634673859    -0.856858150611    -1.120890353012     1.007825032230
         H            0.076447326141     1.201888849389     0.701676646988     1.007825032230
         H           -1.369014673859    -1.344823150611     1.834184646988     1.007825032230
         H           -2.076767673859    -2.237330150611     0.463978646988     1.007825032230
         H           -0.324669673859    -2.327885150611     0.778922646988     1.007825032230
         H            2.388803326141     1.800542849389    -0.010754353012     1.007825032230
         H            2.575042326141     0.868895849389     1.465836646988     1.007825032230
         H            4.153782326141    -0.703774150611     0.285522646988     1.007825032230
         H            3.970317326141     0.229339849389    -1.197359353012     1.007825032230
         H            4.741097326141     0.972145849389     0.221052646988     1.007825032230
         H           -2.850246673859     2.109964849389     0.109668646988     1.007825032230

  Basis Set: AUG-CC-PVTZ
    Blend: AUG-CC-PVTZ
  Basis Set: (AUG-CC-PVTZ AUX)
    Blend: AUG-CC-PVTZ-JKFIT
	 Reference Energy          =    -512.8811925852450031 [Eh]
	 Singles Energy            =      -0.0000000000000000 [Eh]
	 Same-Spin Energy          =      -0.5107198421421987 [Eh]
	 Opposite-Spin Energy      =      -1.6138271189269959 [Eh]
	 Correlation Energy        =      -2.1245469610691945 [Eh]
	 Total Energy              =    -515.0057395463142029 [Eh]

	 ================> DF-SCS-MP2 Energies <==================
	-----------------------------------------------------------
	 SCS Same-Spin Scale       =       0.3333333333333333 [-]
	 SCS Opposite-Spin Scale   =       1.2000000000000000 [-]
	 SCS Same-Spin Energy      =      -0.1702399473807329 [Eh]
	 SCS Opposite-Spin Energy  =      -1.9365925427123951 [Eh]
	 SCS Correlation Energy    =      -2.1068324900931281 [Eh]
	 SCS Total Energy          =    -514.9880250753381006 [Eh]
	-----------------------------------------------------------

  Dipole Moment: [D]
     X:     0.3532      Y:     3.1091      Z:     1.7871     Total:     3.6034

*** Psi4 exiting successfully. Buy a developer a beer!
