                               Psi4 1.3.2 release

  ==> Input File <==

--------------------------------------------------------------------------
#psi4
#
memory 32 gb

molecule  {
0 1
  O       -1.9299105     1.6557937     0.1934874
  O        1.6511300    -1.1930600    -0.6768240
  O       -3.2820610    -0.0444860    -0.5140140
  N        0.2152580     0.2772540     0.2951010
  C       -0.9194539    -0.4436760    -0.0935485
  C       -1.2010820    -1.6869190     0.8036840
  C        2.5941300     0.7851170     0.3678910
  C        1.4652130    -0.1360080    -0.0663740
  C       -2.1892550     0.3702600    -0.1810000
  C        3.9493650     0.2879730    -0.1118860
  H       -0.7666830    -0.8628490    -1.1247510
  H        0.0773990     1.1958980     0.6978160
  H       -1.3680630    -1.3508140     1.8303240
  H       -2.0758160    -2.2433210     0.4601180
  H       -0.3237180    -2.3338760     0.7750620
  H        2.3897550     1.7945520    -0.0146150
  H        2.5759940     0.8629050     1.4619760
  H        4.1547340    -0.7097650     0.2816620
  H        3.9712690     0.2233490    -1.2012200
  H        4.7420490     0.9661550     0.2171920
  H       -2.8492950     2.1039740     0.1058080
units angstrom
no_reorient  #important for SAPT in psi4, default
symmetry c1  #important for SAPT in psi4, default
}

set PROPERTIES_ORIGIN ["COM"]
properties('MP2/aug-cc-pvtz', properties = ['dipole'])
--------------------------------------------------------------------------

    Molecular point group: c1
  Charge       = 0
  Multiplicity = 1
  Basis Set: AUG-CC-PVTZ
    Blend: AUG-CC-PVTZ
  Basis Set: (AUG-CC-PVTZ AUX)
    Blend: AUG-CC-PVTZ-JKFIT

    Orbital Energies [Eh]
    ---------------------

    Doubly Occupied:

       1A    -20.640380     2A    -20.565770     3A    -20.526204
       4A    -15.592993     5A    -11.404898     6A    -11.357728
       7A    -11.293171     8A    -11.248619     9A    -11.225706
      10A    -11.220194    11A     -1.474134    12A     -1.383208
      13A     -1.372937    14A     -1.255686    15A     -1.073240
      16A     -1.031847    17A     -0.925011    18A     -0.886088
      19A     -0.809207    20A     -0.796713    21A     -0.733774
      22A     -0.711927    23A     -0.685527    24A     -0.664139
      25A     -0.641998    26A     -0.633895    27A     -0.607047
      28A     -0.601742    29A     -0.581758    30A     -0.545612
      31A     -0.539402    32A     -0.527465    33A     -0.520389
      34A     -0.516130    35A     -0.498960    36A     -0.486749
      37A     -0.466222    38A     -0.430594    39A     -0.396640

  @DF-RHF Final Energy:  -512.87573688427301

   => Energetics <=

    Nuclear Repulsion Energy =            549.0790138573422610
    One-Electron Energy =               -1790.1620924274393474
    Two-Electron Energy =                 728.2073416858240762
    Total Energy =                       -512.8757368842730102
  Basis Set: (AUG-CC-PVTZ AUX)
    Blend: AUG-CC-PVTZ-RI
    Molecular point group: c1

    Geometry (in Angstrom), charge = 0, multiplicity = 1:

       Center              X                  Y                   Z               Mass
    ------------   -----------------  -----------------  -----------------  -----------------
         O           -1.937189046948     1.653473171543     0.191270199577    15.994914619570
         O            1.643851453052    -1.195380528457    -0.679041200423    15.994914619570
         O           -3.289339546948    -0.046806528457    -0.516231200423    15.994914619570
         N            0.207979453052     0.274933471543     0.292883799577    14.003074004430
         C           -0.926732446948    -0.445996528457    -0.095765700423    12.000000000000
         C           -1.208360546948    -1.689239528457     0.801466799577    12.000000000000
         C            2.586851453052     0.782796471543     0.365673799577    12.000000000000
         C            1.457934453052    -0.138328528457    -0.068591200423    12.000000000000
         C           -2.196533546948     0.367939471543    -0.183217200423    12.000000000000
         C            3.942086453052     0.285652471543    -0.114103200423    12.000000000000
         H           -0.773961546948    -0.865169528457    -1.126968200423     1.007825032230
         H            0.070120453052     1.193577471543     0.695598799577     1.007825032230
         H           -1.375341546948    -1.353134528457     1.828106799577     1.007825032230
         H           -2.083094546948    -2.245641528457     0.457900799577     1.007825032230
         H           -0.330996546948    -2.336196528457     0.772844799577     1.007825032230
         H            2.382476453052     1.792231471543    -0.016832200423     1.007825032230
         H            2.568715453052     0.860584471543     1.459758799577     1.007825032230
         H            4.147455453052    -0.712085528457     0.279444799577     1.007825032230
         H            3.963990453052     0.221028471543    -1.203437200423     1.007825032230
         H            4.734770453052     0.963834471543     0.214974799577     1.007825032230
         H           -2.856573546948     2.101653471543     0.103590799577     1.007825032230

  Basis Set: AUG-CC-PVTZ
    Blend: AUG-CC-PVTZ
  Basis Set: (AUG-CC-PVTZ AUX)
    Blend: AUG-CC-PVTZ-JKFIT
	 Reference Energy          =    -512.8757368842730102 [Eh]
	 Singles Energy            =      -0.0000000000000000 [Eh]
	 Same-Spin Energy          =      -0.5129726662544060 [Eh]
	 Opposite-Spin Energy      =      -1.6176374545584213 [Eh]
	 Correlation Energy        =      -2.1306101208128272 [Eh]
	 Total Energy              =    -515.0063470050857859 [Eh]

	 ================> DF-SCS-MP2 Energies <==================
	-----------------------------------------------------------
	 SCS Same-Spin Scale       =       0.3333333333333333 [-]
	 SCS Opposite-Spin Scale   =       1.2000000000000000 [-]
	 SCS Same-Spin Energy      =      -0.1709908887514686 [Eh]
	 SCS Opposite-Spin Energy  =      -1.9411649454701054 [Eh]
	 SCS Correlation Energy    =      -2.1121558342215740 [Eh]
	 SCS Total Energy          =    -514.9878927184945496 [Eh]
	-----------------------------------------------------------

  Dipole Moment: [D]
     X:     0.0182      Y:     3.4314      Z:     1.9516     Total:     3.9476

*** Psi4 exiting successfully. Buy a developer a beer!
