                               Psi4 1.3.2 release

  ==> Input File <==

--------------------------------------------------------------------------
#psi4
#
memory 32 gb

molecule  {
0 1
  O       -1.9986463     1.6711132     0.1816936
  O        1.6511300    -1.1930600    -0.6768240
  O       -3.2820610    -0.0444860    -0.5140140
  N        0.2152580     0.2772540     0.2951010
  C       -0.9605315    -0.5065760    -0.1182969
  C       -1.2010820    -1.6869190     0.8036840
  C        2.5941300     0.7851170     0.3678910
  C        1.4652130    -0.1360080    -0.0663740
  C       -2.1892550     0.3702600    -0.1810000
  C        3.9493650     0.2879730    -0.1118860
  H       -0.7666830    -0.8628490    -1.1247510
  H        0.0773990     1.1958980     0.6978160
  H       -1.3680630    -1.3508140     1.8303240
  H       -2.0758160    -2.2433210     0.4601180
  H       -0.3237180    -2.3338760     0.7750620
  H        2.3897550     1.7945520    -0.0146150
  H        2.5759940     0.8629050     1.4619760
  H        4.1547340    -0.7097650     0.2816620
  H        3.9712690     0.2233490    -1.2012200
  H        4.7420490     0.9661550     0.2171920
  H       -2.8492950     2.1039740     0.1058080
units angstrom
no_reorient  #important for SAPT in psi4, default
symmetry c1  #important for SAPT in psi4, default
}

set PROPERTIES_ORIGIN ["COM"]
properties('MP2/aug-cc-pvtz', properties = ['dipole'])
--------------------------------------------------------------------------

    Molecular point group: c1
  Charge       = 0
  Multiplicity = 1
  Basis Set: AUG-CC-PVTZ
    Blend: AUG-CC-PVTZ
  Basis Set: (AUG-CC-PVTZ AUX)
    Blend: AUG-CC-PVTZ-JKFIT

    Orbital Energies [Eh]
    ---------------------

    Doubly Occupied:

       1A    -20.633566     2A    -20.562891     3A    -20.523804
       4A    -15.591868     5A    -11.404924     6A    -11.355342
       7A    -11.298407     8A    -11.247026     9A    -11.227539
      10A    -11.219154    11A     -1.480993    12A     -1.379485
      13A     -1.374101    14A     -1.240536    15A     -1.076147
      16A     -1.037262    17A     -0.929614    18A     -0.885069
      19A     -0.821538    20A     -0.790325    21A     -0.729771
      22A     -0.715386    23A     -0.681510    24A     -0.666645
      25A     -0.640848    26A     -0.633591    27A     -0.611592
      28A     -0.602698    29A     -0.580628    30A     -0.548576
      31A     -0.544531    32A     -0.522539    33A     -0.522087
      34A     -0.518988    35A     -0.496887    36A     -0.488773
      37A     -0.468217    38A     -0.427852    39A     -0.401357

  @DF-RHF Final Energy:  -512.88683729921252

   => Energetics <=

    Nuclear Repulsion Energy =            547.7858286245578938
    One-Electron Energy =               -1787.5811996060572255
    Two-Electron Energy =                 726.9085336822867021
    Total Energy =                       -512.8868372992125160
  Basis Set: (AUG-CC-PVTZ AUX)
    Blend: AUG-CC-PVTZ-RI
    Molecular point group: c1

    Geometry (in Angstrom), charge = 0, multiplicity = 1:

       Center              X                  Y                   Z               Mass
    ------------   -----------------  -----------------  -----------------  -----------------
         O           -1.994948685648     1.672306507797     0.182823808358    15.994914619570
         O            1.654827614352    -1.191866692203    -0.675693791642    15.994914619570
         O           -3.278363385648    -0.043292692203    -0.512883791642    15.994914619570
         N            0.218955614352     0.278447307797     0.296231208358    14.003074004430
         C           -0.956833885648    -0.505382692203    -0.117166691642    12.000000000000
         C           -1.197384385648    -1.685725692203     0.804814208358    12.000000000000
         C            2.597827614352     0.786310307797     0.369021208358    12.000000000000
         C            1.468910614352    -0.134814692203    -0.065243791642    12.000000000000
         C           -2.185557385648     0.371453307797    -0.179869791642    12.000000000000
         C            3.953062614352     0.289166307797    -0.110755791642    12.000000000000
         H           -0.762985385648    -0.861655692203    -1.123620791642     1.007825032230
         H            0.081096614352     1.197091307797     0.698946208358     1.007825032230
         H           -1.364365385648    -1.349620692203     1.831454208358     1.007825032230
         H           -2.072118385648    -2.242127692203     0.461248208358     1.007825032230
         H           -0.320020385648    -2.332682692203     0.776192208358     1.007825032230
         H            2.393452614352     1.795745307797    -0.013484791642     1.007825032230
         H            2.579691614352     0.864098307797     1.463106208358     1.007825032230
         H            4.158431614352    -0.708571692203     0.282792208358     1.007825032230
         H            3.974966614352     0.224542307797    -1.200089791642     1.007825032230
         H            4.745746614352     0.967348307797     0.218322208358     1.007825032230
         H           -2.845597385648     2.105167307797     0.106938208358     1.007825032230

  Basis Set: AUG-CC-PVTZ
    Blend: AUG-CC-PVTZ
  Basis Set: (AUG-CC-PVTZ AUX)
    Blend: AUG-CC-PVTZ-JKFIT
	 Reference Energy          =    -512.8868372992125160 [Eh]
	 Singles Energy            =      -0.0000000000000000 [Eh]
	 Same-Spin Energy          =      -0.5107221276811987 [Eh]
	 Opposite-Spin Energy      =      -1.6139170520099853 [Eh]
	 Correlation Energy        =      -2.1246391796911839 [Eh]
	 Total Energy              =    -515.0114764789036599 [Eh]

	 ================> DF-SCS-MP2 Energies <==================
	-----------------------------------------------------------
	 SCS Same-Spin Scale       =       0.3333333333333333 [-]
	 SCS Opposite-Spin Scale   =       1.2000000000000000 [-]
	 SCS Same-Spin Energy      =      -0.1702407092270662 [Eh]
	 SCS Opposite-Spin Energy  =      -1.9367004624119821 [Eh]
	 SCS Correlation Energy    =      -2.1069411716390483 [Eh]
	 SCS Total Energy          =    -514.9937784708515665 [Eh]
	-----------------------------------------------------------

  Dipole Moment: [D]
     X:    -0.0737      Y:     3.2535      Z:     1.9658     Total:     3.8020

*** Psi4 exiting successfully. Buy a developer a beer!
