                               Psi4 1.3.2 release

  ==> Input File <==

--------------------------------------------------------------------------
#psi4
#
memory 32 gb

molecule  {
0 1
  O       -1.9756670     1.6664010     0.1857370
  O        1.6511300    -1.1930600    -0.6768240
  O       -3.2820610    -0.0444860    -0.5140140
  N        0.2152580     0.2772540     0.2951010
  C       -0.9464590    -0.4858680    -0.1100250
  C       -1.2010820    -1.6869190     0.8036840
  C        2.5941300     0.7851170     0.3678910
  C        1.4652130    -0.1360080    -0.0663740
  C       -2.1892550     0.3702600    -0.1810000
  C        3.9493650     0.2879730    -0.1118860
  H       -0.7666830    -0.8628490    -1.1247510
  H        0.0773990     1.1958980     0.6978160
  H       -1.3680630    -1.3508140     1.8303240
  H       -2.0758160    -2.2433210     0.4601180
  H       -0.3237180    -2.3338760     0.7750620
  H        2.3897550     1.7945520    -0.0146150
  H        2.5759940     0.8629050     1.4619760
  H        4.1547340    -0.7097650     0.2816620
  H        3.9712690     0.2233490    -1.2012200
  H        4.7420490     0.9661550     0.2171920
  H       -2.6710671     2.0147052     0.1221142
units angstrom
no_reorient  #important for SAPT in psi4, default
symmetry c1  #important for SAPT in psi4, default
}

set PROPERTIES_ORIGIN ["COM"]
properties('MP2/aug-cc-pvtz', properties = ['dipole'])
--------------------------------------------------------------------------

    Molecular point group: c1
  Charge       = 0
  Multiplicity = 1
  Basis Set: AUG-CC-PVTZ
    Blend: AUG-CC-PVTZ
  Basis Set: (AUG-CC-PVTZ AUX)
    Blend: AUG-CC-PVTZ-JKFIT

    Orbital Energies [Eh]
    ---------------------

    Doubly Occupied:

       1A    -20.619694     2A    -20.568148     3A    -20.525599
       4A    -15.593668     5A    -11.408943     6A    -11.357191
       7A    -11.297607     8A    -11.248346     9A    -11.228130
      10A    -11.220121    11A     -1.524594    12A     -1.392798
      13A     -1.381698    14A     -1.247732    15A     -1.077678
      16A     -1.038036    17A     -0.947629    18A     -0.893272
      19A     -0.840913    20A     -0.794973    21A     -0.736453
      22A     -0.731200    23A     -0.685585    24A     -0.669750
      25A     -0.643896    26A     -0.637258    27A     -0.620091
      28A     -0.604676    29A     -0.582466    30A     -0.549895
      31A     -0.546484    32A     -0.525050    33A     -0.522742
      34A     -0.520108    35A     -0.501020    36A     -0.490087
      37A     -0.471223    38A     -0.429882    39A     -0.401626

  @DF-RHF Final Energy:  -512.84241202107467

   => Energetics <=

    Nuclear Repulsion Energy =            549.7438922649946562
    One-Electron Energy =               -1791.0200887916225838
    Two-Electron Energy =                 728.4337845055532625
    Total Energy =                       -512.8424120210746651
  Basis Set: (AUG-CC-PVTZ AUX)
    Blend: AUG-CC-PVTZ-RI
    Molecular point group: c1

    Geometry (in Angstrom), charge = 0, multiplicity = 1:

       Center              X                  Y                   Z               Mass
    ------------   -----------------  -----------------  -----------------  -----------------
         O           -1.976905108160     1.667021100377     0.185623907925    15.994914619570
         O            1.649891891840    -1.192439899623    -0.676937092075    15.994914619570
         O           -3.283299108160    -0.043865899623    -0.514127092075    15.994914619570
         N            0.214019891840     0.277874100377     0.294987907925    14.003074004430
         C           -0.947697108160    -0.485247899623    -0.110138092075    12.000000000000
         C           -1.202320108160    -1.686298899623     0.803570907925    12.000000000000
         C            2.592891891840     0.785737100377     0.367777907925    12.000000000000
         C            1.463974891840    -0.135387899623    -0.066487092075    12.000000000000
         C           -2.190493108160     0.370880100377    -0.181113092075    12.000000000000
         C            3.948126891840     0.288593100377    -0.111999092075    12.000000000000
         H           -0.767921108160    -0.862228899623    -1.124864092075     1.007825032230
         H            0.076160891840     1.196518100377     0.697702907925     1.007825032230
         H           -1.369301108160    -1.350193899623     1.830210907925     1.007825032230
         H           -2.077054108160    -2.242700899623     0.460004907925     1.007825032230
         H           -0.324956108160    -2.333255899623     0.774948907925     1.007825032230
         H            2.388516891840     1.795172100377    -0.014728092075     1.007825032230
         H            2.574755891840     0.863525100377     1.461862907925     1.007825032230
         H            4.153495891840    -0.709144899623     0.281548907925     1.007825032230
         H            3.970030891840     0.223969100377    -1.201333092075     1.007825032230
         H            4.740810891840     0.966775100377     0.217078907925     1.007825032230
         H           -2.672305208160     2.015325300377     0.122001107925     1.007825032230

  Basis Set: AUG-CC-PVTZ
    Blend: AUG-CC-PVTZ
  Basis Set: (AUG-CC-PVTZ AUX)
    Blend: AUG-CC-PVTZ-JKFIT
	 Reference Energy          =    -512.8424120210746651 [Eh]
	 Singles Energy            =      -0.0000000000000000 [Eh]
	 Same-Spin Energy          =      -0.5088796973087485 [Eh]
	 Opposite-Spin Energy      =      -1.6097407447635992 [Eh]
	 Correlation Energy        =      -2.1186204420723476 [Eh]
	 Total Energy              =    -514.9610324631470348 [Eh]

	 ================> DF-SCS-MP2 Energies <==================
	-----------------------------------------------------------
	 SCS Same-Spin Scale       =       0.3333333333333333 [-]
	 SCS Opposite-Spin Scale   =       1.2000000000000000 [-]
	 SCS Same-Spin Energy      =      -0.1696265657695828 [Eh]
	 SCS Opposite-Spin Energy  =      -1.9316888937163190 [Eh]
	 SCS Correlation Energy    =      -2.1013154594859018 [Eh]
	 SCS Total Energy          =    -514.9437274805605966 [Eh]
	-----------------------------------------------------------

  Dipole Moment: [D]
     X:     0.1526      Y:     3.1209      Z:     1.9556     Total:     3.6861

*** Psi4 exiting successfully. Buy a developer a beer!
