                               Psi4 1.4a3.dev225

  ==> Input File <==

--------------------------------------------------------------------------
#psi4
#
memory 32 gb

molecule  {
0 1
  O        2.1858500    -1.4843500     0.4466430
  O       -1.5901990     1.2021140    -0.7742790
  O        3.2899360     0.0893000    -0.7567370
  N       -0.1552130    -0.3501220     0.0655300
  C        0.9973750     0.5138300    -0.1038320
  C        1.1366130     1.5332170     1.0331740
  C       -2.5208420    -0.9251940    -0.0919400
  C       -1.4008270     0.0814870    -0.2899980
  C        2.2713450    -0.2912280    -0.2118740
  C       -3.8280260    -0.2360070     0.2837800
  H        0.8775072     1.0442707    -1.0294171
  H       -0.0274960    -1.2421660     0.5250420
  H        1.2555520     1.0181310     1.9903510
  H        2.0023980     2.1787030     0.8613650
  H        0.2327940     2.1443920     1.0604580
  H       -2.6404080    -1.4674310    -1.0380590
  H       -2.2372030    -1.6677960     0.6628800
  H       -3.7417830     0.2575120     1.2553170
  H       -4.0728600     0.5241080    -0.4590610
  H       -4.6456460    -0.9595500     0.3374610
  H        3.0673500    -1.9023430     0.3513230
units angstrom
no_reorient  #important for SAPT in psi4, default
symmetry c1  #important for SAPT in psi4, default
}

set PROPERTIES_ORIGIN ["COM"]
properties('MP2/aug-cc-pvtz', properties = ['dipole'])
--------------------------------------------------------------------------

    Molecular point group: c1
  Charge       = 0
  Multiplicity = 1
  Basis Set: AUG-CC-PVTZ
    Blend: AUG-CC-PVTZ
  Basis Set: (AUG-CC-PVTZ AUX)
    Blend: AUG-CC-PVTZ-JKFIT

    Orbital Energies [Eh]
    ---------------------

    Doubly Occupied:

       1A    -20.634523     2A    -20.565340     3A    -20.522653
       4A    -15.595821     5A    -11.404066     6A    -11.356922
       7A    -11.294530     8A    -11.247743     9A    -11.232904
      10A    -11.222395    11A     -1.476616    12A     -1.379519
      13A     -1.372839    14A     -1.246155    15A     -1.076640
      16A     -1.037855    17A     -0.928033    18A     -0.886580
      19A     -0.824140    20A     -0.794659    21A     -0.727628
      22A     -0.714551    23A     -0.680460    24A     -0.661102
      25A     -0.643478    26A     -0.634873    27A     -0.611235
      28A     -0.599269    29A     -0.584440    30A     -0.556465
      31A     -0.550808    32A     -0.529545    33A     -0.523674
      34A     -0.513380    35A     -0.498074    36A     -0.488037
      37A     -0.469515    38A     -0.427642    39A     -0.400489

  @DF-RHF Final Energy:  -512.88644766802054

   => Energetics <=

    Nuclear Repulsion Energy =            547.9954207635178136
    One-Electron Energy =               -1787.9345349473478564
    Two-Electron Energy =                 727.0526665158095057
    Total Energy =                       -512.8864476680205371
  Basis Set: (AUG-CC-PVTZ AUX)
    Blend: AUG-CC-PVTZ-RI
    Molecular point group: c1

    Geometry (in Angstrom), charge = 0, multiplicity = 1:

       Center              X                  Y                   Z               Mass
    ------------   -----------------  -----------------  -----------------  -----------------
         O            2.118047770364    -1.484706693049     0.477262577916    15.994914619570
         O           -1.658001229636     1.201757306951    -0.743659422084    15.994914619570
         O            3.222133770364     0.088943306951    -0.726117422084    15.994914619570
         N           -0.223015229636    -0.350478693049     0.096149577916    14.003074004430
         C            0.929572770364     0.513473306951    -0.073212422084    12.000000000000
         C            1.068810770364     1.532860306951     1.063793577916    12.000000000000
         C           -2.588644229636    -0.925550693049    -0.061320422084    12.000000000000
         C           -1.468629229636     0.081130306951    -0.259378422084    12.000000000000
         C            2.203542770364    -0.291584693049    -0.181254422084    12.000000000000
         C           -3.895828229636    -0.236363693049     0.314399577916    12.000000000000
         H            0.809704970364     1.043914006951    -0.998797522084     1.007825032230
         H           -0.095298229636    -1.242522693049     0.555661577916     1.007825032230
         H            1.187749770364     1.017774306951     2.020970577916     1.007825032230
         H            1.934595770364     2.178346306951     0.891984577916     1.007825032230
         H            0.164991770364     2.144035306951     1.091077577916     1.007825032230
         H           -2.708210229636    -1.467787693049    -1.007439422084     1.007825032230
         H           -2.305005229636    -1.668152693049     0.693499577916     1.007825032230
         H           -3.809585229636     0.257155306951     1.285936577916     1.007825032230
         H           -4.140662229636     0.523751306951    -0.428441422084     1.007825032230
         H           -4.713448229636    -0.959906693049     0.368080577916     1.007825032230
         H            2.999547770364    -1.902699693049     0.381942577916     1.007825032230

  Basis Set: AUG-CC-PVTZ
    Blend: AUG-CC-PVTZ
  Basis Set: (AUG-CC-PVTZ AUX)
    Blend: AUG-CC-PVTZ-JKFIT
	 Reference Energy          =    -512.8864476680205371 [Eh]
	 Singles Energy            =      -0.0000000000000000 [Eh]
	 Same-Spin Energy          =      -0.5111370959474127 [Eh]
	 Opposite-Spin Energy      =      -1.6149538653279021 [Eh]
	 Correlation Energy        =      -2.1260909612753149 [Eh]
	 Total Energy              =    -515.0125386292958183 [Eh]

	 ================> DF-SCS-MP2 Energies <==================
	-----------------------------------------------------------
	 SCS Same-Spin Scale       =       0.3333333333333333 [-]
	 SCS Opposite-Spin Scale   =       1.2000000000000000 [-]
	 SCS Same-Spin Energy      =      -0.1703790319824709 [Eh]
	 SCS Opposite-Spin Energy  =      -1.9379446383934824 [Eh]
	 SCS Correlation Energy    =      -2.1083236703759534 [Eh]
	 SCS Total Energy          =    -514.9947713383965038 [Eh]
	-----------------------------------------------------------

  Dipole Moment: [D]
     X:     0.1416      Y:    -3.2906      Z:     2.2922     Total:     4.0128

*** Psi4 exiting successfully. Buy a developer a beer!
