                               Psi4 1.3.2 release

  ==> Input File <==

--------------------------------------------------------------------------
#psi4
#
memory 32 gb

molecule  {
0 1
  O       -1.9756670     1.6664010     0.1857370
  O        1.6511300    -1.1930600    -0.6768240
  O       -3.2820610    -0.0444860    -0.5140140
  N        0.2152580     0.2772540     0.2951010
  C       -0.9464590    -0.4858680    -0.1100250
  C       -1.2010820    -1.6869190     0.8036840
  C        2.5941300     0.7851170     0.3678910
  C        1.4652130    -0.1360080    -0.0663740
  C       -2.2351147     0.3807521    -0.1882833
  C        3.9493650     0.2879730    -0.1118860
  H       -0.7666830    -0.8628490    -1.1247510
  H        0.0773990     1.1958980     0.6978160
  H       -1.3680630    -1.3508140     1.8303240
  H       -2.0758160    -2.2433210     0.4601180
  H       -0.3237180    -2.3338760     0.7750620
  H        2.3897550     1.7945520    -0.0146150
  H        2.5759940     0.8629050     1.4619760
  H        4.1547340    -0.7097650     0.2816620
  H        3.9712690     0.2233490    -1.2012200
  H        4.7420490     0.9661550     0.2171920
  H       -2.8626171     2.0741666     0.0955623
units angstrom
no_reorient  #important for SAPT in psi4, default
symmetry c1  #important for SAPT in psi4, default
}

set PROPERTIES_ORIGIN ["COM"]
properties('MP2/aug-cc-pvtz', properties = ['dipole'])
--------------------------------------------------------------------------

    Molecular point group: c1
  Charge       = 0
  Multiplicity = 1
  Basis Set: AUG-CC-PVTZ
    Blend: AUG-CC-PVTZ
  Basis Set: (AUG-CC-PVTZ AUX)
    Blend: AUG-CC-PVTZ-JKFIT

    Orbital Energies [Eh]
    ---------------------

    Doubly Occupied:

       1A    -20.635954     2A    -20.570428     3A    -20.522569
       4A    -15.589980     5A    -11.400951     6A    -11.354206
       7A    -11.293663     8A    -11.246191     9A    -11.224036
      10A    -11.218439    11A     -1.490208    12A     -1.395901
      13A     -1.378435    14A     -1.241375    15A     -1.070094
      16A     -1.030834    17A     -0.920378    18A     -0.881690
      19A     -0.811093    20A     -0.790830    21A     -0.731344
      22A     -0.720648    23A     -0.681682    24A     -0.667601
      25A     -0.643413    26A     -0.638109    27A     -0.613257
      28A     -0.601584    29A     -0.578860    30A     -0.545739
      31A     -0.544334    32A     -0.522627    33A     -0.520833
      34A     -0.518207    35A     -0.506226    36A     -0.489235
      37A     -0.464172    38A     -0.426807    39A     -0.397470

  @DF-RHF Final Energy:  -512.88523455274981

   => Energetics <=

    Nuclear Repulsion Energy =            548.0830183117333263
    One-Electron Energy =               -1788.1777038187040034
    Two-Electron Energy =                 727.2094509542207561
    Total Energy =                       -512.8852345527498073
  Basis Set: (AUG-CC-PVTZ AUX)
    Blend: AUG-CC-PVTZ-RI
    Molecular point group: c1

    Geometry (in Angstrom), charge = 0, multiplicity = 1:

       Center              X                  Y                   Z               Mass
    ------------   -----------------  -----------------  -----------------  -----------------
         O           -1.971781062279     1.665740153935     0.186410812218    15.994914619570
         O            1.655015937721    -1.193720846065    -0.676150187782    15.994914619570
         O           -3.278175062279    -0.045146846065    -0.513340187782    15.994914619570
         N            0.219143937721     0.276593153935     0.295774812218    14.003074004430
         C           -0.942573062279    -0.486528846065    -0.109351187782    12.000000000000
         C           -1.197196062279    -1.687579846065     0.804357812218    12.000000000000
         C            2.598015937721     0.784456153935     0.368564812218    12.000000000000
         C            1.469098937721    -0.136668846065    -0.065700187782    12.000000000000
         C           -2.231228762279     0.380091253935    -0.187609487782    12.000000000000
         C            3.953250937721     0.287312153935    -0.111212187782    12.000000000000
         H           -0.762797062279    -0.863509846065    -1.124077187782     1.007825032230
         H            0.081284937721     1.195237153935     0.698489812218     1.007825032230
         H           -1.364177062279    -1.351474846065     1.830997812218     1.007825032230
         H           -2.071930062279    -2.243981846065     0.460791812218     1.007825032230
         H           -0.319832062279    -2.334536846065     0.775735812218     1.007825032230
         H            2.393640937721     1.793891153935    -0.013941187782     1.007825032230
         H            2.579879937721     0.862244153935     1.462649812218     1.007825032230
         H            4.158619937721    -0.710425846065     0.282335812218     1.007825032230
         H            3.975154937721     0.222688153935    -1.200546187782     1.007825032230
         H            4.745934937721     0.965494153935     0.217865812218     1.007825032230
         H           -2.858731162279     2.073505753935     0.096236112218     1.007825032230

  Basis Set: AUG-CC-PVTZ
    Blend: AUG-CC-PVTZ
  Basis Set: (AUG-CC-PVTZ AUX)
    Blend: AUG-CC-PVTZ-JKFIT
	 Reference Energy          =    -512.8852345527498073 [Eh]
	 Singles Energy            =      -0.0000000000000000 [Eh]
	 Same-Spin Energy          =      -0.5105869769018669 [Eh]
	 Opposite-Spin Energy      =      -1.6134235131250851 [Eh]
	 Correlation Energy        =      -2.1240104900269521 [Eh]
	 Total Energy              =    -515.0092450427767972 [Eh]

	 ================> DF-SCS-MP2 Energies <==================
	-----------------------------------------------------------
	 SCS Same-Spin Scale       =       0.3333333333333333 [-]
	 SCS Opposite-Spin Scale   =       1.2000000000000000 [-]
	 SCS Same-Spin Energy      =      -0.1701956589672890 [Eh]
	 SCS Opposite-Spin Energy  =      -1.9361082157501022 [Eh]
	 SCS Correlation Energy    =      -2.1063038747173910 [Eh]
	 SCS Total Energy          =    -514.9915384274671624 [Eh]
	-----------------------------------------------------------

  Dipole Moment: [D]
     X:    -0.3535      Y:     3.3129      Z:     1.8820     Total:     3.8266

*** Psi4 exiting successfully. Buy a developer a beer!
