                               Psi4 1.3.2 release

  ==> Input File <==

--------------------------------------------------------------------------
#psi4
#
memory 32 gb

molecule  {
0 1
  O       -1.9756670     1.6664010     0.1857370
  O        1.6511300    -1.1930600    -0.6768240
  O       -3.2977592    -0.0054802    -0.5083765
  N        0.2152580     0.2772540     0.2951010
  C       -0.9192845    -0.4434935    -0.0943132
  C       -1.2010820    -1.6869190     0.8036840
  C        2.5941300     0.7851170     0.3678910
  C        1.4652130    -0.1360080    -0.0663740
  C       -2.1892550     0.3702600    -0.1810000
  C        3.9493650     0.2879730    -0.1118860
  H       -0.7666830    -0.8628490    -1.1247510
  H        0.0773990     1.1958980     0.6978160
  H       -1.3680630    -1.3508140     1.8303240
  H       -2.0758160    -2.2433210     0.4601180
  H       -0.3237180    -2.3338760     0.7750620
  H        2.3897550     1.7945520    -0.0146150
  H        2.5759940     0.8629050     1.4619760
  H        4.1547340    -0.7097650     0.2816620
  H        3.9712690     0.2233490    -1.2012200
  H        4.7420490     0.9661550     0.2171920
  H       -2.8492950     2.1039740     0.1058080
units angstrom
no_reorient  #important for SAPT in psi4, default
symmetry c1  #important for SAPT in psi4, default
}

set PROPERTIES_ORIGIN ["COM"]
properties('MP2/aug-cc-pvtz', properties = ['dipole'])
--------------------------------------------------------------------------

    Molecular point group: c1
  Charge       = 0
  Multiplicity = 1
  Basis Set: AUG-CC-PVTZ
    Blend: AUG-CC-PVTZ
  Basis Set: (AUG-CC-PVTZ AUX)
    Blend: AUG-CC-PVTZ-JKFIT

    Orbital Energies [Eh]
    ---------------------

    Doubly Occupied:

       1A    -20.630848     2A    -20.562714     3A    -20.527814
       4A    -15.595337     5A    -11.404250     6A    -11.359378
       7A    -11.297505     8A    -11.249628     9A    -11.227906
      10A    -11.220975    11A     -1.477600    12A     -1.384819
      13A     -1.369354    14A     -1.258155    15A     -1.075125
      16A     -1.033922    17A     -0.928264    18A     -0.888492
      19A     -0.815578    20A     -0.797876    21A     -0.735118
      22A     -0.712656    23A     -0.687055    24A     -0.664305
      25A     -0.642667    26A     -0.632858    27A     -0.608201
      28A     -0.603262    29A     -0.583694    30A     -0.546870
      31A     -0.540914    32A     -0.528717    33A     -0.521286
      34A     -0.516731    35A     -0.497708    36A     -0.486827
      37A     -0.466708    38A     -0.432149    39A     -0.398720

  @DF-RHF Final Energy:  -512.88204109100616

   => Energetics <=

    Nuclear Repulsion Energy =            548.5606313861787839
    One-Electron Energy =               -1789.0613712592471529
    Two-Electron Energy =                 727.6186987820622107
    Total Energy =                       -512.8820410910061582
  Basis Set: (AUG-CC-PVTZ AUX)
    Blend: AUG-CC-PVTZ-RI
    Molecular point group: c1

    Geometry (in Angstrom), charge = 0, multiplicity = 1:

       Center              X                  Y                   Z               Mass
    ------------   -----------------  -----------------  -----------------  -----------------
         O           -1.976183959058     1.658595354401     0.183816007628    15.994914619570
         O            1.650613040942    -1.200865645599    -0.678744992372    15.994914619570
         O           -3.298276159058    -0.013285845599    -0.510297492372    15.994914619570
         N            0.214741040942     0.269448354401     0.293180007628    14.003074004430
         C           -0.919801459058    -0.451299145599    -0.096234192372    12.000000000000
         C           -1.201598959058    -1.694724645599     0.801763007628    12.000000000000
         C            2.593613040942     0.777311354401     0.365970007628    12.000000000000
         C            1.464696040942    -0.143813645599    -0.068294992372    12.000000000000
         C           -2.189771959058     0.362454354401    -0.182920992372    12.000000000000
         C            3.948848040942     0.280167354401    -0.113806992372    12.000000000000
         H           -0.767199959058    -0.870654645599    -1.126671992372     1.007825032230
         H            0.076882040942     1.188092354401     0.695895007628     1.007825032230
         H           -1.368579959058    -1.358619645599     1.828403007628     1.007825032230
         H           -2.076332959058    -2.251126645599     0.458197007628     1.007825032230
         H           -0.324234959058    -2.341681645599     0.773141007628     1.007825032230
         H            2.389238040942     1.786746354401    -0.016535992372     1.007825032230
         H            2.575477040942     0.855099354401     1.460055007628     1.007825032230
         H            4.154217040942    -0.717570645599     0.279741007628     1.007825032230
         H            3.970752040942     0.215543354401    -1.203140992372     1.007825032230
         H            4.741532040942     0.958349354401     0.215271007628     1.007825032230
         H           -2.849811959058     2.096168354401     0.103887007628     1.007825032230

  Basis Set: AUG-CC-PVTZ
    Blend: AUG-CC-PVTZ
  Basis Set: (AUG-CC-PVTZ AUX)
    Blend: AUG-CC-PVTZ-JKFIT
	 Reference Energy          =    -512.8820410910061582 [Eh]
	 Singles Energy            =      -0.0000000000000000 [Eh]
	 Same-Spin Energy          =      -0.5118178386747065 [Eh]
	 Opposite-Spin Energy      =      -1.6152883728101928 [Eh]
	 Correlation Energy        =      -2.1271062114848993 [Eh]
	 Total Energy              =    -515.0091473024911011 [Eh]

	 ================> DF-SCS-MP2 Energies <==================
	-----------------------------------------------------------
	 SCS Same-Spin Scale       =       0.3333333333333333 [-]
	 SCS Opposite-Spin Scale   =       1.2000000000000000 [-]
	 SCS Same-Spin Energy      =      -0.1706059462249022 [Eh]
	 SCS Opposite-Spin Energy  =      -1.9383460473722312 [Eh]
	 SCS Correlation Energy    =      -2.1089519935971333 [Eh]
	 SCS Total Energy          =    -514.9909930846032466 [Eh]
	-----------------------------------------------------------

  Dipole Moment: [D]
     X:     0.2014      Y:     3.2674      Z:     1.9583     Total:     3.8146

*** Psi4 exiting successfully. Buy a developer a beer!
