                               Psi4 1.3.2 release

  ==> Input File <==

--------------------------------------------------------------------------
#psi4
#
memory 32 gb

molecule  {
0 1
  O       -1.9756670     1.6664010     0.1857370
  O        1.6511300    -1.1930600    -0.6768240
  O       -3.2820610    -0.0444860    -0.5140140
  N        0.2152580     0.2772540     0.2951010
  C       -0.9464590    -0.4858680    -0.1100250
  C       -1.2010820    -1.6869190     0.8036840
  C        2.5941300     0.7851170     0.3678910
  C        1.4652130    -0.1360080    -0.0663740
  C       -2.2791701     0.3361351    -0.2084001
  C        3.9493650     0.2879730    -0.1118860
  H       -0.7666830    -0.8628490    -1.1247510
  H        0.0773990     1.1958980     0.6978160
  H       -1.3680630    -1.3508140     1.8303240
  H       -2.0758160    -2.2433210     0.4601180
  H       -0.3237180    -2.3338760     0.7750620
  H        2.3897550     1.7945520    -0.0146150
  H        2.5759940     0.8629050     1.4619760
  H        4.1547340    -0.7097650     0.2816620
  H        3.9712690     0.2233490    -1.2012200
  H        4.7420490     0.9661550     0.2171920
  H       -2.8492950     2.1039740     0.1058080
units angstrom
no_reorient  #important for SAPT in psi4, default
symmetry c1  #important for SAPT in psi4, default
}

set PROPERTIES_ORIGIN ["COM"]
properties('MP2/aug-cc-pvtz', properties = ['dipole'])
--------------------------------------------------------------------------

    Molecular point group: c1
  Charge       = 0
  Multiplicity = 1
  Basis Set: AUG-CC-PVTZ
    Blend: AUG-CC-PVTZ
  Basis Set: (AUG-CC-PVTZ AUX)
    Blend: AUG-CC-PVTZ-JKFIT

    Orbital Energies [Eh]
    ---------------------

    Doubly Occupied:

       1A    -20.617477     2A    -20.582443     3A    -20.521178
       4A    -15.588632     5A    -11.395610     6A    -11.353031
       7A    -11.293052     8A    -11.245086     9A    -11.223975
      10A    -11.217583    11A     -1.510834    12A     -1.394075
      13A     -1.376824    14A     -1.238615    15A     -1.068656
      16A     -1.030071    17A     -0.914702    18A     -0.877594
      19A     -0.801549    20A     -0.786941    21A     -0.732410
      22A     -0.724964    23A     -0.680400    24A     -0.669073
      25A     -0.646286    26A     -0.638975    27A     -0.614789
      28A     -0.600536    29A     -0.578206    30A     -0.549677
      31A     -0.543460    32A     -0.525849    33A     -0.521559
      34A     -0.517391    35A     -0.512838    36A     -0.488903
      37A     -0.459072    38A     -0.425731    39A     -0.395853

  @DF-RHF Final Energy:  -512.87316963642672

   => Energetics <=

    Nuclear Repulsion Energy =            548.0121886843769516
    One-Electron Energy =               -1788.0429154911287242
    Two-Electron Energy =                 727.1575571703250489
    Total Energy =                       -512.8731696364267236
  Basis Set: (AUG-CC-PVTZ AUX)
    Blend: AUG-CC-PVTZ-RI
    Molecular point group: c1

    Geometry (in Angstrom), charge = 0, multiplicity = 1:

       Center              X                  Y                   Z               Mass
    ------------   -----------------  -----------------  -----------------  -----------------
         O           -1.968229503534     1.669223643244     0.188003626211    15.994914619570
         O            1.658567496466    -1.190237356756    -0.674557373789    15.994914619570
         O           -3.274623503534    -0.041663356756    -0.511747373789    15.994914619570
         N            0.222695496466     0.280076643244     0.297367626211    14.003074004430
         C           -0.939021503534    -0.483045356756    -0.107758373789    12.000000000000
         C           -1.193644503534    -1.684096356756     0.805950626211    12.000000000000
         C            2.601567496466     0.787939643244     0.370157626211    12.000000000000
         C            1.472650496466    -0.133185356756    -0.064107373789    12.000000000000
         C           -2.271732603534     0.338957743244    -0.206133473789    12.000000000000
         C            3.956802496466     0.290795643244    -0.109619373789    12.000000000000
         H           -0.759245503534    -0.860026356756    -1.122484373789     1.007825032230
         H            0.084836496466     1.198720643244     0.700082626211     1.007825032230
         H           -1.360625503534    -1.347991356756     1.832590626211     1.007825032230
         H           -2.068378503534    -2.240498356756     0.462384626211     1.007825032230
         H           -0.316280503534    -2.331053356756     0.777328626211     1.007825032230
         H            2.397192496466     1.797374643244    -0.012348373789     1.007825032230
         H            2.583431496466     0.865727643244     1.464242626211     1.007825032230
         H            4.162171496466    -0.706942356756     0.283928626211     1.007825032230
         H            3.978706496466     0.226171643244    -1.198953373789     1.007825032230
         H            4.749486496466     0.968977643244     0.219458626211     1.007825032230
         H           -2.841857503534     2.106796643244     0.108074626211     1.007825032230

  Basis Set: AUG-CC-PVTZ
    Blend: AUG-CC-PVTZ
  Basis Set: (AUG-CC-PVTZ AUX)
    Blend: AUG-CC-PVTZ-JKFIT
	 Reference Energy          =    -512.8731696364267236 [Eh]
	 Singles Energy            =      -0.0000000000000000 [Eh]
	 Same-Spin Energy          =      -0.5097028322444908 [Eh]
	 Opposite-Spin Energy      =      -1.6120122145413394 [Eh]
	 Correlation Energy        =      -2.1217150467858303 [Eh]
	 Total Energy              =    -514.9948846832126037 [Eh]

	 ================> DF-SCS-MP2 Energies <==================
	-----------------------------------------------------------
	 SCS Same-Spin Scale       =       0.3333333333333333 [-]
	 SCS Opposite-Spin Scale   =       1.2000000000000000 [-]
	 SCS Same-Spin Energy      =      -0.1699009440814969 [Eh]
	 SCS Opposite-Spin Energy  =      -1.9344146574496071 [Eh]
	 SCS Correlation Energy    =      -2.1043156015311038 [Eh]
	 SCS Total Energy          =    -514.9774852379578078 [Eh]
	-----------------------------------------------------------

  Dipole Moment: [D]
     X:    -0.6869      Y:     2.9621      Z:     1.7226     Total:     3.4947

*** Psi4 exiting successfully. Buy a developer a beer!
