                               Psi4 1.4a3.dev225

  ==> Input File <==

--------------------------------------------------------------------------
#psi4
#
memory 32 gb

molecule  {
0 1
  O        2.1858500    -1.4843500     0.4466430
  O       -1.5901990     1.2021140    -0.7742790
  O        3.2899360     0.0893000    -0.7567370
  N       -0.1552130    -0.3501220     0.0655300
  C        0.9973750     0.5138300    -0.1038320
  C        1.1366130     1.5332170     1.0331740
  C       -2.5208420    -0.9251940    -0.0919400
  C       -1.4008270     0.0814870    -0.2899980
  C        2.2713450    -0.2912280    -0.2118740
  C       -3.8280260    -0.2360070     0.2837800
  H        0.8752740     1.0541530    -1.0466610
  H       -0.0211830    -1.2862595     0.5477556
  H        1.2555520     1.0181310     1.9903510
  H        2.0023980     2.1787030     0.8613650
  H        0.2327940     2.1443920     1.0604580
  H       -2.6404080    -1.4674310    -1.0380590
  H       -2.2372030    -1.6677960     0.6628800
  H       -3.7417830     0.2575120     1.2553170
  H       -4.0728600     0.5241080    -0.4590610
  H       -4.6456460    -0.9595500     0.3374610
  H        3.0673500    -1.9023430     0.3513230
units angstrom
no_reorient  #important for SAPT in psi4, default
symmetry c1  #important for SAPT in psi4, default
}

set PROPERTIES_ORIGIN ["COM"]
properties('MP2/aug-cc-pvtz', properties = ['dipole'])
--------------------------------------------------------------------------

    Molecular point group: c1
  Charge       = 0
  Multiplicity = 1
  Basis Set: AUG-CC-PVTZ
    Blend: AUG-CC-PVTZ
  Basis Set: (AUG-CC-PVTZ AUX)
    Blend: AUG-CC-PVTZ-JKFIT

    Orbital Energies [Eh]
    ---------------------

    Doubly Occupied:

       1A    -20.634690     2A    -20.565206     3A    -20.522239
       4A    -15.599760     5A    -11.404045     6A    -11.356501
       7A    -11.296524     8A    -11.247380     9A    -11.232782
      10A    -11.222124    11A     -1.476670    12A     -1.378727
      13A     -1.372809    14A     -1.240943    15A     -1.075457
      16A     -1.036307    17A     -0.927640    18A     -0.885957
      19A     -0.819491    20A     -0.787879    21A     -0.726067
      22A     -0.712799    23A     -0.679980    24A     -0.660183
      25A     -0.642193    26A     -0.633742    27A     -0.610882
      28A     -0.596826    29A     -0.583415    30A     -0.556135
      31A     -0.550574    32A     -0.527399    33A     -0.523086
      34A     -0.512927    35A     -0.497856    36A     -0.487358
      37A     -0.469306    38A     -0.427068    39A     -0.399346

  @DF-RHF Final Energy:  -512.88235921147634

   => Energetics <=

    Nuclear Repulsion Energy =            547.6009701596083232
    One-Electron Energy =               -1787.2061081422230018
    Two-Electron Energy =                 726.7227787711383371
    Total Energy =                       -512.8823592114763414
  Basis Set: (AUG-CC-PVTZ AUX)
    Blend: AUG-CC-PVTZ-RI
    Molecular point group: c1

    Geometry (in Angstrom), charge = 0, multiplicity = 1:

       Center              X                  Y                   Z               Mass
    ------------   -----------------  -----------------  -----------------  -----------------
         O            2.118019428086    -1.484469028622     0.477224580035    15.994914619570
         O           -1.658029571914     1.201994971378    -0.743697419965    15.994914619570
         O            3.222105428086     0.089180971378    -0.726155419965    15.994914619570
         N           -0.223043571914    -0.350241028622     0.096111580035    14.003074004430
         C            0.929544428086     0.513710971378    -0.073250419965    12.000000000000
         C            1.068782428086     1.533097971378     1.063755580035    12.000000000000
         C           -2.588672571914    -0.925313028622    -0.061358419965    12.000000000000
         C           -1.468657571914     0.081367971378    -0.259416419965    12.000000000000
         C            2.203514428086    -0.291347028622    -0.181292419965    12.000000000000
         C           -3.895856571914    -0.236126028622     0.314361580035    12.000000000000
         H            0.807443428086     1.054033971378    -1.016079419965     1.007825032230
         H           -0.089013571914    -1.286378528622     0.578337180035     1.007825032230
         H            1.187721428086     1.018011971378     2.020932580035     1.007825032230
         H            1.934567428086     2.178583971378     0.891946580035     1.007825032230
         H            0.164963428086     2.144272971378     1.091039580035     1.007825032230
         H           -2.708238571914    -1.467550028622    -1.007477419965     1.007825032230
         H           -2.305033571914    -1.667915028622     0.693461580035     1.007825032230
         H           -3.809613571914     0.257392971378     1.285898580035     1.007825032230
         H           -4.140690571914     0.523988971378    -0.428479419965     1.007825032230
         H           -4.713476571914    -0.959669028622     0.368042580035     1.007825032230
         H            2.999519428086    -1.902462028622     0.381904580035     1.007825032230

  Basis Set: AUG-CC-PVTZ
    Blend: AUG-CC-PVTZ
  Basis Set: (AUG-CC-PVTZ AUX)
    Blend: AUG-CC-PVTZ-JKFIT
	 Reference Energy          =    -512.8823592114763414 [Eh]
	 Singles Energy            =      -0.0000000000000000 [Eh]
	 Same-Spin Energy          =      -0.5116609517530948 [Eh]
	 Opposite-Spin Energy      =      -1.6161312244675887 [Eh]
	 Correlation Energy        =      -2.1277921762206837 [Eh]
	 Total Energy              =    -515.0101513876970785 [Eh]

	 ================> DF-SCS-MP2 Energies <==================
	-----------------------------------------------------------
	 SCS Same-Spin Scale       =       0.3333333333333333 [-]
	 SCS Opposite-Spin Scale   =       1.2000000000000000 [-]
	 SCS Same-Spin Energy      =      -0.1705536505843649 [Eh]
	 SCS Opposite-Spin Energy  =      -1.9393574693611064 [Eh]
	 SCS Correlation Energy    =      -2.1099111199454712 [Eh]
	 SCS Total Energy          =    -514.9922703314217642 [Eh]
	-----------------------------------------------------------

  Dipole Moment: [D]
     X:     0.1642      Y:    -3.3298      Z:     2.3122     Total:     4.0572

*** Psi4 exiting successfully. Buy a developer a beer!
