                               Psi4 1.3.2 release

  ==> Input File <==

--------------------------------------------------------------------------
#psi4
#
memory 32 gb

molecule  {
0 1
  O       -1.9756670     1.6664010     0.1857370
  O        1.6511300    -1.1930600    -0.6768240
  O       -3.2820610    -0.0444860    -0.5140140
  N        0.2152580     0.2772540     0.2951010
  C       -0.9464590    -0.4858680    -0.1100250
  C       -1.2135286    -1.6825761     0.8058266
  C        2.5941300     0.7851170     0.3678910
  C        1.4652130    -0.1360080    -0.0663740
  C       -2.1954041     0.3619069    -0.1728614
  C        3.9493650     0.2879730    -0.1118860
  H       -0.7666830    -0.8628490    -1.1247510
  H        0.0773990     1.1958980     0.6978160
  H       -1.3680630    -1.3508140     1.8303240
  H       -2.0758160    -2.2433210     0.4601180
  H       -0.3237180    -2.3338760     0.7750620
  H        2.3897550     1.7945520    -0.0146150
  H        2.5759940     0.8629050     1.4619760
  H        4.1547340    -0.7097650     0.2816620
  H        3.9712690     0.2233490    -1.2012200
  H        4.7420490     0.9661550     0.2171920
  H       -2.8492950     2.1039740     0.1058080
units angstrom
no_reorient  #important for SAPT in psi4, default
symmetry c1  #important for SAPT in psi4, default
}

set PROPERTIES_ORIGIN ["COM"]
properties('MP2/aug-cc-pvtz', properties = ['dipole'])
--------------------------------------------------------------------------

    Molecular point group: c1
  Charge       = 0
  Multiplicity = 1
  Basis Set: AUG-CC-PVTZ
    Blend: AUG-CC-PVTZ
  Basis Set: (AUG-CC-PVTZ AUX)
    Blend: AUG-CC-PVTZ-JKFIT

    Orbital Energies [Eh]
    ---------------------

    Doubly Occupied:

       1A    -20.633813     2A    -20.565029     3A    -20.524560
       4A    -15.592522     5A    -11.404121     6A    -11.356170
       7A    -11.296508     8A    -11.247531     9A    -11.226902
      10A    -11.219471    11A     -1.476960    12A     -1.380708
      13A     -1.375638    14A     -1.245209    15A     -1.075101
      16A     -1.036044    17A     -0.926734    18A     -0.885040
      19A     -0.815440    20A     -0.791871    21A     -0.730637
      22A     -0.714230    23A     -0.682847    24A     -0.665320
      25A     -0.641049    26A     -0.633659    27A     -0.610774
      28A     -0.603067    29A     -0.581270    30A     -0.548047
      31A     -0.541407    32A     -0.524747    33A     -0.520523
      34A     -0.519173    35A     -0.498430    36A     -0.489025
      37A     -0.468063    38A     -0.428765    39A     -0.400261

  @DF-RHF Final Energy:  -512.88588696964234

   => Energetics <=

    Nuclear Repulsion Energy =            548.1875054931778095
    One-Electron Energy =               -1788.3934514985419355
    Two-Electron Energy =                 727.3200590357218971
    Total Energy =                       -512.8858869696423426
  Basis Set: (AUG-CC-PVTZ AUX)
    Blend: AUG-CC-PVTZ-RI
    Molecular point group: c1

    Geometry (in Angstrom), charge = 0, multiplicity = 1:

       Center              X                  Y                   Z               Mass
    ------------   -----------------  -----------------  -----------------  -----------------
         O           -1.974128792379     1.666732661635     0.184886762177    15.994914619570
         O            1.652668207621    -1.192728338365    -0.677674237823    15.994914619570
         O           -3.280522792379    -0.044154338365    -0.514864237823    15.994914619570
         N            0.216796207621     0.277585661635     0.294250762177    14.003074004430
         C           -0.944920792379    -0.485536338365    -0.110875237823    12.000000000000
         C           -1.211990392379    -1.682244438365     0.804976362177    12.000000000000
         C            2.595668207621     0.785448661635     0.367040762177    12.000000000000
         C            1.466751207621    -0.135676338365    -0.067224237823    12.000000000000
         C           -2.193865892379     0.362238561635    -0.173711637823    12.000000000000
         C            3.950903207621     0.288304661635    -0.112736237823    12.000000000000
         H           -0.765144792379    -0.862517338365    -1.125601237823     1.007825032230
         H            0.078937207621     1.196229661635     0.696965762177     1.007825032230
         H           -1.366524792379    -1.350482338365     1.829473762177     1.007825032230
         H           -2.074277792379    -2.242989338365     0.459267762177     1.007825032230
         H           -0.322179792379    -2.333544338365     0.774211762177     1.007825032230
         H            2.391293207621     1.794883661635    -0.015465237823     1.007825032230
         H            2.577532207621     0.863236661635     1.461125762177     1.007825032230
         H            4.156272207621    -0.709433338365     0.280811762177     1.007825032230
         H            3.972807207621     0.223680661635    -1.202070237823     1.007825032230
         H            4.743587207621     0.966486661635     0.216341762177     1.007825032230
         H           -2.847756792379     2.104305661635     0.104957762177     1.007825032230

  Basis Set: AUG-CC-PVTZ
    Blend: AUG-CC-PVTZ
  Basis Set: (AUG-CC-PVTZ AUX)
    Blend: AUG-CC-PVTZ-JKFIT
	 Reference Energy          =    -512.8858869696423426 [Eh]
	 Singles Energy            =      -0.0000000000000000 [Eh]
	 Same-Spin Energy          =      -0.5113192869250842 [Eh]
	 Opposite-Spin Energy      =      -1.6148799573001622 [Eh]
	 Correlation Energy        =      -2.1261992442252464 [Eh]
	 Total Energy              =    -515.0120862138676330 [Eh]

	 ================> DF-SCS-MP2 Energies <==================
	-----------------------------------------------------------
	 SCS Same-Spin Scale       =       0.3333333333333333 [-]
	 SCS Opposite-Spin Scale   =       1.2000000000000000 [-]
	 SCS Same-Spin Energy      =      -0.1704397623083614 [Eh]
	 SCS Opposite-Spin Energy  =      -1.9378559487601945 [Eh]
	 SCS Correlation Energy    =      -2.1082957110685561 [Eh]
	 SCS Total Energy          =    -514.9941826807108782 [Eh]
	-----------------------------------------------------------

  Dipole Moment: [D]
     X:    -0.0696      Y:     3.2642      Z:     1.9551     Total:     3.8056

*** Psi4 exiting successfully. Buy a developer a beer!
