                               Psi4 1.4a3.dev225

  ==> Input File <==

--------------------------------------------------------------------------
#psi4
#
memory 32 gb

molecule  {
0 1
  O        2.1858500    -1.4843500     0.4466430
  O       -1.5901990     1.2021140    -0.7742790
  O        3.2899360     0.0893000    -0.7567370
  N       -0.1552130    -0.3501220     0.0655300
  C        0.9973750     0.5138300    -0.1038320
  C        1.1366130     1.5332170     1.0331740
  C       -2.5208420    -0.9251940    -0.0919400
  C       -1.4008270     0.0814870    -0.2899980
  C        2.2725972    -0.2737523    -0.2215193
  C       -3.8280260    -0.2360070     0.2837800
  H        0.8752740     1.0541530    -1.0466610
  H       -0.0274960    -1.2421660     0.5250420
  H        1.2555520     1.0181310     1.9903510
  H        2.0023980     2.1787030     0.8613650
  H        0.2327940     2.1443920     1.0604580
  H       -2.6404080    -1.4674310    -1.0380590
  H       -2.2372030    -1.6677960     0.6628800
  H       -3.7417830     0.2575120     1.2553170
  H       -4.0728600     0.5241080    -0.4590610
  H       -4.6456460    -0.9595500     0.3374610
  H        3.0673500    -1.9023430     0.3513230
units angstrom
no_reorient  #important for SAPT in psi4, default
symmetry c1  #important for SAPT in psi4, default
}

set PROPERTIES_ORIGIN ["COM"]
properties('MP2/aug-cc-pvtz', properties = ['dipole'])
--------------------------------------------------------------------------

    Molecular point group: c1
  Charge       = 0
  Multiplicity = 1
  Basis Set: AUG-CC-PVTZ
    Blend: AUG-CC-PVTZ
  Basis Set: (AUG-CC-PVTZ AUX)
    Blend: AUG-CC-PVTZ-JKFIT

    Orbital Energies [Eh]
    ---------------------

    Doubly Occupied:

       1A    -20.628727     2A    -20.568390     3A    -20.522786
       4A    -15.596250     5A    -11.403837     6A    -11.357113
       7A    -11.297003     8A    -11.247810     9A    -11.233662
      10A    -11.222433    11A     -1.471825    12A     -1.379830
      13A     -1.374790    14A     -1.246188    15A     -1.077101
      16A     -1.038425    17A     -0.927814    18A     -0.886303
      19A     -0.818767    20A     -0.793623    21A     -0.727206
      22A     -0.713079    23A     -0.680159    24A     -0.658679
      25A     -0.642745    26A     -0.634213    27A     -0.612236
      28A     -0.598897    29A     -0.583931    30A     -0.556814
      31A     -0.551616    32A     -0.528661    33A     -0.523775
      34A     -0.513557    35A     -0.500034    36A     -0.488802
      37A     -0.470386    38A     -0.427874    39A     -0.400943

  @DF-RHF Final Energy:  -512.88604161780472

   => Energetics <=

    Nuclear Repulsion Energy =            547.8804140402725125
    One-Electron Energy =               -1787.7203473455329004
    Two-Electron Energy =                 726.9538916874555525
    Total Energy =                       -512.8860416178047217
  Basis Set: (AUG-CC-PVTZ AUX)
    Blend: AUG-CC-PVTZ-RI
    Molecular point group: c1

    Geometry (in Angstrom), charge = 0, multiplicity = 1:

       Center              X                  Y                   Z               Mass
    ------------   -----------------  -----------------  -----------------  -----------------
         O            2.117959706793    -1.486220873336     0.478180196042    15.994914619570
         O           -1.658089293207     1.200243126664    -0.742741803958    15.994914619570
         O            3.222045706793     0.087429126664    -0.725199803958    15.994914619570
         N           -0.223103293207    -0.351992873336     0.097067196042    14.003074004430
         C            0.929484706793     0.511959126664    -0.072294803958    12.000000000000
         C            1.068722706793     1.531346126664     1.064711196042    12.000000000000
         C           -2.588732293207    -0.927064873336    -0.060402803958    12.000000000000
         C           -1.468717293207     0.079616126664    -0.258460803958    12.000000000000
         C            2.204706906793    -0.275623173336    -0.189982103958    12.000000000000
         C           -3.895916293207    -0.237877873336     0.315317196042    12.000000000000
         H            0.807383706793     1.052282126664    -1.015123803958     1.007825032230
         H           -0.095386293207    -1.244036873336     0.556579196042     1.007825032230
         H            1.187661706793     1.016260126664     2.021888196042     1.007825032230
         H            1.934507706793     2.176832126664     0.892902196042     1.007825032230
         H            0.164903706793     2.142521126664     1.091995196042     1.007825032230
         H           -2.708298293207    -1.469301873336    -1.006521803958     1.007825032230
         H           -2.305093293207    -1.669666873336     0.694417196042     1.007825032230
         H           -3.809673293207     0.255641126664     1.286854196042     1.007825032230
         H           -4.140750293207     0.522237126664    -0.427523803958     1.007825032230
         H           -4.713536293207    -0.961420873336     0.368998196042     1.007825032230
         H            2.999459706793    -1.904213873336     0.382860196042     1.007825032230

  Basis Set: AUG-CC-PVTZ
    Blend: AUG-CC-PVTZ
  Basis Set: (AUG-CC-PVTZ AUX)
    Blend: AUG-CC-PVTZ-JKFIT
	 Reference Energy          =    -512.8860416178047217 [Eh]
	 Singles Energy            =      -0.0000000000000000 [Eh]
	 Same-Spin Energy          =      -0.5111564097122878 [Eh]
	 Opposite-Spin Energy      =      -1.6151644764595208 [Eh]
	 Correlation Energy        =      -2.1263208861718086 [Eh]
	 Total Energy              =    -515.0123625039765329 [Eh]

	 ================> DF-SCS-MP2 Energies <==================
	-----------------------------------------------------------
	 SCS Same-Spin Scale       =       0.3333333333333333 [-]
	 SCS Opposite-Spin Scale   =       1.2000000000000000 [-]
	 SCS Same-Spin Energy      =      -0.1703854699040959 [Eh]
	 SCS Opposite-Spin Energy  =      -1.9381973717514249 [Eh]
	 SCS Correlation Energy    =      -2.1085828416555210 [Eh]
	 SCS Total Energy          =    -514.9946244594602831 [Eh]
	-----------------------------------------------------------

  Dipole Moment: [D]
     X:     0.1509      Y:    -3.1524      Z:     2.2169     Total:     3.8568

*** Psi4 exiting successfully. Buy a developer a beer!
