                               Psi4 1.3.2 release

  ==> Input File <==

--------------------------------------------------------------------------
#psi4
#
memory 32 gb

molecule  {
0 1
  O       -1.9756670     1.6664010     0.1857370
  O        1.6511300    -1.1930600    -0.6768240
  O       -3.2820610    -0.0444860    -0.5140140
  N        0.2152580     0.2772540     0.2951010
  C       -0.9464590    -0.4858680    -0.1100250
  C       -1.2010820    -1.6869190     0.8036840
  C        2.5941300     0.7851170     0.3678910
  C        1.3736562    -0.1057374    -0.0398967
  C       -2.1892550     0.3702600    -0.1810000
  C        3.9493650     0.2879730    -0.1118860
  H       -0.7666830    -0.8628490    -1.1247510
  H        0.0773990     1.1958980     0.6978160
  H       -1.3680630    -1.3508140     1.8303240
  H       -2.0758160    -2.2433210     0.4601180
  H       -0.3237180    -2.3338760     0.7750620
  H        2.3897550     1.7945520    -0.0146150
  H        2.5759940     0.8629050     1.4619760
  H        4.1547340    -0.7097650     0.2816620
  H        3.9712690     0.2233490    -1.2012200
  H        4.7420490     0.9661550     0.2171920
  H       -2.8492950     2.1039740     0.1058080
units angstrom
no_reorient  #important for SAPT in psi4, default
symmetry c1  #important for SAPT in psi4, default
}

set PROPERTIES_ORIGIN ["COM"]
properties('MP2/aug-cc-pvtz', properties = ['dipole'])
--------------------------------------------------------------------------

    Molecular point group: c1
  Charge       = 0
  Multiplicity = 1
  Basis Set: AUG-CC-PVTZ
    Blend: AUG-CC-PVTZ
  Basis Set: (AUG-CC-PVTZ AUX)
    Blend: AUG-CC-PVTZ-JKFIT

    Orbital Energies [Eh]
    ---------------------

    Doubly Occupied:

       1A    -20.642634     2A    -20.569944     3A    -20.505118
       4A    -15.610055     5A    -11.411509     6A    -11.349187
       7A    -11.305433     8A    -11.246071     9A    -11.232927
      10A    -11.215062    11A     -1.485126    12A     -1.379934
      13A     -1.362814    14A     -1.259858    15A     -1.082125
      16A     -1.034407    17A     -0.936550    18A     -0.881202
      19A     -0.827898    20A     -0.815473    21A     -0.741136
      22A     -0.721114    23A     -0.681479    24A     -0.663348
      25A     -0.640764    26A     -0.636218    27A     -0.616741
      28A     -0.598103    29A     -0.573912    30A     -0.552293
      31A     -0.547768    32A     -0.523061    33A     -0.521225
      34A     -0.505515    35A     -0.499445    36A     -0.482997
      37A     -0.473044    38A     -0.410922    39A     -0.402496

  @DF-RHF Final Energy:  -512.86917245056190

   => Energetics <=

    Nuclear Repulsion Energy =            548.8482564969772284
    One-Electron Energy =               -1789.5450387422354197
    Two-Electron Energy =                 727.8276097946962864
    Total Energy =                       -512.8691724505619050
  Basis Set: (AUG-CC-PVTZ AUX)
    Blend: AUG-CC-PVTZ-RI
    Molecular point group: c1

    Geometry (in Angstrom), charge = 0, multiplicity = 1:

       Center              X                  Y                   Z               Mass
    ------------   -----------------  -----------------  -----------------  -----------------
         O           -1.968093707909     1.663897074950     0.183547077995    15.994914619570
         O            1.658703292091    -1.195563925050    -0.679013922005    15.994914619570
         O           -3.274487707909    -0.046989925050    -0.516203922005    15.994914619570
         N            0.222831292091     0.274750074950     0.292911077995    14.003074004430
         C           -0.938885707909    -0.488371925050    -0.112214922005    12.000000000000
         C           -1.193508707909    -1.689422925050     0.801494077995    12.000000000000
         C            2.601703292091     0.782613074950     0.365701077995    12.000000000000
         C            1.381229492091    -0.108241325050    -0.042086622005    12.000000000000
         C           -2.181681707909     0.367756074950    -0.183189922005    12.000000000000
         C            3.956938292091     0.285469074950    -0.114075922005    12.000000000000
         H           -0.759109707909    -0.865352925050    -1.126940922005     1.007825032230
         H            0.084972292091     1.193394074950     0.695626077995     1.007825032230
         H           -1.360489707909    -1.353317925050     1.828134077995     1.007825032230
         H           -2.068242707909    -2.245824925050     0.457928077995     1.007825032230
         H           -0.316144707909    -2.336379925050     0.772872077995     1.007825032230
         H            2.397328292091     1.792048074950    -0.016804922005     1.007825032230
         H            2.583567292091     0.860401074950     1.459786077995     1.007825032230
         H            4.162307292091    -0.712268925050     0.279472077995     1.007825032230
         H            3.978842292091     0.220845074950    -1.203409922005     1.007825032230
         H            4.749622292091     0.963651074950     0.215002077995     1.007825032230
         H           -2.841721707909     2.101470074950     0.103618077995     1.007825032230

  Basis Set: AUG-CC-PVTZ
    Blend: AUG-CC-PVTZ
  Basis Set: (AUG-CC-PVTZ AUX)
    Blend: AUG-CC-PVTZ-JKFIT
	 Reference Energy          =    -512.8691724505619050 [Eh]
	 Singles Energy            =      -0.0000000000000000 [Eh]
	 Same-Spin Energy          =      -0.5121590724479510 [Eh]
	 Opposite-Spin Energy      =      -1.6163828896340742 [Eh]
	 Correlation Energy        =      -2.1285419620820250 [Eh]
	 Total Energy              =    -514.9977144126439725 [Eh]

	 ================> DF-SCS-MP2 Energies <==================
	-----------------------------------------------------------
	 SCS Same-Spin Scale       =       0.3333333333333333 [-]
	 SCS Opposite-Spin Scale   =       1.2000000000000000 [-]
	 SCS Same-Spin Energy      =      -0.1707196908159836 [Eh]
	 SCS Opposite-Spin Energy  =      -1.9396594675608889 [Eh]
	 SCS Correlation Energy    =      -2.1103791583768725 [Eh]
	 SCS Total Energy          =    -514.9795516089387775 [Eh]
	-----------------------------------------------------------

  Dipole Moment: [D]
     X:    -0.8778      Y:     3.5381      Z:     2.1977     Total:     4.2566

*** Psi4 exiting successfully. Buy a developer a beer!
