                               Psi4 1.3.2 release

  ==> Input File <==

--------------------------------------------------------------------------
#psi4
#
memory 32 gb

molecule  {
0 1
  O       -1.9756670     1.6664010     0.1857370
  O        1.6511300    -1.1930600    -0.6768240
  O       -3.2820610    -0.0444860    -0.5140140
  N        0.2152580     0.2772540     0.2951010
  C       -0.9464590    -0.4858680    -0.1100250
  C       -1.2010820    -1.6869190     0.8036840
  C        2.5941300     0.7851170     0.3678910
  C        1.4652130    -0.1360080    -0.0663740
  C       -2.1892550     0.3702600    -0.1810000
  C        3.9474479     0.2765929    -0.1053256
  H       -0.7666830    -0.8628490    -1.1247510
  H        0.0773990     1.1958980     0.6978160
  H       -1.3680630    -1.3508140     1.8303240
  H       -2.0758160    -2.2433210     0.4601180
  H       -0.3237180    -2.3338760     0.7750620
  H        2.3813016     1.7945089    -0.0100919
  H        2.5759940     0.8629050     1.4619760
  H        4.1547340    -0.7097650     0.2816620
  H        3.9712690     0.2233490    -1.2012200
  H        4.7420490     0.9661550     0.2171920
  H       -2.8492950     2.1039740     0.1058080
units angstrom
no_reorient  #important for SAPT in psi4, default
symmetry c1  #important for SAPT in psi4, default
}

set PROPERTIES_ORIGIN ["COM"]
properties('MP2/aug-cc-pvtz', properties = ['dipole'])
--------------------------------------------------------------------------

    Molecular point group: c1
  Charge       = 0
  Multiplicity = 1
  Basis Set: AUG-CC-PVTZ
    Blend: AUG-CC-PVTZ
  Basis Set: (AUG-CC-PVTZ AUX)
    Blend: AUG-CC-PVTZ-JKFIT

    Orbital Energies [Eh]
    ---------------------

    Doubly Occupied:

       1A    -20.635974     2A    -20.563778     3A    -20.524514
       4A    -15.592292     5A    -11.404742     6A    -11.355942
       7A    -11.296383     8A    -11.247633     9A    -11.226874
      10A    -11.219675    11A     -1.478426    12A     -1.380620
      13A     -1.373528    14A     -1.245301    15A     -1.074945
      16A     -1.035624    17A     -0.927759    18A     -0.885548
      19A     -0.816685    20A     -0.792356    21A     -0.730836
      22A     -0.714567    23A     -0.682876    24A     -0.665447
      25A     -0.641410    26A     -0.633418    27A     -0.610277
      28A     -0.602282    29A     -0.581122    30A     -0.546331
      31A     -0.543919    32A     -0.523383    33A     -0.521724
      34A     -0.518791    35A     -0.497871    36A     -0.488212
      37A     -0.467842    38A     -0.428638    39A     -0.400231

  @DF-RHF Final Energy:  -512.88573935906948

   => Energetics <=

    Nuclear Repulsion Energy =            548.2531077927953902
    One-Electron Energy =               -1788.5221404918090684
    Two-Electron Energy =                 727.3832933399442027
    Total Energy =                       -512.8857393590694755
  Basis Set: (AUG-CC-PVTZ AUX)
    Blend: AUG-CC-PVTZ-RI
    Molecular point group: c1

    Geometry (in Angstrom), charge = 0, multiplicity = 1:

       Center              X                  Y                   Z               Mass
    ------------   -----------------  -----------------  -----------------  -----------------
         O           -1.975449661680     1.667342573145     0.185163111738    15.994914619570
         O            1.651347338320    -1.192118426855    -0.677397888262    15.994914619570
         O           -3.281843661680    -0.043544426855    -0.514587888262    15.994914619570
         N            0.215475338320     0.278195573145     0.294527111738    14.003074004430
         C           -0.946241661680    -0.484926426855    -0.110598888262    12.000000000000
         C           -1.200864661680    -1.685977426855     0.803110111738    12.000000000000
         C            2.594347338320     0.786058573145     0.367317111738    12.000000000000
         C            1.465430338320    -0.135066426855    -0.066947888262    12.000000000000
         C           -2.189037661680     0.371201573145    -0.181573888262    12.000000000000
         C            3.947665238320     0.277534473145    -0.105899488262    12.000000000000
         H           -0.766465661680    -0.861907426855    -1.125324888262     1.007825032230
         H            0.077616338320     1.196839573145     0.697242111738     1.007825032230
         H           -1.367845661680    -1.349872426855     1.829750111738     1.007825032230
         H           -2.075598661680    -2.242379426855     0.459544111738     1.007825032230
         H           -0.323500661680    -2.332934426855     0.774488111738     1.007825032230
         H            2.381518938320     1.795450473145    -0.010665788262     1.007825032230
         H            2.576211338320     0.863846573145     1.461402111738     1.007825032230
         H            4.154951338320    -0.708823426855     0.281088111738     1.007825032230
         H            3.971486338320     0.224290573145    -1.201793888262     1.007825032230
         H            4.742266338320     0.967096573145     0.216618111738     1.007825032230
         H           -2.849077661680     2.104915573145     0.105234111738     1.007825032230

  Basis Set: AUG-CC-PVTZ
    Blend: AUG-CC-PVTZ
  Basis Set: (AUG-CC-PVTZ AUX)
    Blend: AUG-CC-PVTZ-JKFIT
	 Reference Energy          =    -512.8857393590694755 [Eh]
	 Singles Energy            =      -0.0000000000000000 [Eh]
	 Same-Spin Energy          =      -0.5113799894815485 [Eh]
	 Opposite-Spin Energy      =      -1.6149719398531683 [Eh]
	 Correlation Energy        =      -2.1263519293347168 [Eh]
	 Total Energy              =    -515.0120912884042355 [Eh]

	 ================> DF-SCS-MP2 Energies <==================
	-----------------------------------------------------------
	 SCS Same-Spin Scale       =       0.3333333333333333 [-]
	 SCS Opposite-Spin Scale   =       1.2000000000000000 [-]
	 SCS Same-Spin Energy      =      -0.1704599964938495 [Eh]
	 SCS Opposite-Spin Energy  =      -1.9379663278238020 [Eh]
	 SCS Correlation Energy    =      -2.1084263243176515 [Eh]
	 SCS Total Energy          =    -514.9941656833871093 [Eh]
	-----------------------------------------------------------

  Dipole Moment: [D]
     X:    -0.0441      Y:     3.3115      Z:     1.9639     Total:     3.8503

*** Psi4 exiting successfully. Buy a developer a beer!
