                               Psi4 1.3.2 release

  ==> Input File <==

--------------------------------------------------------------------------
#psi4
#
memory 32 gb

molecule  {
0 1
  O       -1.9756670     1.6664010     0.1857370
  O        1.6511300    -1.1930600    -0.6768240
  O       -3.2820610    -0.0444860    -0.5140140
  N        0.2152580     0.2772540     0.2951010
  C       -0.9464590    -0.4858680    -0.1100250
  C       -1.2010820    -1.6869190     0.8036840
  C        2.5941300     0.7851170     0.3678910
  C        1.4652130    -0.1360080    -0.0663740
  C       -2.2049156     0.2752248    -0.2078898
  C        3.9493650     0.2879730    -0.1118860
  H       -0.7666830    -0.8628490    -1.1247510
  H        0.0773990     1.1958980     0.6978160
  H       -1.3680630    -1.3508140     1.8303240
  H       -2.0758160    -2.2433210     0.4601180
  H       -0.3237180    -2.3338760     0.7750620
  H        2.3897550     1.7945520    -0.0146150
  H        2.5759940     0.8629050     1.4619760
  H        4.1547340    -0.7097650     0.2816620
  H        3.9712690     0.2233490    -1.2012200
  H        4.7420490     0.9661550     0.2171920
  H       -2.8492950     2.1039740     0.1058080
units angstrom
no_reorient  #important for SAPT in psi4, default
symmetry c1  #important for SAPT in psi4, default
}

set PROPERTIES_ORIGIN ["COM"]
properties('MP2/aug-cc-pvtz', properties = ['dipole'])
--------------------------------------------------------------------------

    Molecular point group: c1
  Charge       = 0
  Multiplicity = 1
  Basis Set: AUG-CC-PVTZ
    Blend: AUG-CC-PVTZ
  Basis Set: (AUG-CC-PVTZ AUX)
    Blend: AUG-CC-PVTZ-JKFIT

    Orbital Energies [Eh]
    ---------------------

    Doubly Occupied:

       1A    -20.606059     2A    -20.579216     3A    -20.525441
       4A    -15.594244     5A    -11.404104     6A    -11.357352
       7A    -11.299326     8A    -11.247835     9A    -11.231381
      10A    -11.219715    11A     -1.476426    12A     -1.382137
      13A     -1.364781    14A     -1.246435    15A     -1.081270
      16A     -1.041072    17A     -0.927596    18A     -0.885692
      19A     -0.804597    20A     -0.786154    21A     -0.729388
      22A     -0.710353    23A     -0.682132    24A     -0.664977
      25A     -0.640643    26A     -0.634133    27A     -0.612574
      28A     -0.601366    29A     -0.581948    30A     -0.548230
      31A     -0.547196    32A     -0.525565    33A     -0.521761
      34A     -0.519446    35A     -0.505773    36A     -0.491738
      37A     -0.468573    38A     -0.430224    39A     -0.402238

  @DF-RHF Final Energy:  -512.87597144963763

   => Energetics <=

    Nuclear Repulsion Energy =            548.2677969693655768
    One-Electron Energy =               -1788.5293581417965925
    Two-Electron Energy =                 727.3855897227932701
    Total Energy =                       -512.8759714496376318
  Basis Set: (AUG-CC-PVTZ AUX)
    Blend: AUG-CC-PVTZ-RI
    Molecular point group: c1

    Geometry (in Angstrom), charge = 0, multiplicity = 1:

       Center              X                  Y                   Z               Mass
    ------------   -----------------  -----------------  -----------------  -----------------
         O           -1.974371573483     1.674261928106     0.187961415998    15.994914619570
         O            1.652425426517    -1.185199071894    -0.674599584002    15.994914619570
         O           -3.280765573483    -0.036625071894    -0.511789584002    15.994914619570
         N            0.216553426517     0.285114928106     0.297325415998    14.003074004430
         C           -0.945163573483    -0.478007071894    -0.107800584002    12.000000000000
         C           -1.199786573483    -1.679058071894     0.805908415998    12.000000000000
         C            2.595425426517     0.792977928106     0.370115415998    12.000000000000
         C            1.466508426517    -0.128147071894    -0.064149584002    12.000000000000
         C           -2.203620173483     0.283085728106    -0.205665384002    12.000000000000
         C            3.950660426517     0.295833928106    -0.109661584002    12.000000000000
         H           -0.765387573483    -0.854988071894    -1.122526584002     1.007825032230
         H            0.078694426517     1.203758928106     0.700040415998     1.007825032230
         H           -1.366767573483    -1.342953071894     1.832548415998     1.007825032230
         H           -2.074520573483    -2.235460071894     0.462342415998     1.007825032230
         H           -0.322422573483    -2.326015071894     0.777286415998     1.007825032230
         H            2.391050426517     1.802412928106    -0.012390584002     1.007825032230
         H            2.577289426517     0.870765928106     1.464200415998     1.007825032230
         H            4.156029426517    -0.701904071894     0.283886415998     1.007825032230
         H            3.972564426517     0.231209928106    -1.198995584002     1.007825032230
         H            4.743344426517     0.974015928106     0.219416415998     1.007825032230
         H           -2.847999573483     2.111834928106     0.108032415998     1.007825032230

  Basis Set: AUG-CC-PVTZ
    Blend: AUG-CC-PVTZ
  Basis Set: (AUG-CC-PVTZ AUX)
    Blend: AUG-CC-PVTZ-JKFIT
	 Reference Energy          =    -512.8759714496376318 [Eh]
	 Singles Energy            =      -0.0000000000000000 [Eh]
	 Same-Spin Energy          =      -0.5114683399627709 [Eh]
	 Opposite-Spin Energy      =      -1.6156050303308724 [Eh]
	 Correlation Energy        =      -2.1270733702936431 [Eh]
	 Total Energy              =    -515.0030448199312332 [Eh]

	 ================> DF-SCS-MP2 Energies <==================
	-----------------------------------------------------------
	 SCS Same-Spin Scale       =       0.3333333333333333 [-]
	 SCS Opposite-Spin Scale   =       1.2000000000000000 [-]
	 SCS Same-Spin Energy      =      -0.1704894466542569 [Eh]
	 SCS Opposite-Spin Energy  =      -1.9387260363970469 [Eh]
	 SCS Correlation Energy    =      -2.1092154830513037 [Eh]
	 SCS Total Energy          =    -514.9851869326889755 [Eh]
	-----------------------------------------------------------

  Dipole Moment: [D]
     X:    -0.1613      Y:     2.5396      Z:     1.7571     Total:     3.0924

*** Psi4 exiting successfully. Buy a developer a beer!
