                               Psi4 1.4a3.dev225

  ==> Input File <==

--------------------------------------------------------------------------
#psi4
#
memory 32 gb

molecule  {
0 1
  O        2.1858500    -1.4843500     0.4466430
  O       -1.5901990     1.2021140    -0.7742790
  O        3.2899360     0.0893000    -0.7567370
  N       -0.1552130    -0.3501220     0.0655300
  C        0.9973750     0.5138300    -0.1038320
  C        1.1366130     1.5332170     1.0331740
  C       -2.5208420    -0.9251940    -0.0919400
  C       -1.4084914     0.1268421    -0.3095983
  C        2.2713450    -0.2912280    -0.2118740
  C       -3.8280260    -0.2360070     0.2837800
  H        0.8752740     1.0541530    -1.0466610
  H       -0.0274960    -1.2421660     0.5250420
  H        1.2555520     1.0181310     1.9903510
  H        2.0023980     2.1787030     0.8613650
  H        0.2327940     2.1443920     1.0604580
  H       -2.6404080    -1.4674310    -1.0380590
  H       -2.2372030    -1.6677960     0.6628800
  H       -3.7417830     0.2575120     1.2553170
  H       -4.0728600     0.5241080    -0.4590610
  H       -4.6456460    -0.9595500     0.3374610
  H        3.0673500    -1.9023430     0.3513230
units angstrom
no_reorient  #important for SAPT in psi4, default
symmetry c1  #important for SAPT in psi4, default
}

set PROPERTIES_ORIGIN ["COM"]
properties('MP2/aug-cc-pvtz', properties = ['dipole'])
--------------------------------------------------------------------------

    Molecular point group: c1
  Charge       = 0
  Multiplicity = 1
  Basis Set: AUG-CC-PVTZ
    Blend: AUG-CC-PVTZ
  Basis Set: (AUG-CC-PVTZ AUX)
    Blend: AUG-CC-PVTZ-JKFIT

    Orbital Energies [Eh]
    ---------------------

    Doubly Occupied:

       1A    -20.632567     2A    -20.563198     3A    -20.533048
       4A    -15.588225     5A    -11.401779     6A    -11.355701
       7A    -11.293173     8A    -11.245894     9A    -11.231598
      10A    -11.221594    11A     -1.474543    12A     -1.412723
      13A     -1.370846    14A     -1.241530    15A     -1.070344
      16A     -1.033285    17A     -0.924898    18A     -0.881358
      19A     -0.819538    20A     -0.789790    21A     -0.724820
      22A     -0.713041    23A     -0.683115    24A     -0.658666
      25A     -0.643878    26A     -0.635582    27A     -0.613761
      28A     -0.606206    29A     -0.583285    30A     -0.558450
      31A     -0.550047    32A     -0.528729    33A     -0.526377
      34A     -0.514984    35A     -0.498157    36A     -0.490973
      37A     -0.469147    38A     -0.426733    39A     -0.400241

  @DF-RHF Final Energy:  -512.88584168758814

   => Energetics <=

    Nuclear Repulsion Energy =            548.0804195900166178
    One-Electron Energy =               -1788.1088743442433042
    Two-Electron Energy =                 727.1426130666385461
    Total Energy =                       -512.8858416875881403
  Basis Set: (AUG-CC-PVTZ AUX)
    Blend: AUG-CC-PVTZ-RI
    Molecular point group: c1

    Geometry (in Angstrom), charge = 0, multiplicity = 1:

       Center              X                  Y                   Z               Mass
    ------------   -----------------  -----------------  -----------------  -----------------
         O            2.118697256449    -1.488526958825     0.479003638478    15.994914619570
         O           -1.657351743551     1.197937041175    -0.741918361522    15.994914619570
         O            3.222783256449     0.085123041175    -0.724376361522    15.994914619570
         N           -0.222365743551    -0.354298958825     0.097890638478    14.003074004430
         C            0.930222256449     0.509653041175    -0.071471361522    12.000000000000
         C            1.069460256449     1.529040041175     1.065534638478    12.000000000000
         C           -2.587994743551    -0.929370958825    -0.059579361522    12.000000000000
         C           -1.475644143551     0.122665141175    -0.277237661522    12.000000000000
         C            2.204192256449    -0.295404958825    -0.179513361522    12.000000000000
         C           -3.895178743551    -0.240183958825     0.316140638478    12.000000000000
         H            0.808121256449     1.049976041175    -1.014300361522     1.007825032230
         H           -0.094648743551    -1.246342958825     0.557402638478     1.007825032230
         H            1.188399256449     1.013954041175     2.022711638478     1.007825032230
         H            1.935245256449     2.174526041175     0.893725638478     1.007825032230
         H            0.165641256449     2.140215041175     1.092818638478     1.007825032230
         H           -2.707560743551    -1.471607958825    -1.005698361522     1.007825032230
         H           -2.304355743551    -1.671972958825     0.695240638478     1.007825032230
         H           -3.808935743551     0.253335041175     1.287677638478     1.007825032230
         H           -4.140012743551     0.519931041175    -0.426700361522     1.007825032230
         H           -4.712798743551    -0.963726958825     0.369821638478     1.007825032230
         H            3.000197256449    -1.906519958825     0.383683638478     1.007825032230

  Basis Set: AUG-CC-PVTZ
    Blend: AUG-CC-PVTZ
  Basis Set: (AUG-CC-PVTZ AUX)
    Blend: AUG-CC-PVTZ-JKFIT
	 Reference Energy          =    -512.8858416875881403 [Eh]
	 Singles Energy            =      -0.0000000000000000 [Eh]
	 Same-Spin Energy          =      -0.5101836286987300 [Eh]
	 Opposite-Spin Energy      =      -1.6132134581726945 [Eh]
	 Correlation Energy        =      -2.1233970868714245 [Eh]
	 Total Energy              =    -515.0092387744596181 [Eh]

	 ================> DF-SCS-MP2 Energies <==================
	-----------------------------------------------------------
	 SCS Same-Spin Scale       =       0.3333333333333333 [-]
	 SCS Opposite-Spin Scale   =       1.2000000000000000 [-]
	 SCS Same-Spin Energy      =      -0.1700612095662433 [Eh]
	 SCS Opposite-Spin Energy  =      -1.9358561498072333 [Eh]
	 SCS Correlation Energy    =      -2.1059173593734766 [Eh]
	 SCS Total Energy          =    -514.9917590469616471 [Eh]
	-----------------------------------------------------------

  Dipole Moment: [D]
     X:    -0.0553      Y:    -3.0379      Z:     2.1514     Total:     3.7229

*** Psi4 exiting successfully. Buy a developer a beer!
