                               Psi4 1.3.2 release

  ==> Input File <==

--------------------------------------------------------------------------
#psi4
#
memory 32 gb

molecule  {
0 1
  O       -1.9756670     1.6664010     0.1857370
  O        1.6511300    -1.1930600    -0.6768240
  O       -3.2820610    -0.0444860    -0.5140140
  N        0.2069781     0.3087148     0.2564306
  C       -0.9464590    -0.4858680    -0.1100250
  C       -1.2436107    -1.6994000     0.7738650
  C        2.5941300     0.7851170     0.3678910
  C        1.4652130    -0.1360080    -0.0663740
  C       -2.1892550     0.3702600    -0.1810000
  C        3.9493650     0.2879730    -0.1118860
  H       -0.7666830    -0.8628490    -1.1247510
  H        0.0773990     1.1958980     0.6978160
  H       -1.3680630    -1.3508140     1.8303240
  H       -2.0758160    -2.2433210     0.4601180
  H       -0.3237180    -2.3338760     0.7750620
  H        2.3897550     1.7945520    -0.0146150
  H        2.5759940     0.8629050     1.4619760
  H        4.1547340    -0.7097650     0.2816620
  H        3.9712690     0.2233490    -1.2012200
  H        4.7420490     0.9661550     0.2171920
  H       -2.8492950     2.1039740     0.1058080
units angstrom
no_reorient  #important for SAPT in psi4, default
symmetry c1  #important for SAPT in psi4, default
}

set PROPERTIES_ORIGIN ["COM"]
properties('MP2/aug-cc-pvtz', properties = ['dipole'])
--------------------------------------------------------------------------

    Molecular point group: c1
  Charge       = 0
  Multiplicity = 1
  Basis Set: AUG-CC-PVTZ
    Blend: AUG-CC-PVTZ
  Basis Set: (AUG-CC-PVTZ AUX)
    Blend: AUG-CC-PVTZ-JKFIT

    Orbital Energies [Eh]
    ---------------------

    Doubly Occupied:

       1A    -20.634551     2A    -20.562214     3A    -20.526426
       4A    -15.592538     5A    -11.402854     6A    -11.357928
       7A    -11.296530     8A    -11.248032     9A    -11.228562
      10A    -11.219909    11A     -1.477172    12A     -1.381010
      13A     -1.372289    14A     -1.245499    15A     -1.075082
      16A     -1.036655    17A     -0.928276    18A     -0.885033
      19A     -0.818147    20A     -0.792793    21A     -0.730014
      22A     -0.713761    23A     -0.682643    24A     -0.664856
      25A     -0.641050    26A     -0.632639    27A     -0.608318
      28A     -0.605742    29A     -0.586585    30A     -0.553188
      31A     -0.538199    32A     -0.528112    33A     -0.520082
      34A     -0.513590    35A     -0.497267    36A     -0.487213
      37A     -0.465687    38A     -0.429789    39A     -0.400603

  @DF-RHF Final Energy:  -512.88210230281857

   => Energetics <=

    Nuclear Repulsion Energy =            548.0200517032079688
    One-Electron Energy =               -1788.0426295466811553
    Two-Electron Energy =                 727.1404755406547338
    Total Energy =                       -512.8821023028185664
  Basis Set: (AUG-CC-PVTZ AUX)
    Blend: AUG-CC-PVTZ-RI
    Molecular point group: c1

    Geometry (in Angstrom), charge = 0, multiplicity = 1:

       Center              X                  Y                   Z               Mass
    ------------   -----------------  -----------------  -----------------  -----------------
         O           -1.971349932286     1.664396622372     0.191936320511    15.994914619570
         O            1.655447067714    -1.195064377628    -0.670624679489    15.994914619570
         O           -3.277743932286    -0.046490377628    -0.507814679489    15.994914619570
         N            0.211295167714     0.306710422372     0.262629920511    14.003074004430
         C           -0.942141932286    -0.487872377628    -0.103825679489    12.000000000000
         C           -1.239293632286    -1.701404377628     0.780064320511    12.000000000000
         C            2.598447067714     0.783112622372     0.374090320511    12.000000000000
         C            1.469530067714    -0.138012377628    -0.060174679489    12.000000000000
         C           -2.184937932286     0.368255622372    -0.174800679489    12.000000000000
         C            3.953682067714     0.285968622372    -0.105686679489    12.000000000000
         H           -0.762365932286    -0.864853377628    -1.118551679489     1.007825032230
         H            0.081716067714     1.193893622372     0.704015320511     1.007825032230
         H           -1.363745932286    -1.352818377628     1.836523320511     1.007825032230
         H           -2.071498932286    -2.245325377628     0.466317320511     1.007825032230
         H           -0.319400932286    -2.335880377628     0.781261320511     1.007825032230
         H            2.394072067714     1.792547622372    -0.008415679489     1.007825032230
         H            2.580311067714     0.860900622372     1.468175320511     1.007825032230
         H            4.159051067714    -0.711769377628     0.287861320511     1.007825032230
         H            3.975586067714     0.221344622372    -1.195020679489     1.007825032230
         H            4.746366067714     0.964150622372     0.223391320511     1.007825032230
         H           -2.844977932286     2.101969622372     0.112007320511     1.007825032230

  Basis Set: AUG-CC-PVTZ
    Blend: AUG-CC-PVTZ
  Basis Set: (AUG-CC-PVTZ AUX)
    Blend: AUG-CC-PVTZ-JKFIT
	 Reference Energy          =    -512.8821023028185664 [Eh]
	 Singles Energy            =      -0.0000000000000000 [Eh]
	 Same-Spin Energy          =      -0.5113504958042042 [Eh]
	 Opposite-Spin Energy      =      -1.6149450578315840 [Eh]
	 Correlation Energy        =      -2.1262955536357881 [Eh]
	 Total Energy              =    -515.0083978564543941 [Eh]

	 ================> DF-SCS-MP2 Energies <==================
	-----------------------------------------------------------
	 SCS Same-Spin Scale       =       0.3333333333333333 [-]
	 SCS Opposite-Spin Scale   =       1.2000000000000000 [-]
	 SCS Same-Spin Energy      =      -0.1704501652680681 [Eh]
	 SCS Opposite-Spin Energy  =      -1.9379340693979008 [Eh]
	 SCS Correlation Energy    =      -2.1083842346659689 [Eh]
	 SCS Total Energy          =    -514.9904865374845713 [Eh]
	-----------------------------------------------------------

  Dipole Moment: [D]
     X:     0.0387      Y:     3.2342      Z:     2.0102     Total:     3.8083

*** Psi4 exiting successfully. Buy a developer a beer!
