                               Psi4 1.3.2 release

  ==> Input File <==

--------------------------------------------------------------------------
#psi4
#
memory 32 gb

molecule  {
0 1
  O       -1.9756670     1.6664010     0.1857370
  O        1.6511300    -1.1930600    -0.6768240
  O       -3.2737114    -0.0638023    -0.5166810
  N        0.2152580     0.2772540     0.2951010
  C       -0.9606162    -0.5066673    -0.1179145
  C       -1.2010820    -1.6869190     0.8036840
  C        2.5941300     0.7851170     0.3678910
  C        1.4652130    -0.1360080    -0.0663740
  C       -2.1892550     0.3702600    -0.1810000
  C        3.9493650     0.2879730    -0.1118860
  H       -0.7666830    -0.8628490    -1.1247510
  H        0.0773990     1.1958980     0.6978160
  H       -1.3680630    -1.3508140     1.8303240
  H       -2.0758160    -2.2433210     0.4601180
  H       -0.3237180    -2.3338760     0.7750620
  H        2.3897550     1.7945520    -0.0146150
  H        2.5759940     0.8629050     1.4619760
  H        4.1547340    -0.7097650     0.2816620
  H        3.9712690     0.2233490    -1.2012200
  H        4.7420490     0.9661550     0.2171920
  H       -2.8492950     2.1039740     0.1058080
units angstrom
no_reorient  #important for SAPT in psi4, default
symmetry c1  #important for SAPT in psi4, default
}

set PROPERTIES_ORIGIN ["COM"]
properties('MP2/aug-cc-pvtz', properties = ['dipole'])
--------------------------------------------------------------------------

    Molecular point group: c1
  Charge       = 0
  Multiplicity = 1
  Basis Set: AUG-CC-PVTZ
    Blend: AUG-CC-PVTZ
  Basis Set: (AUG-CC-PVTZ AUX)
    Blend: AUG-CC-PVTZ-JKFIT

    Orbital Energies [Eh]
    ---------------------

    Doubly Occupied:

       1A    -20.638515     2A    -20.564374     3A    -20.522975
       4A    -15.590641     5A    -11.405163     6A    -11.354488
       7A    -11.296214     8A    -11.246497     9A    -11.226432
      10A    -11.218746    11A     -1.478968    12A     -1.378683
      13A     -1.375676    14A     -1.239301    15A     -1.075053
      16A     -1.036353    17A     -0.927639    18A     -0.883933
      19A     -0.817603    20A     -0.789798    21A     -0.728900
      22A     -0.715594    23A     -0.680829    24A     -0.666391
      25A     -0.640502    26A     -0.633648    27A     -0.611715
      28A     -0.601918    29A     -0.579657    30A     -0.547693
      31A     -0.544132    32A     -0.521986    33A     -0.521411
      34A     -0.518517    35A     -0.497501    36A     -0.488803
      37A     -0.468053    38A     -0.427040    39A     -0.400301

  @DF-RHF Final Energy:  -512.88523560721637

   => Energetics <=

    Nuclear Repulsion Energy =            548.0351658122053777
    One-Electron Energy =               -1788.1175171479562778
    Two-Electron Energy =                 727.1971157285345271
    Total Energy =                       -512.8852356072163730
  Basis Set: (AUG-CC-PVTZ AUX)
    Blend: AUG-CC-PVTZ-RI
    Molecular point group: c1

    Geometry (in Angstrom), charge = 0, multiplicity = 1:

       Center              X                  Y                   Z               Mass
    ------------   -----------------  -----------------  -----------------  -----------------
         O           -1.975416502628     1.670251087714     0.186683824567    15.994914619570
         O            1.651380497372    -1.189209912286    -0.675877175433    15.994914619570
         O           -3.273460902628    -0.059952212286    -0.515734175433    15.994914619570
         N            0.215508497372     0.281104087714     0.296047824567    14.003074004430
         C           -0.960365702628    -0.502817212286    -0.116967675433    12.000000000000
         C           -1.200831502628    -1.683068912286     0.804630824567    12.000000000000
         C            2.594380497372     0.788967087714     0.368837824567    12.000000000000
         C            1.465463497372    -0.132157912286    -0.065427175433    12.000000000000
         C           -2.189004502628     0.374110087714    -0.180053175433    12.000000000000
         C            3.949615497372     0.291823087714    -0.110939175433    12.000000000000
         H           -0.766432502628    -0.858998912286    -1.123804175433     1.007825032230
         H            0.077649497372     1.199748087714     0.698762824567     1.007825032230
         H           -1.367812502628    -1.346963912286     1.831270824567     1.007825032230
         H           -2.075565502628    -2.239470912286     0.461064824567     1.007825032230
         H           -0.323467502628    -2.330025912286     0.776008824567     1.007825032230
         H            2.390005497372     1.798402087714    -0.013668175433     1.007825032230
         H            2.576244497372     0.866755087714     1.462922824567     1.007825032230
         H            4.154984497372    -0.705914912286     0.282608824567     1.007825032230
         H            3.971519497372     0.227199087714    -1.200273175433     1.007825032230
         H            4.742299497372     0.970005087714     0.218138824567     1.007825032230
         H           -2.849044502628     2.107824087714     0.106754824567     1.007825032230

  Basis Set: AUG-CC-PVTZ
    Blend: AUG-CC-PVTZ
  Basis Set: (AUG-CC-PVTZ AUX)
    Blend: AUG-CC-PVTZ-JKFIT
	 Reference Energy          =    -512.8852356072163730 [Eh]
	 Singles Energy            =      -0.0000000000000000 [Eh]
	 Same-Spin Energy          =      -0.5112705874370852 [Eh]
	 Opposite-Spin Energy      =      -1.6150178924789318 [Eh]
	 Correlation Energy        =      -2.1262884799160169 [Eh]
	 Total Energy              =    -515.0115240871324431 [Eh]

	 ================> DF-SCS-MP2 Energies <==================
	-----------------------------------------------------------
	 SCS Same-Spin Scale       =       0.3333333333333333 [-]
	 SCS Opposite-Spin Scale   =       1.2000000000000000 [-]
	 SCS Same-Spin Energy      =      -0.1704235291456951 [Eh]
	 SCS Opposite-Spin Energy  =      -1.9380214709747181 [Eh]
	 SCS Correlation Energy    =      -2.1084450001204131 [Eh]
	 SCS Total Energy          =    -514.9936806073368416 [Eh]
	-----------------------------------------------------------

  Dipole Moment: [D]
     X:    -0.1695      Y:     3.3372      Z:     1.9622     Total:     3.8750

*** Psi4 exiting successfully. Buy a developer a beer!
