                               Psi4 1.3.2 release

  ==> Input File <==

--------------------------------------------------------------------------
#psi4
#
memory 32 gb

molecule  {
0 1
  O       -1.9756670     1.6664010     0.1857370
  O        1.6511300    -1.1930600    -0.6768240
  O       -3.2820610    -0.0444860    -0.5140140
  N        0.2152580     0.2772540     0.2951010
  C       -0.9464590    -0.4858680    -0.1100250
  C       -1.2010820    -1.6869190     0.8036840
  C        2.5941300     0.7851170     0.3678910
  C        1.4652130    -0.1360080    -0.0663740
  C       -2.1892550     0.3702600    -0.1810000
  C        3.9493650     0.2879730    -0.1118860
  H       -0.7339165    -0.9315586    -1.3096979
  H        0.0773990     1.1958980     0.6978160
  H       -1.3680630    -1.3508140     1.8303240
  H       -2.0758160    -2.2433210     0.4601180
  H       -0.3237180    -2.3338760     0.7750620
  H        2.3897550     1.7945520    -0.0146150
  H        2.5759940     0.8629050     1.4619760
  H        4.1547340    -0.7097650     0.2816620
  H        3.9712690     0.2233490    -1.2012200
  H        4.7420490     0.9661550     0.2171920
  H       -2.8492950     2.1039740     0.1058080
units angstrom
no_reorient  #important for SAPT in psi4, default
symmetry c1  #important for SAPT in psi4, default
}

set PROPERTIES_ORIGIN ["COM"]
properties('MP2/aug-cc-pvtz', properties = ['dipole'])
--------------------------------------------------------------------------

    Molecular point group: c1
  Charge       = 0
  Multiplicity = 1
  Basis Set: AUG-CC-PVTZ
    Blend: AUG-CC-PVTZ
  Basis Set: (AUG-CC-PVTZ AUX)
    Blend: AUG-CC-PVTZ-JKFIT

    Orbital Energies [Eh]
    ---------------------

    Doubly Occupied:

       1A    -20.635886     2A    -20.562548     3A    -20.525136
       4A    -15.594529     5A    -11.404967     6A    -11.356443
       7A    -11.315403     8A    -11.247983     9A    -11.228181
      10A    -11.219791    11A     -1.478013    12A     -1.380886
      13A     -1.372695    14A     -1.245088    15A     -1.072244
      16A     -1.033468    17A     -0.927730    18A     -0.885715
      19A     -0.804047    20A     -0.791865    21A     -0.731233
      22A     -0.714046    23A     -0.681321    24A     -0.659333
      25A     -0.641377    26A     -0.628539    27A     -0.607226
      28A     -0.597783    29A     -0.581359    30A     -0.546289
      31A     -0.542959    32A     -0.524592    33A     -0.519892
      34A     -0.510845    35A     -0.497338    36A     -0.482711
      37A     -0.462277    38A     -0.428864    39A     -0.398845

  @DF-RHF Final Energy:  -512.86497313762209

   => Energetics <=

    Nuclear Repulsion Energy =            547.2150452287528424
    One-Electron Energy =               -1786.4811410407078256
    Two-Electron Energy =                 726.4011226743328962
    Total Energy =                       -512.8649731376220871
  Basis Set: (AUG-CC-PVTZ AUX)
    Blend: AUG-CC-PVTZ-RI
    Molecular point group: c1

    Geometry (in Angstrom), charge = 0, multiplicity = 1:

       Center              X                  Y                   Z               Mass
    ------------   -----------------  -----------------  -----------------  -----------------
         O           -1.975894591126     1.666878276083     0.187022008627    15.994914619570
         O            1.650902408874    -1.192582723917    -0.675538991373    15.994914619570
         O           -3.282288591126    -0.044008723917    -0.512728991373    15.994914619570
         N            0.215030408874     0.277731276083     0.296386008627    14.003074004430
         C           -0.946686591126    -0.485390723917    -0.108739991373    12.000000000000
         C           -1.201309591126    -1.686441723917     0.804969008627    12.000000000000
         C            2.593902408874     0.785594276083     0.369176008627    12.000000000000
         C            1.464985408874    -0.135530723917    -0.065088991373    12.000000000000
         C           -2.189482591126     0.370737276083    -0.179714991373    12.000000000000
         C            3.949137408874     0.288450276083    -0.110600991373    12.000000000000
         H           -0.734144091126    -0.931081323917    -1.308412891373     1.007825032230
         H            0.077171408874     1.196375276083     0.699101008627     1.007825032230
         H           -1.368290591126    -1.350336723917     1.831609008627     1.007825032230
         H           -2.076043591126    -2.242843723917     0.461403008627     1.007825032230
         H           -0.323945591126    -2.333398723917     0.776347008627     1.007825032230
         H            2.389527408874     1.795029276083    -0.013329991373     1.007825032230
         H            2.575766408874     0.863382276083     1.463261008627     1.007825032230
         H            4.154506408874    -0.709287723917     0.282947008627     1.007825032230
         H            3.971041408874     0.223826276083    -1.199934991373     1.007825032230
         H            4.741821408874     0.966632276083     0.218477008627     1.007825032230
         H           -2.849522591126     2.104451276083     0.107093008627     1.007825032230

  Basis Set: AUG-CC-PVTZ
    Blend: AUG-CC-PVTZ
  Basis Set: (AUG-CC-PVTZ AUX)
    Blend: AUG-CC-PVTZ-JKFIT
	 Reference Energy          =    -512.8649731376220871 [Eh]
	 Singles Energy            =      -0.0000000000000000 [Eh]
	 Same-Spin Energy          =      -0.5120994644329689 [Eh]
	 Opposite-Spin Energy      =      -1.6172072981799426 [Eh]
	 Correlation Energy        =      -2.1293067626129116 [Eh]
	 Total Energy              =    -514.9942799002350284 [Eh]

	 ================> DF-SCS-MP2 Energies <==================
	-----------------------------------------------------------
	 SCS Same-Spin Scale       =       0.3333333333333333 [-]
	 SCS Opposite-Spin Scale   =       1.2000000000000000 [-]
	 SCS Same-Spin Energy      =      -0.1706998214776563 [Eh]
	 SCS Opposite-Spin Energy  =      -1.9406487578159310 [Eh]
	 SCS Correlation Energy    =      -2.1113485792935873 [Eh]
	 SCS Total Energy          =    -514.9763217169156633 [Eh]
	-----------------------------------------------------------

  Dipole Moment: [D]
     X:     0.0386      Y:     3.2963      Z:     1.9917     Total:     3.8515

*** Psi4 exiting successfully. Buy a developer a beer!
