                               Psi4 1.3.2 release

  ==> Input File <==

--------------------------------------------------------------------------
#psi4
#
memory 32 gb

molecule  {
0 1
  O       -1.9756670     1.6664010     0.1857370
  O        1.6511300    -1.1930600    -0.6768240
  O       -3.2820610    -0.0444860    -0.5140140
  N        0.2152580     0.2772540     0.2951010
  C       -0.9464590    -0.4858680    -0.1100250
  C       -1.1511113    -1.7033729     0.7944195
  C        2.5941300     0.7851170     0.3678910
  C        1.4652130    -0.1360080    -0.0663740
  C       -2.1637169     0.4030143    -0.2134943
  C        3.9493650     0.2879730    -0.1118860
  H       -0.7666830    -0.8628490    -1.1247510
  H        0.0773990     1.1958980     0.6978160
  H       -1.3680630    -1.3508140     1.8303240
  H       -2.0758160    -2.2433210     0.4601180
  H       -0.3237180    -2.3338760     0.7750620
  H        2.3897550     1.7945520    -0.0146150
  H        2.5759940     0.8629050     1.4619760
  H        4.1547340    -0.7097650     0.2816620
  H        3.9712690     0.2233490    -1.2012200
  H        4.7420490     0.9661550     0.2171920
  H       -2.8492950     2.1039740     0.1058080
units angstrom
no_reorient  #important for SAPT in psi4, default
symmetry c1  #important for SAPT in psi4, default
}

set PROPERTIES_ORIGIN ["COM"]
properties('MP2/aug-cc-pvtz', properties = ['dipole'])
--------------------------------------------------------------------------

    Molecular point group: c1
  Charge       = 0
  Multiplicity = 1
  Basis Set: AUG-CC-PVTZ
    Blend: AUG-CC-PVTZ
  Basis Set: (AUG-CC-PVTZ AUX)
    Blend: AUG-CC-PVTZ-JKFIT

    Orbital Energies [Eh]
    ---------------------

    Doubly Occupied:

       1A    -20.644345     2A    -20.559108     3A    -20.524802
       4A    -15.591876     5A    -11.407849     6A    -11.356117
       7A    -11.296641     8A    -11.247732     9A    -11.227579
      10A    -11.219685    11A     -1.486900    12A     -1.380856
      13A     -1.361516    14A     -1.246047    15A     -1.074452
      16A     -1.034440    17A     -0.932746    18A     -0.886875
      19A     -0.822487    20A     -0.794205    21A     -0.731761
      22A     -0.716412    23A     -0.683561    24A     -0.667339
      25A     -0.642226    26A     -0.632473    27A     -0.608891
      28A     -0.601623    29A     -0.579880    30A     -0.558133
      31A     -0.538262    32A     -0.520448    33A     -0.519834
      34A     -0.517003    35A     -0.494880    36A     -0.483022
      37A     -0.465364    38A     -0.428898    39A     -0.400164

  @DF-RHF Final Energy:  -512.87859463408370

   => Energetics <=

    Nuclear Repulsion Energy =            548.2445805297077186
    One-Electron Energy =               -1788.4734895022131695
    Two-Electron Energy =                 727.3503143384217537
    Total Energy =                       -512.8785946340836972
  Basis Set: (AUG-CC-PVTZ AUX)
    Blend: AUG-CC-PVTZ-RI
    Molecular point group: c1

    Geometry (in Angstrom), charge = 0, multiplicity = 1:

       Center              X                  Y                   Z               Mass
    ------------   -----------------  -----------------  -----------------  -----------------
         O           -1.981912784212     1.665052640546     0.189191327156    15.994914619570
         O            1.644884215788    -1.194408359454    -0.673369672844    15.994914619570
         O           -3.288306784212    -0.045834359454    -0.510559672844    15.994914619570
         N            0.209012215788     0.275905640546     0.298555327156    14.003074004430
         C           -0.952704784212    -0.487216359454    -0.106570672844    12.000000000000
         C           -1.157357084212    -1.704721259454     0.797873827156    12.000000000000
         C            2.587884215788     0.783768640546     0.371345327156    12.000000000000
         C            1.458967215788    -0.137356359454    -0.062919672844    12.000000000000
         C           -2.169962684212     0.401665940546    -0.210039972844    12.000000000000
         C            3.943119215788     0.286624640546    -0.108431672844    12.000000000000
         H           -0.772928784212    -0.864197359454    -1.121296672844     1.007825032230
         H            0.071153215788     1.194549640546     0.701270327156     1.007825032230
         H           -1.374308784212    -1.352162359454     1.833778327156     1.007825032230
         H           -2.082061784212    -2.244669359454     0.463572327156     1.007825032230
         H           -0.329963784212    -2.335224359454     0.778516327156     1.007825032230
         H            2.383509215788     1.793203640546    -0.011160672844     1.007825032230
         H            2.569748215788     0.861556640546     1.465430327156     1.007825032230
         H            4.148488215788    -0.711113359454     0.285116327156     1.007825032230
         H            3.965023215788     0.222000640546    -1.197765672844     1.007825032230
         H            4.735803215788     0.964806640546     0.220646327156     1.007825032230
         H           -2.855540784212     2.102625640546     0.109262327156     1.007825032230

  Basis Set: AUG-CC-PVTZ
    Blend: AUG-CC-PVTZ
  Basis Set: (AUG-CC-PVTZ AUX)
    Blend: AUG-CC-PVTZ-JKFIT
	 Reference Energy          =    -512.8785946340836972 [Eh]
	 Singles Energy            =      -0.0000000000000000 [Eh]
	 Same-Spin Energy          =      -0.5118174609451822 [Eh]
	 Opposite-Spin Energy      =      -1.6158775833430825 [Eh]
	 Correlation Energy        =      -2.1276950442882647 [Eh]
	 Total Energy              =    -515.0062896783720134 [Eh]

	 ================> DF-SCS-MP2 Energies <==================
	-----------------------------------------------------------
	 SCS Same-Spin Scale       =       0.3333333333333333 [-]
	 SCS Opposite-Spin Scale   =       1.2000000000000000 [-]
	 SCS Same-Spin Energy      =      -0.1706058203150607 [Eh]
	 SCS Opposite-Spin Energy  =      -1.9390531000116988 [Eh]
	 SCS Correlation Energy    =      -2.1096589203267597 [Eh]
	 SCS Total Energy          =    -514.9882535544104485 [Eh]
	-----------------------------------------------------------

  Dipole Moment: [D]
     X:     0.0560      Y:     3.5116      Z:     1.9821     Total:     4.0328

*** Psi4 exiting successfully. Buy a developer a beer!
