                               Psi4 1.3.2 release

  ==> Input File <==

--------------------------------------------------------------------------
#psi4
#
memory 32 gb

molecule  {
0 1
  O       -1.9756670     1.6664010     0.1857370
  O        1.6511300    -1.1930600    -0.6768240
  O       -3.2820610    -0.0444860    -0.5140140
  N        0.2152580     0.2772540     0.2951010
  C       -0.9464590    -0.4858680    -0.1100250
  C       -1.2010820    -1.6869190     0.8036840
  C        2.5941300     0.7851170     0.3678910
  C        1.4652130    -0.1360080    -0.0663740
  C       -2.1892550     0.3702600    -0.1810000
  C        3.9410788     0.2426885    -0.0854303
  H       -0.7666830    -0.8628490    -1.1247510
  H        0.0773990     1.1958980     0.6978160
  H       -1.3680630    -1.3508140     1.8303240
  H       -2.0758160    -2.2433210     0.4601180
  H       -0.3237180    -2.3338760     0.7750620
  H        2.3560411     1.7939184     0.0036487
  H        2.5759940     0.8629050     1.4619760
  H        4.1547340    -0.7097650     0.2816620
  H        3.9712690     0.2233490    -1.2012200
  H        4.7420490     0.9661550     0.2171920
  H       -2.8492950     2.1039740     0.1058080
units angstrom
no_reorient  #important for SAPT in psi4, default
symmetry c1  #important for SAPT in psi4, default
}

set PROPERTIES_ORIGIN ["COM"]
properties('MP2/aug-cc-pvtz', properties = ['dipole'])
--------------------------------------------------------------------------

    Molecular point group: c1
  Charge       = 0
  Multiplicity = 1
  Basis Set: AUG-CC-PVTZ
    Blend: AUG-CC-PVTZ
  Basis Set: (AUG-CC-PVTZ AUX)
    Blend: AUG-CC-PVTZ-JKFIT

    Orbital Energies [Eh]
    ---------------------

    Doubly Occupied:

       1A    -20.635978     2A    -20.563745     3A    -20.524325
       4A    -15.592086     5A    -11.404697     6A    -11.355384
       7A    -11.296285     8A    -11.248030     9A    -11.226830
      10A    -11.220582    11A     -1.478416    12A     -1.380535
      13A     -1.373507    14A     -1.245205    15A     -1.075155
      16A     -1.035629    17A     -0.927766    18A     -0.886301
      19A     -0.816701    20A     -0.792491    21A     -0.730844
      22A     -0.714554    23A     -0.682785    24A     -0.665134
      25A     -0.642090    26A     -0.633616    27A     -0.610144
      28A     -0.601266    29A     -0.582014    30A     -0.547137
      31A     -0.545255    32A     -0.530105    33A     -0.519885
      34A     -0.513589    35A     -0.496559    36A     -0.487416
      37A     -0.467791    38A     -0.428200    39A     -0.400156

  @DF-RHF Final Energy:  -512.88228896800820

   => Energetics <=

    Nuclear Repulsion Energy =            548.4242511498518979
    One-Electron Energy =               -1788.8567085731112911
    Two-Electron Energy =                 727.5501684552511961
    Total Energy =                       -512.8822889680081971
  Basis Set: (AUG-CC-PVTZ AUX)
    Blend: AUG-CC-PVTZ-RI
    Molecular point group: c1

    Geometry (in Angstrom), charge = 0, multiplicity = 1:

       Center              X                  Y                   Z               Mass
    ------------   -----------------  -----------------  -----------------  -----------------
         O           -1.974747348107     1.670151127542     0.183421987163    15.994914619570
         O            1.652049651893    -1.189309872458    -0.679139012837    15.994914619570
         O           -3.281141348107    -0.040735872458    -0.516329012837    15.994914619570
         N            0.216177651893     0.281004127542     0.292785987163    14.003074004430
         C           -0.945539348107    -0.482117872458    -0.112340012837    12.000000000000
         C           -1.200162348107    -1.683168872458     0.801368987163    12.000000000000
         C            2.595049651893     0.788867127542     0.365575987163    12.000000000000
         C            1.466132651893    -0.132257872458    -0.068689012837    12.000000000000
         C           -2.188335348107     0.374010127542    -0.183315012837    12.000000000000
         C            3.941998451893     0.246438627542    -0.087745312837    12.000000000000
         H           -0.765763348107    -0.859098872458    -1.127066012837     1.007825032230
         H            0.078318651893     1.199648127542     0.695500987163     1.007825032230
         H           -1.367143348107    -1.347063872458     1.828008987163     1.007825032230
         H           -2.074896348107    -2.239570872458     0.457802987163     1.007825032230
         H           -0.322798348107    -2.330125872458     0.772746987163     1.007825032230
         H            2.356960751893     1.797668527542     0.001333687163     1.007825032230
         H            2.576913651893     0.866655127542     1.459660987163     1.007825032230
         H            4.155653651893    -0.706014872458     0.279346987163     1.007825032230
         H            3.972188651893     0.227099127542    -1.203535012837     1.007825032230
         H            4.742968651893     0.969905127542     0.214876987163     1.007825032230
         H           -2.848375348107     2.107724127542     0.103492987163     1.007825032230

  Basis Set: AUG-CC-PVTZ
    Blend: AUG-CC-PVTZ
  Basis Set: (AUG-CC-PVTZ AUX)
    Blend: AUG-CC-PVTZ-JKFIT
	 Reference Energy          =    -512.8822889680081971 [Eh]
	 Singles Energy            =      -0.0000000000000000 [Eh]
	 Same-Spin Energy          =      -0.5114518354585649 [Eh]
	 Opposite-Spin Energy      =      -1.6151133329057319 [Eh]
	 Correlation Energy        =      -2.1265651683642970 [Eh]
	 Total Energy              =    -515.0088541363725199 [Eh]

	 ================> DF-SCS-MP2 Energies <==================
	-----------------------------------------------------------
	 SCS Same-Spin Scale       =       0.3333333333333333 [-]
	 SCS Opposite-Spin Scale   =       1.2000000000000000 [-]
	 SCS Same-Spin Energy      =      -0.1704839451528549 [Eh]
	 SCS Opposite-Spin Energy  =      -1.9381359994868781 [Eh]
	 SCS Correlation Energy    =      -2.1086199446397331 [Eh]
	 SCS Total Energy          =    -514.9909089126479103 [Eh]
	-----------------------------------------------------------

  Dipole Moment: [D]
     X:    -0.0470      Y:     3.3026      Z:     1.9729     Total:     3.8473

*** Psi4 exiting successfully. Buy a developer a beer!
