                               Psi4 1.4a3.dev225

  ==> Input File <==

--------------------------------------------------------------------------
#psi4
#
memory 32 gb

molecule  {
0 1
  O        2.1858500    -1.4843500     0.4466430
  O       -1.5901990     1.2021140    -0.7742790
  O        3.2899360     0.0893000    -0.7567370
  N       -0.1552130    -0.3501220     0.0655300
  C        0.9814812     0.5019164    -0.1014966
  C        1.1366130     1.5332170     1.0331740
  C       -2.5208420    -0.9251940    -0.0919400
  C       -1.4008270     0.0814870    -0.2899980
  C        2.2713450    -0.2912280    -0.2118740
  C       -3.8280260    -0.2360070     0.2837800
  H        0.8752740     1.0541530    -1.0466610
  H       -0.0274960    -1.2421660     0.5250420
  H        1.2555520     1.0181310     1.9903510
  H        2.0023980     2.1787030     0.8613650
  H        0.2327940     2.1443920     1.0604580
  H       -2.6404080    -1.4674310    -1.0380590
  H       -2.2372030    -1.6677960     0.6628800
  H       -3.7417830     0.2575120     1.2553170
  H       -4.0728600     0.5241080    -0.4590610
  H       -4.6456460    -0.9595500     0.3374610
  H        3.0673500    -1.9023430     0.3513230
units angstrom
no_reorient  #important for SAPT in psi4, default
symmetry c1  #important for SAPT in psi4, default
}

set PROPERTIES_ORIGIN ["COM"]
properties('MP2/aug-cc-pvtz', properties = ['dipole'])
--------------------------------------------------------------------------

    Molecular point group: c1
  Charge       = 0
  Multiplicity = 1
  Basis Set: AUG-CC-PVTZ
    Blend: AUG-CC-PVTZ
  Basis Set: (AUG-CC-PVTZ AUX)
    Blend: AUG-CC-PVTZ-JKFIT

    Orbital Energies [Eh]
    ---------------------

    Doubly Occupied:

       1A    -20.633891     2A    -20.564933     3A    -20.523626
       4A    -15.596720     5A    -11.403815     6A    -11.357794
       7A    -11.296157     8A    -11.248338     9A    -11.232564
      10A    -11.222818    11A     -1.476027    12A     -1.380903
      13A     -1.372182    14A     -1.250639    15A     -1.075584
      16A     -1.036414    17A     -0.927359    18A     -0.887127
      19A     -0.822128    20A     -0.796534    21A     -0.728813
      22A     -0.714236    23A     -0.681950    24A     -0.659828
      25A     -0.642815    26A     -0.634720    27A     -0.609932
      28A     -0.598801    29A     -0.586226    30A     -0.556723
      31A     -0.548971    32A     -0.528062    33A     -0.524187
      34A     -0.513708    35A     -0.498161    36A     -0.486864
      37A     -0.468602    38A     -0.428680    39A     -0.399833

  @DF-RHF Final Energy:  -512.88577596123480

   => Energetics <=

    Nuclear Repulsion Energy =            548.0594413439325763
    One-Electron Energy =               -1788.0570975006014578
    Two-Electron Energy =                 727.1118801954340825
    Total Energy =                       -512.8857759612347991
  Basis Set: (AUG-CC-PVTZ AUX)
    Blend: AUG-CC-PVTZ-RI
    Molecular point group: c1

    Geometry (in Angstrom), charge = 0, multiplicity = 1:

       Center              X                  Y                   Z               Mass
    ------------   -----------------  -----------------  -----------------  -----------------
         O            2.119377963348    -1.483789894253     0.477189194858    15.994914619570
         O           -1.656671036652     1.202674105747    -0.743732805142    15.994914619570
         O            3.223463963348     0.089860105747    -0.726190805142    15.994914619570
         N           -0.221685036652    -0.349561894253     0.096076194858    14.003074004430
         C            0.915009163348     0.502476505747    -0.070950405142    12.000000000000
         C            1.070140963348     1.533777105747     1.063720194858    12.000000000000
         C           -2.587314036652    -0.924633894253    -0.061393805142    12.000000000000
         C           -1.467299036652     0.082047105747    -0.259451805142    12.000000000000
         C            2.204872963348    -0.290667894253    -0.181327805142    12.000000000000
         C           -3.894498036652    -0.235446894253     0.314326194858    12.000000000000
         H            0.808801963348     1.054713105747    -1.016114805142     1.007825032230
         H           -0.093968036652    -1.241605894253     0.555588194858     1.007825032230
         H            1.189079963348     1.018691105747     2.020897194858     1.007825032230
         H            1.935925963348     2.179263105747     0.891911194858     1.007825032230
         H            0.166321963348     2.144952105747     1.091004194858     1.007825032230
         H           -2.706880036652    -1.466870894253    -1.007512805142     1.007825032230
         H           -2.303675036652    -1.667235894253     0.693426194858     1.007825032230
         H           -3.808255036652     0.258072105747     1.285863194858     1.007825032230
         H           -4.139332036652     0.524668105747    -0.428514805142     1.007825032230
         H           -4.712118036652    -0.958989894253     0.368007194858     1.007825032230
         H            3.000877963348    -1.901782894253     0.381869194858     1.007825032230

  Basis Set: AUG-CC-PVTZ
    Blend: AUG-CC-PVTZ
  Basis Set: (AUG-CC-PVTZ AUX)
    Blend: AUG-CC-PVTZ-JKFIT
	 Reference Energy          =    -512.8857759612347991 [Eh]
	 Singles Energy            =      -0.0000000000000000 [Eh]
	 Same-Spin Energy          =      -0.5113201692764424 [Eh]
	 Opposite-Spin Energy      =      -1.6151825291218487 [Eh]
	 Correlation Energy        =      -2.1265026983982911 [Eh]
	 Total Energy              =    -515.0122786596331252 [Eh]

	 ================> DF-SCS-MP2 Energies <==================
	-----------------------------------------------------------
	 SCS Same-Spin Scale       =       0.3333333333333333 [-]
	 SCS Opposite-Spin Scale   =       1.2000000000000000 [-]
	 SCS Same-Spin Energy      =      -0.1704400564254808 [Eh]
	 SCS Opposite-Spin Energy  =      -1.9382190349462183 [Eh]
	 SCS Correlation Energy    =      -2.1086590913716989 [Eh]
	 SCS Total Energy          =    -514.9944350526064909 [Eh]
	-----------------------------------------------------------

  Dipole Moment: [D]
     X:     0.0784      Y:    -3.3135      Z:     2.2800     Total:     4.0229

*** Psi4 exiting successfully. Buy a developer a beer!
