                               Psi4 1.3.2 release

  ==> Input File <==

--------------------------------------------------------------------------
#psi4
#
memory 32 gb

molecule  {
0 1
  O       -1.9756670     1.6664010     0.1857370
  O        1.6511300    -1.1930600    -0.6768240
  O       -3.2820610    -0.0444860    -0.5140140
  N        0.2152580     0.2772540     0.2951010
  C       -0.9464590    -0.4858680    -0.1100250
  C       -1.2010820    -1.6869190     0.8036840
  C        2.5941300     0.7851170     0.3678910
  C        1.4904690    -0.0729922    -0.0440180
  C       -2.1892550     0.3702600    -0.1810000
  C        3.9493650     0.2879730    -0.1118860
  H       -0.7666830    -0.8628490    -1.1247510
  H        0.1295651     1.2041625     0.6933328
  H       -1.3680630    -1.3508140     1.8303240
  H       -2.0758160    -2.2433210     0.4601180
  H       -0.3237180    -2.3338760     0.7750620
  H        2.3897550     1.7945520    -0.0146150
  H        2.5759940     0.8629050     1.4619760
  H        4.1547340    -0.7097650     0.2816620
  H        3.9712690     0.2233490    -1.2012200
  H        4.7420490     0.9661550     0.2171920
  H       -2.8492950     2.1039740     0.1058080
units angstrom
no_reorient  #important for SAPT in psi4, default
symmetry c1  #important for SAPT in psi4, default
}

set PROPERTIES_ORIGIN ["COM"]
properties('MP2/aug-cc-pvtz', properties = ['dipole'])
--------------------------------------------------------------------------

    Molecular point group: c1
  Charge       = 0
  Multiplicity = 1
  Basis Set: AUG-CC-PVTZ
    Blend: AUG-CC-PVTZ
  Basis Set: (AUG-CC-PVTZ AUX)
    Blend: AUG-CC-PVTZ-JKFIT

    Orbital Energies [Eh]
    ---------------------

    Doubly Occupied:

       1A    -20.635429     2A    -20.563976     3A    -20.515418
       4A    -15.597230     5A    -11.405227     6A    -11.359731
       7A    -11.299296     8A    -11.251147     9A    -11.226668
      10A    -11.222929    11A     -1.478072    12A     -1.373533
      13A     -1.349035    14A     -1.236812    15A     -1.086041
      16A     -1.041364    17A     -0.929025    18A     -0.895969
      19A     -0.817447    20A     -0.786581    21A     -0.733482
      22A     -0.714357    23A     -0.685280    24A     -0.666709
      25A     -0.646453    26A     -0.631834    27A     -0.610407
      28A     -0.592950    29A     -0.573210    30A     -0.547443
      31A     -0.541969    32A     -0.529271    33A     -0.520238
      34A     -0.517845    35A     -0.497949    36A     -0.478582
      37A     -0.467084    38A     -0.427481    39A     -0.394711

  @DF-RHF Final Energy:  -512.87233279158181

   => Energetics <=

    Nuclear Repulsion Energy =            547.6741616571426903
    One-Electron Energy =               -1787.3966145107724515
    Two-Electron Energy =                 726.8501200620480631
    Total Energy =                       -512.8723327915818118
  Basis Set: (AUG-CC-PVTZ AUX)
    Blend: AUG-CC-PVTZ-RI
    Molecular point group: c1

    Geometry (in Angstrom), charge = 0, multiplicity = 1:

       Center              X                  Y                   Z               Mass
    ------------   -----------------  -----------------  -----------------  -----------------
         O           -1.978118446814     1.661131094379     0.183919122062    15.994914619570
         O            1.648678553186    -1.198329905621    -0.678641877938    15.994914619570
         O           -3.284512446814    -0.049755905621    -0.515831877938    15.994914619570
         N            0.212806553186     0.271984094379     0.293283122062    14.003074004430
         C           -0.948910446814    -0.491137905621    -0.111842877938    12.000000000000
         C           -1.203533446814    -1.692188905621     0.801866122062    12.000000000000
         C            2.591678553186     0.779847094379     0.366073122062    12.000000000000
         C            1.488017553186    -0.078262105621    -0.045835877938    12.000000000000
         C           -2.191706446814     0.364990094379    -0.182817877938    12.000000000000
         C            3.946913553186     0.282703094379    -0.113703877938    12.000000000000
         H           -0.769134446814    -0.868118905621    -1.126568877938     1.007825032230
         H            0.127113653186     1.198892594379     0.691514922062     1.007825032230
         H           -1.370514446814    -1.356083905621     1.828506122062     1.007825032230
         H           -2.078267446814    -2.248590905621     0.458300122062     1.007825032230
         H           -0.326169446814    -2.339145905621     0.773244122062     1.007825032230
         H            2.387303553186     1.789282094379    -0.016432877938     1.007825032230
         H            2.573542553186     0.857635094379     1.460158122062     1.007825032230
         H            4.152282553186    -0.715034905621     0.279844122062     1.007825032230
         H            3.968817553186     0.218079094379    -1.203037877938     1.007825032230
         H            4.739597553186     0.960885094379     0.215374122062     1.007825032230
         H           -2.851746446814     2.098704094379     0.103990122062     1.007825032230

  Basis Set: AUG-CC-PVTZ
    Blend: AUG-CC-PVTZ
  Basis Set: (AUG-CC-PVTZ AUX)
    Blend: AUG-CC-PVTZ-JKFIT
	 Reference Energy          =    -512.8723327915818118 [Eh]
	 Singles Energy            =      -0.0000000000000000 [Eh]
	 Same-Spin Energy          =      -0.5130867207095812 [Eh]
	 Opposite-Spin Energy      =      -1.6182633438807028 [Eh]
	 Correlation Energy        =      -2.1313500645902841 [Eh]
	 Total Energy              =    -515.0036828561720768 [Eh]

	 ================> DF-SCS-MP2 Energies <==================
	-----------------------------------------------------------
	 SCS Same-Spin Scale       =       0.3333333333333333 [-]
	 SCS Opposite-Spin Scale   =       1.2000000000000000 [-]
	 SCS Same-Spin Energy      =      -0.1710289069031937 [Eh]
	 SCS Opposite-Spin Energy  =      -1.9419160126568433 [Eh]
	 SCS Correlation Energy    =      -2.1129449195600372 [Eh]
	 SCS Total Energy          =    -514.9852777111418618 [Eh]
	-----------------------------------------------------------

  Dipole Moment: [D]
     X:     0.0632      Y:     3.5725      Z:     2.1047     Total:     4.1469

*** Psi4 exiting successfully. Buy a developer a beer!
