                               Psi4 1.3.2 release

  ==> Input File <==

--------------------------------------------------------------------------
#psi4
#
memory 32 gb

molecule  {
0 1
  O       -1.9756670     1.6664010     0.1857370
  O        1.6511300    -1.1930600    -0.6768240
  O       -3.2820610    -0.0444860    -0.5140140
  N        0.2152580     0.2772540     0.2951010
  C       -0.9464590    -0.4858680    -0.1100250
  C       -1.2010820    -1.6869190     0.8036840
  C        2.5941300     0.7851170     0.3678910
  C        1.4740321    -0.1438829    -0.0723939
  C       -2.1892550     0.3702600    -0.1810000
  C        3.9434487     0.2775757    -0.1176405
  H       -0.7666830    -0.8628490    -1.1247510
  H        0.0773990     1.1958980     0.6978160
  H       -1.3680630    -1.3508140     1.8303240
  H       -2.0758160    -2.2433210     0.4601180
  H       -0.3237180    -2.3338760     0.7750620
  H        2.3897550     1.7945520    -0.0146150
  H        2.5759940     0.8629050     1.4619760
  H        4.1547340    -0.7097650     0.2816620
  H        3.9712690     0.2233490    -1.2012200
  H        4.7420490     0.9661550     0.2171920
  H       -2.8492950     2.1039740     0.1058080
units angstrom
no_reorient  #important for SAPT in psi4, default
symmetry c1  #important for SAPT in psi4, default
}

set PROPERTIES_ORIGIN ["COM"]
properties('MP2/aug-cc-pvtz', properties = ['dipole'])
--------------------------------------------------------------------------

    Molecular point group: c1
  Charge       = 0
  Multiplicity = 1
  Basis Set: AUG-CC-PVTZ
    Blend: AUG-CC-PVTZ
  Basis Set: (AUG-CC-PVTZ AUX)
    Blend: AUG-CC-PVTZ-JKFIT

    Orbital Energies [Eh]
    ---------------------

    Doubly Occupied:

       1A    -20.635136     2A    -20.562989     3A    -20.527504
       4A    -15.589677     5A    -11.403855     6A    -11.356246
       7A    -11.295148     8A    -11.247594     9A    -11.226195
      10A    -11.219852    11A     -1.477581    12A     -1.387496
      13A     -1.372774    14A     -1.242652    15A     -1.074162
      16A     -1.034723    17A     -0.926649    18A     -0.884946
      19A     -0.815534    20A     -0.789772    21A     -0.729913
      22A     -0.713812    23A     -0.683436    24A     -0.664966
      25A     -0.642189    26A     -0.633709    27A     -0.609516
      28A     -0.604756    29A     -0.580738    30A     -0.545422
      31A     -0.543951    32A     -0.523176    33A     -0.521118
      34A     -0.519920    35A     -0.498608    36A     -0.489846
      37A     -0.467348    38A     -0.429781    39A     -0.399555

  @DF-RHF Final Energy:  -512.88617480554876

   => Energetics <=

    Nuclear Repulsion Energy =            548.2641762995924637
    One-Electron Energy =               -1788.5562124261211920
    Two-Electron Energy =                 727.4058613209799660
    Total Energy =                       -512.8861748055487624
  Basis Set: (AUG-CC-PVTZ AUX)
    Blend: AUG-CC-PVTZ-RI
    Molecular point group: c1

    Geometry (in Angstrom), charge = 0, multiplicity = 1:

       Center              X                  Y                   Z               Mass
    ------------   -----------------  -----------------  -----------------  -----------------
         O           -1.975907072360     1.667912363897     0.186711123502    15.994914619570
         O            1.650889927640    -1.191548636103    -0.675849876498    15.994914619570
         O           -3.282301072360    -0.042974636103    -0.513039876498    15.994914619570
         N            0.215017927640     0.278765363897     0.296075123502    14.003074004430
         C           -0.946699072360    -0.484356636103    -0.109050876498    12.000000000000
         C           -1.201322072360    -1.685407636103     0.804658123502    12.000000000000
         C            2.593889927640     0.786628363897     0.368865123502    12.000000000000
         C            1.473792027640    -0.142371536103    -0.071419776498    12.000000000000
         C           -2.189495072360     0.371771363897    -0.180025876498    12.000000000000
         C            3.943208627640     0.279087063897    -0.116666376498    12.000000000000
         H           -0.766923072360    -0.861337636103    -1.123776876498     1.007825032230
         H            0.077158927640     1.197409363897     0.698790123502     1.007825032230
         H           -1.368303072360    -1.349302636103     1.831298123502     1.007825032230
         H           -2.076056072360    -2.241809636103     0.461092123502     1.007825032230
         H           -0.323958072360    -2.332364636103     0.776036123502     1.007825032230
         H            2.389514927640     1.796063363897    -0.013640876498     1.007825032230
         H            2.575753927640     0.864416363897     1.462950123502     1.007825032230
         H            4.154493927640    -0.708253636103     0.282636123502     1.007825032230
         H            3.971028927640     0.224860363897    -1.200245876498     1.007825032230
         H            4.741808927640     0.967666363897     0.218166123502     1.007825032230
         H           -2.849535072360     2.105485363897     0.106782123502     1.007825032230

  Basis Set: AUG-CC-PVTZ
    Blend: AUG-CC-PVTZ
  Basis Set: (AUG-CC-PVTZ AUX)
    Blend: AUG-CC-PVTZ-JKFIT
	 Reference Energy          =    -512.8861748055487624 [Eh]
	 Singles Energy            =      -0.0000000000000000 [Eh]
	 Same-Spin Energy          =      -0.5111879756970190 [Eh]
	 Opposite-Spin Energy      =      -1.6146320050726748 [Eh]
	 Correlation Energy        =      -2.1258199807696938 [Eh]
	 Total Energy              =    -515.0119947863184962 [Eh]

	 ================> DF-SCS-MP2 Energies <==================
	-----------------------------------------------------------
	 SCS Same-Spin Scale       =       0.3333333333333333 [-]
	 SCS Opposite-Spin Scale   =       1.2000000000000000 [-]
	 SCS Same-Spin Energy      =      -0.1703959918990063 [Eh]
	 SCS Opposite-Spin Energy  =      -1.9375584060872098 [Eh]
	 SCS Correlation Energy    =      -2.1079543979862159 [Eh]
	 SCS Total Energy          =    -514.9941292035349534 [Eh]
	-----------------------------------------------------------

  Dipole Moment: [D]
     X:     0.0532      Y:     3.2641      Z:     1.9178     Total:     3.7862

*** Psi4 exiting successfully. Buy a developer a beer!
