                               Psi4 1.3.2 release

  ==> Input File <==

--------------------------------------------------------------------------
#psi4
#
memory 32 gb

molecule  {
0 1
  O       -1.9756670     1.6664010     0.1857370
  O        1.6511300    -1.1930600    -0.6768240
  O       -3.2820610    -0.0444860    -0.5140140
  N        0.2451092     0.3344403     0.3258789
  C       -0.9464590    -0.4858680    -0.1100250
  C       -1.2010820    -1.6869190     0.8036840
  C        2.5396822     0.8327692     0.4010633
  C        1.4652130    -0.1360080    -0.0663740
  C       -2.1892550     0.3702600    -0.1810000
  C        3.9493650     0.2879730    -0.1118860
  H       -0.7666830    -0.8628490    -1.1247510
  H        0.0773990     1.1958980     0.6978160
  H       -1.3680630    -1.3508140     1.8303240
  H       -2.0758160    -2.2433210     0.4601180
  H       -0.3237180    -2.3338760     0.7750620
  H        2.3897550     1.7945520    -0.0146150
  H        2.5759940     0.8629050     1.4619760
  H        4.1547340    -0.7097650     0.2816620
  H        3.9712690     0.2233490    -1.2012200
  H        4.7420490     0.9661550     0.2171920
  H       -2.8492950     2.1039740     0.1058080
units angstrom
no_reorient  #important for SAPT in psi4, default
symmetry c1  #important for SAPT in psi4, default
}

set PROPERTIES_ORIGIN ["COM"]
properties('MP2/aug-cc-pvtz', properties = ['dipole'])
--------------------------------------------------------------------------

    Molecular point group: c1
  Charge       = 0
  Multiplicity = 1
  Basis Set: AUG-CC-PVTZ
    Blend: AUG-CC-PVTZ
  Basis Set: (AUG-CC-PVTZ AUX)
    Blend: AUG-CC-PVTZ-JKFIT

    Orbital Energies [Eh]
    ---------------------

    Doubly Occupied:

       1A    -20.636015     2A    -20.564099     3A    -20.529735
       4A    -15.589567     5A    -11.404797     6A    -11.358266
       7A    -11.300447     8A    -11.240710     9A    -11.229252
      10A    -11.220293    11A     -1.478456    12A     -1.380484
      13A     -1.373805    14A     -1.243147    15A     -1.073450
      16A     -1.028562    17A     -0.926514    18A     -0.884557
      19A     -0.822536    20A     -0.800819    21A     -0.726291
      22A     -0.716658    23A     -0.676742    24A     -0.666392
      25A     -0.646915    26A     -0.634428    27A     -0.611836
      28A     -0.605669    29A     -0.576854    30A     -0.546185
      31A     -0.543011    32A     -0.522859    33A     -0.521788
      34A     -0.506013    35A     -0.496105    36A     -0.491596
      37A     -0.467381    38A     -0.429030    39A     -0.406373

  @DF-RHF Final Energy:  -512.87294023177299

   => Energetics <=

    Nuclear Repulsion Energy =            547.1116740015189635
    One-Electron Energy =               -1786.2139604577798764
    Two-Electron Energy =                 726.2293462244880402
    Total Energy =                       -512.8729402317729864
  Basis Set: (AUG-CC-PVTZ AUX)
    Blend: AUG-CC-PVTZ-RI
    Molecular point group: c1

    Geometry (in Angstrom), charge = 0, multiplicity = 1:

       Center              X                  Y                   Z               Mass
    ------------   -----------------  -----------------  -----------------  -----------------
         O           -1.974044582622     1.656939495136     0.180022493385    15.994914619570
         O            1.652752417378    -1.202521504864    -0.682538506615    15.994914619570
         O           -3.280438582622    -0.053947504864    -0.519728506615    15.994914619570
         N            0.246731617378     0.324978795136     0.320164393385    14.003074004430
         C           -0.944836582622    -0.495329504864    -0.115739506615    12.000000000000
         C           -1.199459582622    -1.696380504864     0.797969493385    12.000000000000
         C            2.541304617378     0.823307695136     0.395348793385    12.000000000000
         C            1.466835417378    -0.145469504864    -0.072088506615    12.000000000000
         C           -2.187632582622     0.360798495136    -0.186714506615    12.000000000000
         C            3.950987417378     0.278511495136    -0.117600506615    12.000000000000
         H           -0.765060582622    -0.872310504864    -1.130465506615     1.007825032230
         H            0.079021417378     1.186436495136     0.692101493385     1.007825032230
         H           -1.366440582622    -1.360275504864     1.824609493385     1.007825032230
         H           -2.074193582622    -2.252782504864     0.454403493385     1.007825032230
         H           -0.322095582622    -2.343337504864     0.769347493385     1.007825032230
         H            2.391377417378     1.785090495136    -0.020329506615     1.007825032230
         H            2.577616417378     0.853443495136     1.456261493385     1.007825032230
         H            4.156356417378    -0.719226504864     0.275947493385     1.007825032230
         H            3.972891417378     0.213887495136    -1.206934506615     1.007825032230
         H            4.743671417378     0.956693495136     0.211477493385     1.007825032230
         H           -2.847672582622     2.094512495136     0.100093493385     1.007825032230

  Basis Set: AUG-CC-PVTZ
    Blend: AUG-CC-PVTZ
  Basis Set: (AUG-CC-PVTZ AUX)
    Blend: AUG-CC-PVTZ-JKFIT
	 Reference Energy          =    -512.8729402317729864 [Eh]
	 Singles Energy            =      -0.0000000000000000 [Eh]
	 Same-Spin Energy          =      -0.5108586979566798 [Eh]
	 Opposite-Spin Energy      =      -1.6153025801361478 [Eh]
	 Correlation Energy        =      -2.1261612780928276 [Eh]
	 Total Energy              =    -514.9991015098657954 [Eh]

	 ================> DF-SCS-MP2 Energies <==================
	-----------------------------------------------------------
	 SCS Same-Spin Scale       =       0.3333333333333333 [-]
	 SCS Opposite-Spin Scale   =       1.2000000000000000 [-]
	 SCS Same-Spin Energy      =      -0.1702862326522266 [Eh]
	 SCS Opposite-Spin Energy  =      -1.9383630961633773 [Eh]
	 SCS Correlation Energy    =      -2.1086493288156039 [Eh]
	 SCS Total Energy          =    -514.9815895605886453 [Eh]
	-----------------------------------------------------------

  Dipole Moment: [D]
     X:    -0.2004      Y:     3.1778      Z:     1.9155     Total:     3.7159

*** Psi4 exiting successfully. Buy a developer a beer!
