                               Psi4 1.3.2 release

  ==> Input File <==

--------------------------------------------------------------------------
#psi4
#
memory 32 gb

molecule  {
0 1
  O       -1.9756670     1.6664010     0.1857370
  O        1.6511300    -1.1930600    -0.6768240
  O       -3.2820610    -0.0444860    -0.5140140
  N        0.2152580     0.2772540     0.2951010
  C       -0.9464590    -0.4858680    -0.1100250
  C       -1.2010820    -1.6869190     0.8036840
  C        2.5941300     0.7851170     0.3678910
  C        1.4652130    -0.1360080    -0.0663740
  C       -2.1892550     0.3702600    -0.1810000
  C        3.9493650     0.2879730    -0.1118860
  H       -0.7994495    -0.7941394    -0.9398041
  H        0.0773990     1.1958980     0.6978160
  H       -1.3680630    -1.3508140     1.8303240
  H       -2.0758160    -2.2433210     0.4601180
  H       -0.3237180    -2.3338760     0.7750620
  H        2.3897550     1.7945520    -0.0146150
  H        2.5759940     0.8629050     1.4619760
  H        4.1547340    -0.7097650     0.2816620
  H        3.9712690     0.2233490    -1.2012200
  H        4.7420490     0.9661550     0.2171920
  H       -2.8492950     2.1039740     0.1058080
units angstrom
no_reorient  #important for SAPT in psi4, default
symmetry c1  #important for SAPT in psi4, default
}

set PROPERTIES_ORIGIN ["COM"]
properties('MP2/aug-cc-pvtz', properties = ['dipole'])
--------------------------------------------------------------------------

    Molecular point group: c1
  Charge       = 0
  Multiplicity = 1
  Basis Set: AUG-CC-PVTZ
    Blend: AUG-CC-PVTZ
  Basis Set: (AUG-CC-PVTZ AUX)
    Blend: AUG-CC-PVTZ-JKFIT

    Orbital Energies [Eh]
    ---------------------

    Doubly Occupied:

       1A    -20.636348     2A    -20.565458     3A    -20.524155
       4A    -15.591113     5A    -11.405099     6A    -11.356031
       7A    -11.274647     8A    -11.247292     9A    -11.226295
      10A    -11.219302    11A     -1.479184    12A     -1.380589
      13A     -1.374677    14A     -1.247761    15A     -1.082259
      16A     -1.039855    17A     -0.929151    18A     -0.885482
      19A     -0.841224    20A     -0.792421    21A     -0.731012
      22A     -0.715549    23A     -0.689712    24A     -0.673050
      25A     -0.641324    26A     -0.639421    27A     -0.614746
      28A     -0.603768    29A     -0.580820    30A     -0.548543
      31A     -0.544992    32A     -0.527942    33A     -0.523435
      34A     -0.519264    35A     -0.498051    36A     -0.491333
      37A     -0.470419    38A     -0.428527    39A     -0.400944

  @DF-RHF Final Energy:  -512.85384864039656

   => Energetics <=

    Nuclear Repulsion Energy =            549.3899490041550280
    One-Electron Energy =               -1790.6052134046894935
    Two-Electron Energy =                 728.3614157601380157
    Total Energy =                       -512.8538486403965635
  Basis Set: (AUG-CC-PVTZ AUX)
    Blend: AUG-CC-PVTZ-RI
    Molecular point group: c1

    Geometry (in Angstrom), charge = 0, multiplicity = 1:

       Center              X                  Y                   Z               Mass
    ------------   -----------------  -----------------  -----------------  -----------------
         O           -1.975439334868     1.665923628030     0.184452364823    15.994914619570
         O            1.651357665132    -1.193537371970    -0.678108635177    15.994914619570
         O           -3.281833334868    -0.044963371970    -0.515298635177    15.994914619570
         N            0.215485665132     0.276776628030     0.293816364823    14.003074004430
         C           -0.946231334868    -0.486345371970    -0.111309635177    12.000000000000
         C           -1.200854334868    -1.687396371970     0.802399364823    12.000000000000
         C            2.594357665132     0.784639628030     0.366606364823    12.000000000000
         C            1.465440665132    -0.136485371970    -0.067658635177    12.000000000000
         C           -2.189027334868     0.369782628030    -0.182284635177    12.000000000000
         C            3.949592665132     0.287495628030    -0.113170635177    12.000000000000
         H           -0.799221834868    -0.794616771970    -0.941088735177     1.007825032230
         H            0.077626665132     1.195420628030     0.696531364823     1.007825032230
         H           -1.367835334868    -1.351291371970     1.829039364823     1.007825032230
         H           -2.075588334868    -2.243798371970     0.458833364823     1.007825032230
         H           -0.323490334868    -2.334353371970     0.773777364823     1.007825032230
         H            2.389982665132     1.794074628030    -0.015899635177     1.007825032230
         H            2.576221665132     0.862427628030     1.460691364823     1.007825032230
         H            4.154961665132    -0.710242371970     0.280377364823     1.007825032230
         H            3.971496665132     0.222871628030    -1.202504635177     1.007825032230
         H            4.742276665132     0.965677628030     0.215907364823     1.007825032230
         H           -2.849067334868     2.103496628030     0.104523364823     1.007825032230

  Basis Set: AUG-CC-PVTZ
    Blend: AUG-CC-PVTZ
  Basis Set: (AUG-CC-PVTZ AUX)
    Blend: AUG-CC-PVTZ-JKFIT
	 Reference Energy          =    -512.8538486403965635 [Eh]
	 Singles Energy            =      -0.0000000000000000 [Eh]
	 Same-Spin Energy          =      -0.5109198104469255 [Eh]
	 Opposite-Spin Energy      =      -1.6139799211287009 [Eh]
	 Correlation Energy        =      -2.1248997315756264 [Eh]
	 Total Energy              =    -514.9787483719721877 [Eh]

	 ================> DF-SCS-MP2 Energies <==================
	-----------------------------------------------------------
	 SCS Same-Spin Scale       =       0.3333333333333333 [-]
	 SCS Opposite-Spin Scale   =       1.2000000000000000 [-]
	 SCS Same-Spin Energy      =      -0.1703066034823085 [Eh]
	 SCS Opposite-Spin Energy  =      -1.9367759053544411 [Eh]
	 SCS Correlation Energy    =      -2.1070825088367497 [Eh]
	 SCS Total Energy          =    -514.9609311492332608 [Eh]
	-----------------------------------------------------------

  Dipole Moment: [D]
     X:    -0.1195      Y:     3.3436      Z:     1.9731     Total:     3.8842

*** Psi4 exiting successfully. Buy a developer a beer!
