                               Psi4 1.3.2 release

  ==> Input File <==

--------------------------------------------------------------------------
#psi4
#
memory 32 gb

molecule  {
0 1
  O       -1.9756670     1.6664010     0.1857370
  O        1.5872602    -1.2029661    -0.6757000
  O       -3.2820610    -0.0444860    -0.5140140
  N        0.1889762     0.2181096     0.2647719
  C       -0.9464590    -0.4858680    -0.1100250
  C       -1.2010820    -1.6869190     0.8036840
  C        2.5941300     0.7851170     0.3678910
  C        1.4652130    -0.1360080    -0.0663740
  C       -2.1892550     0.3702600    -0.1810000
  C        3.9493650     0.2879730    -0.1118860
  H       -0.7666830    -0.8628490    -1.1247510
  H        0.0773990     1.1958980     0.6978160
  H       -1.3680630    -1.3508140     1.8303240
  H       -2.0758160    -2.2433210     0.4601180
  H       -0.3237180    -2.3338760     0.7750620
  H        2.3897550     1.7945520    -0.0146150
  H        2.5759940     0.8629050     1.4619760
  H        4.1547340    -0.7097650     0.2816620
  H        3.9712690     0.2233490    -1.2012200
  H        4.7420490     0.9661550     0.2171920
  H       -2.8492950     2.1039740     0.1058080
units angstrom
no_reorient  #important for SAPT in psi4, default
symmetry c1  #important for SAPT in psi4, default
}

set PROPERTIES_ORIGIN ["COM"]
properties('MP2/aug-cc-pvtz', properties = ['dipole'])
--------------------------------------------------------------------------

    Molecular point group: c1
  Charge       = 0
  Multiplicity = 1
  Basis Set: AUG-CC-PVTZ
    Blend: AUG-CC-PVTZ
  Basis Set: (AUG-CC-PVTZ AUX)
    Blend: AUG-CC-PVTZ-JKFIT

    Orbital Energies [Eh]
    ---------------------

    Doubly Occupied:

       1A    -20.634349     2A    -20.561827     3A    -20.521027
       4A    -15.591025     5A    -11.402933     6A    -11.356181
       7A    -11.289234     8A    -11.254701     9A    -11.224086
      10A    -11.222523    11A     -1.476770    12A     -1.383759
      13A     -1.371665    14A     -1.246866    15A     -1.076699
      16A     -1.034517    17A     -0.927226    18A     -0.889433
      19A     -0.816517    20A     -0.782256    21A     -0.735498
      22A     -0.710336    23A     -0.688069    24A     -0.663727
      25A     -0.643502    26A     -0.631667    27A     -0.609406
      28A     -0.599152    29A     -0.578707    30A     -0.545576
      31A     -0.542316    32A     -0.528713    33A     -0.523183
      34A     -0.518983    35A     -0.498382    36A     -0.487139
      37A     -0.465466    38A     -0.429415    39A     -0.391139

  @DF-RHF Final Energy:  -512.87529896507931

   => Energetics <=

    Nuclear Repulsion Energy =            549.5522330911348945
    One-Electron Energy =               -1791.1471201901501900
    Two-Electron Energy =                 728.7195881339359858
    Total Energy =                       -512.8752989650793097
  Basis Set: (AUG-CC-PVTZ AUX)
    Blend: AUG-CC-PVTZ-RI
    Molecular point group: c1

    Geometry (in Angstrom), charge = 0, multiplicity = 1:

       Center              X                  Y                   Z               Mass
    ------------   -----------------  -----------------  -----------------  -----------------
         O           -1.966088272047     1.673201973329     0.188540739719    15.994914619570
         O            1.596838927953    -1.196165126671    -0.672896260281    15.994914619570
         O           -3.272482272047    -0.037685026671    -0.511210260281    15.994914619570
         N            0.198554927953     0.224910573329     0.267575639719    14.003074004430
         C           -0.936880272047    -0.479067026671    -0.107221260281    12.000000000000
         C           -1.191503272047    -1.680118026671     0.806487739719    12.000000000000
         C            2.603708727953     0.791917973329     0.370694739719    12.000000000000
         C            1.474791727953    -0.129207026671    -0.063570260281    12.000000000000
         C           -2.179676272047     0.377060973329    -0.178196260281    12.000000000000
         C            3.958943727953     0.294773973329    -0.109082260281    12.000000000000
         H           -0.757104272047    -0.856048026671    -1.121947260281     1.007825032230
         H            0.086977727953     1.202698973329     0.700619739719     1.007825032230
         H           -1.358484272047    -1.344013026671     1.833127739719     1.007825032230
         H           -2.066237272047    -2.236520026671     0.462921739719     1.007825032230
         H           -0.314139272047    -2.327075026671     0.777865739719     1.007825032230
         H            2.399333727953     1.801352973329    -0.011811260281     1.007825032230
         H            2.585572727953     0.869705973329     1.464779739719     1.007825032230
         H            4.164312727953    -0.702964026671     0.284465739719     1.007825032230
         H            3.980847727953     0.230149973329    -1.198416260281     1.007825032230
         H            4.751627727953     0.972955973329     0.219995739719     1.007825032230
         H           -2.839716272047     2.110774973329     0.108611739719     1.007825032230

  Basis Set: AUG-CC-PVTZ
    Blend: AUG-CC-PVTZ
  Basis Set: (AUG-CC-PVTZ AUX)
    Blend: AUG-CC-PVTZ-JKFIT
	 Reference Energy          =    -512.8752989650793097 [Eh]
	 Singles Energy            =      -0.0000000000000000 [Eh]
	 Same-Spin Energy          =      -0.5124519269012906 [Eh]
	 Opposite-Spin Energy      =      -1.6163596329510770 [Eh]
	 Correlation Energy        =      -2.1288115598523678 [Eh]
	 Total Energy              =    -515.0041105249316615 [Eh]

	 ================> DF-SCS-MP2 Energies <==================
	-----------------------------------------------------------
	 SCS Same-Spin Scale       =       0.3333333333333333 [-]
	 SCS Opposite-Spin Scale   =       1.2000000000000000 [-]
	 SCS Same-Spin Energy      =      -0.1708173089670968 [Eh]
	 SCS Opposite-Spin Energy  =      -1.9396315595412923 [Eh]
	 SCS Correlation Energy    =      -2.1104488685083891 [Eh]
	 SCS Total Energy          =    -514.9857478335876522 [Eh]
	-----------------------------------------------------------

  Dipole Moment: [D]
     X:     0.3187      Y:     3.4913      Z:     2.0005     Total:     4.0364

*** Psi4 exiting successfully. Buy a developer a beer!
