                               Psi4 1.3.2 release

  ==> Input File <==

--------------------------------------------------------------------------
#psi4
#
memory 32 gb

molecule  {
0 1
  O       -1.9526786     1.6613778     0.1893293
  O        1.6511300    -1.1930600    -0.6768240
  O       -3.2736397    -0.0637218    -0.5170166
  N        0.2152580     0.2772540     0.2951010
  C       -0.9464590    -0.4858680    -0.1100250
  C       -1.2010820    -1.6869190     0.8036840
  C        2.5941300     0.7851170     0.3678910
  C        1.4652130    -0.1360080    -0.0663740
  C       -2.1892550     0.3702600    -0.1810000
  C        3.9493650     0.2879730    -0.1118860
  H       -0.7666830    -0.8628490    -1.1247510
  H        0.0773990     1.1958980     0.6978160
  H       -1.3680630    -1.3508140     1.8303240
  H       -2.0758160    -2.2433210     0.4601180
  H       -0.3237180    -2.3338760     0.7750620
  H        2.3897550     1.7945520    -0.0146150
  H        2.5759940     0.8629050     1.4619760
  H        4.1547340    -0.7097650     0.2816620
  H        3.9712690     0.2233490    -1.2012200
  H        4.7420490     0.9661550     0.2171920
  H       -2.8492950     2.1039740     0.1058080
units angstrom
no_reorient  #important for SAPT in psi4, default
symmetry c1  #important for SAPT in psi4, default
}

set PROPERTIES_ORIGIN ["COM"]
properties('MP2/aug-cc-pvtz', properties = ['dipole'])
--------------------------------------------------------------------------

    Molecular point group: c1
  Charge       = 0
  Multiplicity = 1
  Basis Set: AUG-CC-PVTZ
    Blend: AUG-CC-PVTZ
  Basis Set: (AUG-CC-PVTZ AUX)
    Blend: AUG-CC-PVTZ-JKFIT

    Orbital Energies [Eh]
    ---------------------

    Doubly Occupied:

       1A    -20.640763     2A    -20.565276     3A    -20.523771
       4A    -15.591162     5A    -11.405071     6A    -11.355296
       7A    -11.294220     8A    -11.247040     9A    -11.225804
      10A    -11.219104    11A     -1.476612    12A     -1.379877
      13A     -1.375184    14A     -1.244110    15A     -1.073859
      16A     -1.034688    17A     -0.925951    18A     -0.884289
      19A     -0.813108    20A     -0.791869    21A     -0.730243
      22A     -0.714334    23A     -0.682203    24A     -0.665420
      25A     -0.640903    26A     -0.633664    27A     -0.610092
      28A     -0.601873    29A     -0.579875    30A     -0.545675
      31A     -0.543459    32A     -0.523457    33A     -0.520091
      34A     -0.518725    35A     -0.498157    36A     -0.488132
      37A     -0.467564    38A     -0.427987    39A     -0.399195

  @DF-RHF Final Energy:  -512.88303168691471

   => Energetics <=

    Nuclear Repulsion Energy =            548.4605954446500391
    One-Electron Energy =               -1788.9710559011884925
    Two-Electron Energy =                 727.6274287696238616
    Total Energy =                       -512.8830316869147055
  Basis Set: (AUG-CC-PVTZ AUX)
    Blend: AUG-CC-PVTZ-RI
    Molecular point group: c1

    Geometry (in Angstrom), charge = 0, multiplicity = 1:

       Center              X                  Y                   Z               Mass
    ------------   -----------------  -----------------  -----------------  -----------------
         O           -1.956141594550     1.664052393407     0.189264470195    15.994914619570
         O            1.647667005450    -1.190385406593    -0.676888829805    15.994914619570
         O           -3.277102694550    -0.061047206593    -0.517081429805    15.994914619570
         N            0.211795005450     0.279928593407     0.295036170195    14.003074004430
         C           -0.949921994550    -0.483193406593    -0.110089829805    12.000000000000
         C           -1.204544994550    -1.684244406593     0.803619170195    12.000000000000
         C            2.590667005450     0.787791593407     0.367826170195    12.000000000000
         C            1.461750005450    -0.133333406593    -0.066438829805    12.000000000000
         C           -2.192717994550     0.372934593407    -0.181064829805    12.000000000000
         C            3.945902005450     0.290647593407    -0.111950829805    12.000000000000
         H           -0.770145994550    -0.860174406593    -1.124815829805     1.007825032230
         H            0.073936005450     1.198572593407     0.697751170195     1.007825032230
         H           -1.371525994550    -1.348139406593     1.830259170195     1.007825032230
         H           -2.079278994550    -2.240646406593     0.460053170195     1.007825032230
         H           -0.327180994550    -2.331201406593     0.774997170195     1.007825032230
         H            2.386292005450     1.797226593407    -0.014679829805     1.007825032230
         H            2.572531005450     0.865579593407     1.461911170195     1.007825032230
         H            4.151271005450    -0.707090406593     0.281597170195     1.007825032230
         H            3.967806005450     0.226023593407    -1.201284829805     1.007825032230
         H            4.738586005450     0.968829593407     0.217127170195     1.007825032230
         H           -2.852757994550     2.106648593407     0.105743170195     1.007825032230

  Basis Set: AUG-CC-PVTZ
    Blend: AUG-CC-PVTZ
  Basis Set: (AUG-CC-PVTZ AUX)
    Blend: AUG-CC-PVTZ-JKFIT
	 Reference Energy          =    -512.8830316869147055 [Eh]
	 Singles Energy            =      -0.0000000000000000 [Eh]
	 Same-Spin Energy          =      -0.5119450304466736 [Eh]
	 Opposite-Spin Energy      =      -1.6161304889879617 [Eh]
	 Correlation Energy        =      -2.1280755194346352 [Eh]
	 Total Energy              =    -515.0111072063493793 [Eh]

	 ================> DF-SCS-MP2 Energies <==================
	-----------------------------------------------------------
	 SCS Same-Spin Scale       =       0.3333333333333333 [-]
	 SCS Opposite-Spin Scale   =       1.2000000000000000 [-]
	 SCS Same-Spin Energy      =      -0.1706483434822245 [Eh]
	 SCS Opposite-Spin Energy  =      -1.9393565867855540 [Eh]
	 SCS Correlation Energy    =      -2.1100049302677784 [Eh]
	 SCS Total Energy          =    -514.9930366171824971 [Eh]
	-----------------------------------------------------------

  Dipole Moment: [D]
     X:    -0.1386      Y:     3.3972      Z:     1.9577     Total:     3.9234

*** Psi4 exiting successfully. Buy a developer a beer!
