                               Psi4 1.3.2 release

  ==> Input File <==

--------------------------------------------------------------------------
#psi4
#
memory 32 gb

molecule  {
0 1
  O       -1.9756670     1.6664010     0.1857370
  O        1.6511300    -1.1930600    -0.6768240
  O       -3.2820610    -0.0444860    -0.5140140
  N        0.2152580     0.2772540     0.2951010
  C       -0.9539274    -0.4764161    -0.1062161
  C       -1.2010820    -1.6869190     0.8036840
  C        2.5941300     0.7851170     0.3678910
  C        1.4652130    -0.1360080    -0.0663740
  C       -2.1892550     0.3702600    -0.1810000
  C        3.9493650     0.2879730    -0.1118860
  H       -0.7666830    -0.8628490    -1.1247510
  H        0.0686625     1.1949432     0.6969063
  H       -1.3680630    -1.3508140     1.8303240
  H       -2.0758160    -2.2433210     0.4601180
  H       -0.3237180    -2.3338760     0.7750620
  H        2.3897550     1.7945520    -0.0146150
  H        2.5759940     0.8629050     1.4619760
  H        4.1547340    -0.7097650     0.2816620
  H        3.9712690     0.2233490    -1.2012200
  H        4.7420490     0.9661550     0.2171920
  H       -2.8492950     2.1039740     0.1058080
units angstrom
no_reorient  #important for SAPT in psi4, default
symmetry c1  #important for SAPT in psi4, default
}

set PROPERTIES_ORIGIN ["COM"]
properties('MP2/aug-cc-pvtz', properties = ['dipole'])
--------------------------------------------------------------------------

    Molecular point group: c1
  Charge       = 0
  Multiplicity = 1
  Basis Set: AUG-CC-PVTZ
    Blend: AUG-CC-PVTZ
  Basis Set: (AUG-CC-PVTZ AUX)
    Blend: AUG-CC-PVTZ-JKFIT

    Orbital Energies [Eh]
    ---------------------

    Doubly Occupied:

       1A    -20.636151     2A    -20.563920     3A    -20.524729
       4A    -15.592449     5A    -11.404867     6A    -11.356532
       7A    -11.296214     8A    -11.247598     9A    -11.227293
      10A    -11.219515    11A     -1.478956    12A     -1.380648
      13A     -1.373853    14A     -1.245448    15A     -1.075106
      16A     -1.035852    17A     -0.928942    18A     -0.886101
      19A     -0.815770    20A     -0.793133    21A     -0.731671
      22A     -0.714778    23A     -0.682900    24A     -0.665833
      25A     -0.641318    26A     -0.632720    27A     -0.610825
      28A     -0.602351    29A     -0.579886    30A     -0.546858
      31A     -0.544368    32A     -0.523952    33A     -0.520000
      34A     -0.518893    35A     -0.497677    36A     -0.487695
      37A     -0.468953    38A     -0.428997    39A     -0.399880

  @DF-RHF Final Energy:  -512.88552402532468

   => Energetics <=

    Nuclear Repulsion Energy =            548.2733598541356059
    One-Electron Energy =               -1788.5525093866872339
    Two-Electron Energy =                 727.3936255072269432
    Total Energy =                       -512.8855240253246848
  Basis Set: (AUG-CC-PVTZ AUX)
    Blend: AUG-CC-PVTZ-RI
    Molecular point group: c1

    Geometry (in Angstrom), charge = 0, multiplicity = 1:

       Center              X                  Y                   Z               Mass
    ------------   -----------------  -----------------  -----------------  -----------------
         O           -1.974988511063     1.665625757249     0.185428447636    15.994914619570
         O            1.651808488937    -1.193835242751    -0.677132552364    15.994914619570
         O           -3.281382511063    -0.045261242751    -0.514322552364    15.994914619570
         N            0.215936488937     0.276478757249     0.294792447636    14.003074004430
         C           -0.953248911063    -0.477191342751    -0.106524652364    12.000000000000
         C           -1.200403511063    -1.687694242751     0.803375447636    12.000000000000
         C            2.594808488937     0.784341757249     0.367582447636    12.000000000000
         C            1.465891488937    -0.136783242751    -0.066682552364    12.000000000000
         C           -2.188576511063     0.369484757249    -0.181308552364    12.000000000000
         C            3.950043488937     0.287197757249    -0.112194552364    12.000000000000
         H           -0.766004511063    -0.863624242751    -1.125059552364     1.007825032230
         H            0.069340988937     1.194167957249     0.696597747636     1.007825032230
         H           -1.367384511063    -1.351589242751     1.830015447636     1.007825032230
         H           -2.075137511063    -2.244096242751     0.459809447636     1.007825032230
         H           -0.323039511063    -2.334651242751     0.774753447636     1.007825032230
         H            2.390433488937     1.793776757249    -0.014923552364     1.007825032230
         H            2.576672488937     0.862129757249     1.461667447636     1.007825032230
         H            4.155412488937    -0.710540242751     0.281353447636     1.007825032230
         H            3.971947488937     0.222573757249    -1.201528552364     1.007825032230
         H            4.742727488937     0.965379757249     0.216883447636     1.007825032230
         H           -2.848616511063     2.103198757249     0.105499447636     1.007825032230

  Basis Set: AUG-CC-PVTZ
    Blend: AUG-CC-PVTZ
  Basis Set: (AUG-CC-PVTZ AUX)
    Blend: AUG-CC-PVTZ-JKFIT
	 Reference Energy          =    -512.8855240253246848 [Eh]
	 Singles Energy            =      -0.0000000000000000 [Eh]
	 Same-Spin Energy          =      -0.5114836025114949 [Eh]
	 Opposite-Spin Energy      =      -1.6151303189944435 [Eh]
	 Correlation Energy        =      -2.1266139215059385 [Eh]
	 Total Energy              =    -515.0121379468306486 [Eh]

	 ================> DF-SCS-MP2 Energies <==================
	-----------------------------------------------------------
	 SCS Same-Spin Scale       =       0.3333333333333333 [-]
	 SCS Opposite-Spin Scale   =       1.2000000000000000 [-]
	 SCS Same-Spin Energy      =      -0.1704945341704983 [Eh]
	 SCS Opposite-Spin Energy  =      -1.9381563827933321 [Eh]
	 SCS Correlation Energy    =      -2.1086509169638306 [Eh]
	 SCS Total Energy          =    -514.9941749422885096 [Eh]
	-----------------------------------------------------------

  Dipole Moment: [D]
     X:    -0.0437      Y:     3.3148      Z:     1.9608     Total:     3.8516

*** Psi4 exiting successfully. Buy a developer a beer!
