                               Psi4 1.4a3.dev225

  ==> Input File <==

--------------------------------------------------------------------------
#psi4
#
memory 32 gb

molecule  {
0 1
  O        2.1858500    -1.4843500     0.4466430
  O       -1.5901990     1.2021140    -0.7742790
  O        3.2899360     0.0893000    -0.7567370
  N       -0.1552130    -0.3501220     0.0655300
  C        0.9973750     0.5138300    -0.1038320
  C        1.1366130     1.5332170     1.0331740
  C       -2.5208420    -0.9251940    -0.0919400
  C       -1.4008270     0.0814870    -0.2899980
  C        2.2713450    -0.2912280    -0.2118740
  C       -3.8280260    -0.2360070     0.2837800
  H        0.8752740     1.0541530    -1.0466610
  H       -0.0274960    -1.2421660     0.5250420
  H        1.2555520     1.0181310     1.9903510
  H        2.0023980     2.1787030     0.8613650
  H        0.2327940     2.1443920     1.0604580
  H       -2.6404080    -1.4674310    -1.0380590
  H       -2.2372030    -1.6677960     0.6628800
  H       -3.7417830     0.2575120     1.2553170
  H       -4.0728600     0.5241080    -0.4590610
  H       -4.6456460    -0.9595500     0.3374610
  H        3.0223860    -1.8810218     0.3561851
units angstrom
no_reorient  #important for SAPT in psi4, default
symmetry c1  #important for SAPT in psi4, default
}

set PROPERTIES_ORIGIN ["COM"]
properties('MP2/aug-cc-pvtz', properties = ['dipole'])
--------------------------------------------------------------------------

    Molecular point group: c1
  Charge       = 0
  Multiplicity = 1
  Basis Set: AUG-CC-PVTZ
    Blend: AUG-CC-PVTZ
  Basis Set: (AUG-CC-PVTZ AUX)
    Blend: AUG-CC-PVTZ-JKFIT

    Orbital Energies [Eh]
    ---------------------

    Doubly Occupied:

       1A    -20.631306     2A    -20.566235     3A    -20.522903
       4A    -15.596265     5A    -11.405074     6A    -11.357174
       7A    -11.296852     8A    -11.247953     9A    -11.233293
      10A    -11.222559    11A     -1.484841    12A     -1.379760
      13A     -1.377554    14A     -1.246570    15A     -1.076809
      16A     -1.038091    17A     -0.930983    18A     -0.888396
      19A     -0.828610    20A     -0.795337    21A     -0.728916
      22A     -0.719192    23A     -0.681231    24A     -0.661845
      25A     -0.643235    26A     -0.635400    27A     -0.613600
      28A     -0.599338    29A     -0.585021    30A     -0.556710
      31A     -0.552036    32A     -0.528661    33A     -0.523906
      34A     -0.513642    35A     -0.498864    36A     -0.488095
      37A     -0.470221    38A     -0.427908    39A     -0.400725

  @DF-RHF Final Energy:  -512.88707681934420

   => Energetics <=

    Nuclear Repulsion Energy =            548.2275018020689004
    One-Electron Energy =               -1788.3189352137139849
    Two-Electron Energy =                 727.2043565923008828
    Total Energy =                       -512.8870768193442018
  Basis Set: (AUG-CC-PVTZ AUX)
    Blend: AUG-CC-PVTZ-RI
    Molecular point group: c1

    Geometry (in Angstrom), charge = 0, multiplicity = 1:

       Center              X                  Y                   Z               Mass
    ------------   -----------------  -----------------  -----------------  -----------------
         O            2.118375648238    -1.484923463053     0.477348593998    15.994914619570
         O           -1.657673351762     1.201540536947    -0.743573406002    15.994914619570
         O            3.222461648238     0.088726536947    -0.726031406002    15.994914619570
         N           -0.222687351762    -0.350695463053     0.096235593998    14.003074004430
         C            0.929900648238     0.513256536947    -0.073126406002    12.000000000000
         C            1.069138648238     1.532643536947     1.063879593998    12.000000000000
         C           -2.588316351762    -0.925767463053    -0.061234406002    12.000000000000
         C           -1.468301351762     0.080913536947    -0.259292406002    12.000000000000
         C            2.203870648238    -0.291801463053    -0.181168406002    12.000000000000
         C           -3.895500351762    -0.236580463053     0.314485593998    12.000000000000
         H            0.807799648238     1.053579536947    -1.015955406002     1.007825032230
         H           -0.094970351762    -1.242739463053     0.555747593998     1.007825032230
         H            1.188077648238     1.017557536947     2.021056593998     1.007825032230
         H            1.934923648238     2.178129536947     0.892070593998     1.007825032230
         H            0.165319648238     2.143818536947     1.091163593998     1.007825032230
         H           -2.707882351762    -1.468004463053    -1.007353406002     1.007825032230
         H           -2.304677351762    -1.668369463053     0.693585593998     1.007825032230
         H           -3.809257351762     0.256938536947     1.286022593998     1.007825032230
         H           -4.140334351762     0.523534536947    -0.428355406002     1.007825032230
         H           -4.713120351762    -0.960123463053     0.368166593998     1.007825032230
         H            2.954911648238    -1.881595263053     0.386890693998     1.007825032230

  Basis Set: AUG-CC-PVTZ
    Blend: AUG-CC-PVTZ
  Basis Set: (AUG-CC-PVTZ AUX)
    Blend: AUG-CC-PVTZ-JKFIT
	 Reference Energy          =    -512.8870768193442018 [Eh]
	 Singles Energy            =      -0.0000000000000000 [Eh]
	 Same-Spin Energy          =      -0.5105470741705458 [Eh]
	 Opposite-Spin Energy      =      -1.6136788781554836 [Eh]
	 Correlation Energy        =      -2.1242259523260296 [Eh]
	 Total Energy              =    -515.0113027716702163 [Eh]

	 ================> DF-SCS-MP2 Energies <==================
	-----------------------------------------------------------
	 SCS Same-Spin Scale       =       0.3333333333333333 [-]
	 SCS Opposite-Spin Scale   =       1.2000000000000000 [-]
	 SCS Same-Spin Energy      =      -0.1701823580568486 [Eh]
	 SCS Opposite-Spin Energy  =      -1.9364146537865803 [Eh]
	 SCS Correlation Energy    =      -2.1065970118434287 [Eh]
	 SCS Total Energy          =    -514.9936738311876070 [Eh]
	-----------------------------------------------------------

  Dipole Moment: [D]
     X:     0.0831      Y:    -3.2459      Z:     2.2879     Total:     3.9720

*** Psi4 exiting successfully. Buy a developer a beer!
