                               Psi4 1.3.2 release

  ==> Input File <==

--------------------------------------------------------------------------
#psi4
#
memory 32 gb

molecule  {
0 1
  O       -1.9756670     1.6664010     0.1857370
  O        1.6511300    -1.1930600    -0.6768240
  O       -3.2820610    -0.0444860    -0.5140140
  N        0.1927046     0.2864030     0.3393885
  C       -0.9464590    -0.4858680    -0.1100250
  C       -1.2010820    -1.6869190     0.8036840
  C        2.5941300     0.7851170     0.3678910
  C        1.4652130    -0.1360080    -0.0663740
  C       -2.1892550     0.3702600    -0.1810000
  C        3.9493650     0.2879730    -0.1118860
  H       -0.8011299    -0.8795741    -1.1239175
  H        0.0773990     1.1958980     0.6978160
  H       -1.3680630    -1.3508140     1.8303240
  H       -2.0758160    -2.2433210     0.4601180
  H       -0.3237180    -2.3338760     0.7750620
  H        2.3897550     1.7945520    -0.0146150
  H        2.5759940     0.8629050     1.4619760
  H        4.1547340    -0.7097650     0.2816620
  H        3.9712690     0.2233490    -1.2012200
  H        4.7420490     0.9661550     0.2171920
  H       -2.8492950     2.1039740     0.1058080
units angstrom
no_reorient  #important for SAPT in psi4, default
symmetry c1  #important for SAPT in psi4, default
}

set PROPERTIES_ORIGIN ["COM"]
properties('MP2/aug-cc-pvtz', properties = ['dipole'])
--------------------------------------------------------------------------

    Molecular point group: c1
  Charge       = 0
  Multiplicity = 1
  Basis Set: AUG-CC-PVTZ
    Blend: AUG-CC-PVTZ
  Basis Set: (AUG-CC-PVTZ AUX)
    Blend: AUG-CC-PVTZ-JKFIT

    Orbital Energies [Eh]
    ---------------------

    Doubly Occupied:

       1A    -20.634326     2A    -20.561866     3A    -20.531946
       4A    -15.589494     5A    -11.402447     6A    -11.361881
       7A    -11.295269     8A    -11.248906     9A    -11.225100
      10A    -11.220703    11A     -1.476836    12A     -1.381646
      13A     -1.371900    14A     -1.243042    15A     -1.073713
      16A     -1.034932    17A     -0.925531    18A     -0.886298
      19A     -0.817272    20A     -0.788585    21A     -0.730058
      22A     -0.713987    23A     -0.683876    24A     -0.663876
      25A     -0.641168    26A     -0.633707    27A     -0.608281
      28A     -0.607035    29A     -0.579122    30A     -0.545441
      31A     -0.543025    32A     -0.526343    33A     -0.520796
      34A     -0.519493    35A     -0.497241    36A     -0.488423
      37A     -0.466154    38A     -0.431010    39A     -0.401274

  @DF-RHF Final Energy:  -512.88315197305428

   => Energetics <=

    Nuclear Repulsion Energy =            547.7176129447353787
    One-Electron Energy =               -1787.4575290383058928
    Two-Electron Energy =                 726.8567641205163454
    Total Energy =                       -512.8831519730542823
  Basis Set: (AUG-CC-PVTZ AUX)
    Blend: AUG-CC-PVTZ-RI
    Molecular point group: c1

    Geometry (in Angstrom), charge = 0, multiplicity = 1:

       Center              X                  Y                   Z               Mass
    ------------   -----------------  -----------------  -----------------  -----------------
         O           -1.973250722766     1.665634045295     0.181456601512    15.994914619570
         O            1.653546277234    -1.193826954705    -0.681104398488    15.994914619570
         O           -3.279644722766    -0.045252954705    -0.518294398488    15.994914619570
         N            0.195120877234     0.285636045295     0.335108101512    14.003074004430
         C           -0.944042722766    -0.486634954705    -0.114305398488    12.000000000000
         C           -1.198665722766    -1.687685954705     0.799403601512    12.000000000000
         C            2.596546277234     0.784350045295     0.363610601512    12.000000000000
         C            1.467629277234    -0.136774954705    -0.070654398488    12.000000000000
         C           -2.186838722766     0.369493045295    -0.185280398488    12.000000000000
         C            3.951781277234     0.287206045295    -0.116166398488    12.000000000000
         H           -0.798713622766    -0.880341054705    -1.128197898488     1.007825032230
         H            0.079815277234     1.195131045295     0.693535601512     1.007825032230
         H           -1.365646722766    -1.351580954705     1.826043601512     1.007825032230
         H           -2.073399722766    -2.244087954705     0.455837601512     1.007825032230
         H           -0.321301722766    -2.334642954705     0.770781601512     1.007825032230
         H            2.392171277234     1.793785045295    -0.018895398488     1.007825032230
         H            2.578410277234     0.862138045295     1.457695601512     1.007825032230
         H            4.157150277234    -0.710531954705     0.277381601512     1.007825032230
         H            3.973685277234     0.222582045295    -1.205500398488     1.007825032230
         H            4.744465277234     0.965388045295     0.212911601512     1.007825032230
         H           -2.846878722766     2.103207045295     0.101527601512     1.007825032230

  Basis Set: AUG-CC-PVTZ
    Blend: AUG-CC-PVTZ
  Basis Set: (AUG-CC-PVTZ AUX)
    Blend: AUG-CC-PVTZ-JKFIT
	 Reference Energy          =    -512.8831519730542823 [Eh]
	 Singles Energy            =      -0.0000000000000000 [Eh]
	 Same-Spin Energy          =      -0.5113128109880865 [Eh]
	 Opposite-Spin Energy      =      -1.6152229276258894 [Eh]
	 Correlation Energy        =      -2.1265357386139758 [Eh]
	 Total Energy              =    -515.0096877116682208 [Eh]

	 ================> DF-SCS-MP2 Energies <==================
	-----------------------------------------------------------
	 SCS Same-Spin Scale       =       0.3333333333333333 [-]
	 SCS Opposite-Spin Scale   =       1.2000000000000000 [-]
	 SCS Same-Spin Energy      =      -0.1704376036626955 [Eh]
	 SCS Opposite-Spin Energy  =      -1.9382675131510672 [Eh]
	 SCS Correlation Energy    =      -2.1087051168137627 [Eh]
	 SCS Total Energy          =    -514.9918570898680628 [Eh]
	-----------------------------------------------------------

  Dipole Moment: [D]
     X:     0.1695      Y:     3.2577      Z:     1.8355     Total:     3.7430

*** Psi4 exiting successfully. Buy a developer a beer!
