                               Psi4 1.4a3.dev225

  ==> Input File <==

--------------------------------------------------------------------------
#psi4
#
memory 32 gb

molecule  {
0 1
  O        2.1858500    -1.4843500     0.4466430
  O       -1.5901990     1.2021140    -0.7742790
  O        3.2899360     0.0893000    -0.7567370
  N       -0.1552130    -0.3501220     0.0655300
  C        0.9973750     0.5138300    -0.1038320
  C        1.1366130     1.5332170     1.0331740
  C       -2.5208420    -0.9251940    -0.0919400
  C       -1.4008270     0.0814870    -0.2899980
  C        2.2744756    -0.2475388    -0.2359873
  C       -3.8280260    -0.2360070     0.2837800
  H        0.8752740     1.0541530    -1.0466610
  H       -0.0274960    -1.2421660     0.5250420
  H        1.2555520     1.0181310     1.9903510
  H        2.0023980     2.1787030     0.8613650
  H        0.2327940     2.1443920     1.0604580
  H       -2.6404080    -1.4674310    -1.0380590
  H       -2.2372030    -1.6677960     0.6628800
  H       -3.7417830     0.2575120     1.2553170
  H       -4.0728600     0.5241080    -0.4590610
  H       -4.6456460    -0.9595500     0.3374610
  H        3.0673500    -1.9023430     0.3513230
units angstrom
no_reorient  #important for SAPT in psi4, default
symmetry c1  #important for SAPT in psi4, default
}

set PROPERTIES_ORIGIN ["COM"]
properties('MP2/aug-cc-pvtz', properties = ['dipole'])
--------------------------------------------------------------------------

    Molecular point group: c1
  Charge       = 0
  Multiplicity = 1
  Basis Set: AUG-CC-PVTZ
    Blend: AUG-CC-PVTZ
  Basis Set: (AUG-CC-PVTZ AUX)
    Blend: AUG-CC-PVTZ-JKFIT

    Orbital Energies [Eh]
    ---------------------

    Doubly Occupied:

       1A    -20.619846     2A    -20.573135     3A    -20.523004
       4A    -15.596744     5A    -11.403583     6A    -11.357434
       7A    -11.297773     8A    -11.247902     9A    -11.234730
      10A    -11.222488    11A     -1.469170    12A     -1.380396
      13A     -1.373951    14A     -1.246477    15A     -1.078636
      16A     -1.039744    17A     -0.927960    18A     -0.886249
      19A     -0.814247    20A     -0.792039    21A     -0.726649
      22A     -0.711852    23A     -0.679724    24A     -0.657006
      25A     -0.642655    26A     -0.634194    27A     -0.613430
      28A     -0.598996    29A     -0.583277    30A     -0.557430
      31A     -0.552267    32A     -0.529324    33A     -0.523909
      34A     -0.513843    35A     -0.502900    36A     -0.490003
      37A     -0.471021    38A     -0.428230    39A     -0.401755

  @DF-RHF Final Energy:  -512.88402004432032

   => Energetics <=

    Nuclear Repulsion Energy =            547.8786287334121425
    One-Electron Energy =               -1787.7173555022970959
    Two-Electron Energy =                 726.9547067245646303
    Total Energy =                       -512.8840200443203230
  Basis Set: (AUG-CC-PVTZ AUX)
    Blend: AUG-CC-PVTZ-RI
    Molecular point group: c1

    Geometry (in Angstrom), charge = 0, multiplicity = 1:

       Center              X                  Y                   Z               Mass
    ------------   -----------------  -----------------  -----------------  -----------------
         O            2.117804332180    -1.488389161462     0.479376937897    15.994914619570
         O           -1.658244667820     1.198074838538    -0.741545062103    15.994914619570
         O            3.221890332180     0.085260838538    -0.724003062103    15.994914619570
         N           -0.223258667820    -0.354161161462     0.098263937897    14.003074004430
         C            0.929329332180     0.509790838538    -0.071098062103    12.000000000000
         C            1.068567332180     1.529177838538     1.065907937897    12.000000000000
         C           -2.588887667820    -0.929233161462    -0.059206062103    12.000000000000
         C           -1.468872667820     0.077447838538    -0.257264062103    12.000000000000
         C            2.206429932180    -0.251577961462    -0.203253362103    12.000000000000
         C           -3.896071667820    -0.240046161462     0.316513937897    12.000000000000
         H            0.807228332180     1.050113838538    -1.013927062103     1.007825032230
         H           -0.095541667820    -1.246205161462     0.557775937897     1.007825032230
         H            1.187506332180     1.014091838538     2.023084937897     1.007825032230
         H            1.934352332180     2.174663838538     0.894098937897     1.007825032230
         H            0.164748332180     2.140352838538     1.093191937897     1.007825032230
         H           -2.708453667820    -1.471470161462    -1.005325062103     1.007825032230
         H           -2.305248667820    -1.671835161462     0.695613937897     1.007825032230
         H           -3.809828667820     0.253472838538     1.288050937897     1.007825032230
         H           -4.140905667820     0.520068838538    -0.426327062103     1.007825032230
         H           -4.713691667820    -0.963589161462     0.370194937897     1.007825032230
         H            2.999304332180    -1.906382161462     0.384056937897     1.007825032230

  Basis Set: AUG-CC-PVTZ
    Blend: AUG-CC-PVTZ
  Basis Set: (AUG-CC-PVTZ AUX)
    Blend: AUG-CC-PVTZ-JKFIT
	 Reference Energy          =    -512.8840200443203230 [Eh]
	 Singles Energy            =      -0.0000000000000000 [Eh]
	 Same-Spin Energy          =      -0.5111350514459508 [Eh]
	 Opposite-Spin Energy      =      -1.6152902028463330 [Eh]
	 Correlation Energy        =      -2.1264252542922839 [Eh]
	 Total Energy              =    -515.0104452986125807 [Eh]

	 ================> DF-SCS-MP2 Energies <==================
	-----------------------------------------------------------
	 SCS Same-Spin Scale       =       0.3333333333333333 [-]
	 SCS Opposite-Spin Scale   =       1.2000000000000000 [-]
	 SCS Same-Spin Energy      =      -0.1703783504819836 [Eh]
	 SCS Opposite-Spin Energy  =      -1.9383482434155994 [Eh]
	 SCS Correlation Energy    =      -2.1087265938975830 [Eh]
	 SCS Total Energy          =    -514.9927466382179091 [Eh]
	-----------------------------------------------------------

  Dipole Moment: [D]
     X:     0.1695      Y:    -2.9434      Z:     2.1039     Total:     3.6220

*** Psi4 exiting successfully. Buy a developer a beer!
