                               Psi4 1.3.2 release

  ==> Input File <==

--------------------------------------------------------------------------
#psi4
#
memory 32 gb

molecule  {
0 1
  O       -1.9756670     1.6664010     0.1857370
  O        1.6511300    -1.1930600    -0.6768240
  O       -3.2820610    -0.0444860    -0.5140140
  N        0.2152580     0.2772540     0.2951010
  C       -0.9464590    -0.4858680    -0.1100250
  C       -1.2010820    -1.6869190     0.8036840
  C        2.5941300     0.7851170     0.3678910
  C        1.4652130    -0.1360080    -0.0663740
  C       -2.1924287     0.3597527    -0.2325795
  C        3.9493650     0.2879730    -0.1118860
  H       -0.7977954    -0.8438991    -1.1365803
  H        0.0773990     1.1958980     0.6978160
  H       -1.3680630    -1.3508140     1.8303240
  H       -2.0758160    -2.2433210     0.4601180
  H       -0.3237180    -2.3338760     0.7750620
  H        2.3897550     1.7945520    -0.0146150
  H        2.5759940     0.8629050     1.4619760
  H        4.1547340    -0.7097650     0.2816620
  H        3.9712690     0.2233490    -1.2012200
  H        4.7420490     0.9661550     0.2171920
  H       -2.8492950     2.1039740     0.1058080
units angstrom
no_reorient  #important for SAPT in psi4, default
symmetry c1  #important for SAPT in psi4, default
}

set PROPERTIES_ORIGIN ["COM"]
properties('MP2/aug-cc-pvtz', properties = ['dipole'])
--------------------------------------------------------------------------

    Molecular point group: c1
  Charge       = 0
  Multiplicity = 1
  Basis Set: AUG-CC-PVTZ
    Blend: AUG-CC-PVTZ
  Basis Set: (AUG-CC-PVTZ AUX)
    Blend: AUG-CC-PVTZ-JKFIT

    Orbital Energies [Eh]
    ---------------------

    Doubly Occupied:

       1A    -20.628322     2A    -20.568499     3A    -20.524131
       4A    -15.592467     5A    -11.403486     6A    -11.355895
       7A    -11.296887     8A    -11.247320     9A    -11.227938
      10A    -11.219313    11A     -1.474429    12A     -1.380982
      13A     -1.378075    14A     -1.244656    15A     -1.074832
      16A     -1.035805    17A     -0.926979    18A     -0.884639
      19A     -0.811343    20A     -0.790578    21A     -0.729937
      22A     -0.713425    23A     -0.682611    24A     -0.663940
      25A     -0.640564    26A     -0.633775    27A     -0.610341
      28A     -0.601632    29A     -0.580579    30A     -0.547470
      31A     -0.544997    32A     -0.524077    33A     -0.521331
      34A     -0.519104    35A     -0.501359    36A     -0.489955
      37A     -0.466833    38A     -0.428602    39A     -0.401091

  @DF-RHF Final Energy:  -512.88458531054425

   => Energetics <=

    Nuclear Repulsion Energy =            548.0601230808088076
    One-Electron Energy =               -1788.1530136265077999
    Two-Electron Energy =                 727.2083052351547394
    Total Energy =                       -512.8845853105442529
  Basis Set: (AUG-CC-PVTZ AUX)
    Blend: AUG-CC-PVTZ-RI
    Molecular point group: c1

    Geometry (in Angstrom), charge = 0, multiplicity = 1:

       Center              X                  Y                   Z               Mass
    ------------   -----------------  -----------------  -----------------  -----------------
         O           -1.975188308610     1.667138434273     0.190085838647    15.994914619570
         O            1.651608691390    -1.192322565727    -0.672475161353    15.994914619570
         O           -3.281582308610    -0.043748565727    -0.509665161353    15.994914619570
         N            0.215736691390     0.277991434273     0.299449838647    14.003074004430
         C           -0.945980308610    -0.485130565727    -0.105676161353    12.000000000000
         C           -1.200603308610    -1.686181565727     0.808032838647    12.000000000000
         C            2.594608691390     0.785854434273     0.372239838647    12.000000000000
         C            1.465691691390    -0.135270565727    -0.062025161353    12.000000000000
         C           -2.191950008610     0.360490134273    -0.228230661353    12.000000000000
         C            3.949843691390     0.288710434273    -0.107537161353    12.000000000000
         H           -0.797316708610    -0.843161665727    -1.132231461353     1.007825032230
         H            0.077877691390     1.196635434273     0.702164838647     1.007825032230
         H           -1.367584308610    -1.350076565727     1.834672838647     1.007825032230
         H           -2.075337308610    -2.242583565727     0.464466838647     1.007825032230
         H           -0.323239308610    -2.333138565727     0.779410838647     1.007825032230
         H            2.390233691390     1.795289434273    -0.010266161353     1.007825032230
         H            2.576472691390     0.863642434273     1.466324838647     1.007825032230
         H            4.155212691390    -0.709027565727     0.286010838647     1.007825032230
         H            3.971747691390     0.224086434273    -1.196871161353     1.007825032230
         H            4.742527691390     0.966892434273     0.221540838647     1.007825032230
         H           -2.848816308610     2.104711434273     0.110156838647     1.007825032230

  Basis Set: AUG-CC-PVTZ
    Blend: AUG-CC-PVTZ
  Basis Set: (AUG-CC-PVTZ AUX)
    Blend: AUG-CC-PVTZ-JKFIT
	 Reference Energy          =    -512.8845853105442529 [Eh]
	 Singles Energy            =      -0.0000000000000000 [Eh]
	 Same-Spin Energy          =      -0.5111813938372285 [Eh]
	 Opposite-Spin Energy      =      -1.6147740901823566 [Eh]
	 Correlation Energy        =      -2.1259554840195851 [Eh]
	 Total Energy              =    -515.0105407945638945 [Eh]

	 ================> DF-SCS-MP2 Energies <==================
	-----------------------------------------------------------
	 SCS Same-Spin Scale       =       0.3333333333333333 [-]
	 SCS Opposite-Spin Scale   =       1.2000000000000000 [-]
	 SCS Same-Spin Energy      =      -0.1703937979457428 [Eh]
	 SCS Opposite-Spin Energy  =      -1.9377289082188278 [Eh]
	 SCS Correlation Energy    =      -2.1081227061645706 [Eh]
	 SCS Total Energy          =    -514.9927080167087752 [Eh]
	-----------------------------------------------------------

  Dipole Moment: [D]
     X:    -0.1284      Y:     3.1458      Z:     1.8510     Total:     3.6522

*** Psi4 exiting successfully. Buy a developer a beer!
