                               Psi4 1.4a3.dev225

  ==> Input File <==

--------------------------------------------------------------------------
#psi4
#
memory 32 gb

molecule  {
0 1
  O        2.1858500    -1.4843500     0.4466430
  O       -1.5901990     1.2021140    -0.7742790
  O        3.2899360     0.0893000    -0.7567370
  N       -0.1552130    -0.3501220     0.0655300
  C        0.9973750     0.5138300    -0.1038320
  C        1.1366130     1.5332170     1.0331740
  C       -2.5208420    -0.9251940    -0.0919400
  C       -1.4008270     0.0814870    -0.2899980
  C        2.2545950    -0.2974855    -0.2029141
  C       -3.8280260    -0.2360070     0.2837800
  H        0.8752740     1.0541530    -1.0466610
  H       -0.0274960    -1.2421660     0.5250420
  H        1.2555520     1.0181310     1.9903510
  H        2.0023980     2.1787030     0.8613650
  H        0.2327940     2.1443920     1.0604580
  H       -2.6404080    -1.4674310    -1.0380590
  H       -2.2372030    -1.6677960     0.6628800
  H       -3.7417830     0.2575120     1.2553170
  H       -4.0728600     0.5241080    -0.4590610
  H       -4.6456460    -0.9595500     0.3374610
  H        3.0673500    -1.9023430     0.3513230
units angstrom
no_reorient  #important for SAPT in psi4, default
symmetry c1  #important for SAPT in psi4, default
}

set PROPERTIES_ORIGIN ["COM"]
properties('MP2/aug-cc-pvtz', properties = ['dipole'])
--------------------------------------------------------------------------

    Molecular point group: c1
  Charge       = 0
  Multiplicity = 1
  Basis Set: AUG-CC-PVTZ
    Blend: AUG-CC-PVTZ
  Basis Set: (AUG-CC-PVTZ AUX)
    Blend: AUG-CC-PVTZ-JKFIT

    Orbital Energies [Eh]
    ---------------------

    Doubly Occupied:

       1A    -20.637936     2A    -20.561515     3A    -20.523335
       4A    -15.596686     5A    -11.405687     6A    -11.357520
       7A    -11.297145     8A    -11.248225     9A    -11.233765
      10A    -11.222785    11A     -1.477818    12A     -1.380134
      13A     -1.362438    14A     -1.247398    15A     -1.077672
      16A     -1.038728    17A     -0.930696    18A     -0.887884
      19A     -0.825673    20A     -0.795751    21A     -0.728683
      22A     -0.713669    23A     -0.680855    24A     -0.661747
      25A     -0.642667    26A     -0.633495    27A     -0.609080
      28A     -0.599622    29A     -0.585243    30A     -0.556696
      31A     -0.550103    32A     -0.528668    33A     -0.524052
      34A     -0.513610    35A     -0.495771    36A     -0.483953
      37A     -0.468907    38A     -0.428211    39A     -0.401159

  @DF-RHF Final Energy:  -512.88407979671047

   => Energetics <=

    Nuclear Repulsion Energy =            547.9721773139502830
    One-Electron Energy =               -1787.8825546733444298
    Two-Electron Energy =                 727.0262975626837942
    Total Energy =                       -512.8840797967104663
  Basis Set: (AUG-CC-PVTZ AUX)
    Blend: AUG-CC-PVTZ-RI
    Molecular point group: c1

    Geometry (in Angstrom), charge = 0, multiplicity = 1:

       Center              X                  Y                   Z               Mass
    ------------   -----------------  -----------------  -----------------  -----------------
         O            2.119448785187    -1.484257746865     0.476641239618    15.994914619570
         O           -1.656600214813     1.202206253135    -0.744280760382    15.994914619570
         O            3.223534785187     0.089392253135    -0.726738760382    15.994914619570
         N           -0.221614214813    -0.350029746865     0.095528239618    14.003074004430
         C            0.930973785187     0.513922253135    -0.073833760382    12.000000000000
         C            1.070211785187     1.533309253135     1.063172239618    12.000000000000
         C           -2.587243214813    -0.925101746865    -0.061941760382    12.000000000000
         C           -1.467228214813     0.081579253135    -0.259999760382    12.000000000000
         C            2.188193785187    -0.297393246865    -0.172915860382    12.000000000000
         C           -3.894427214813    -0.235914746865     0.313778239618    12.000000000000
         H            0.808872785187     1.054245253135    -1.016662760382     1.007825032230
         H           -0.093897214813    -1.242073746865     0.555040239618     1.007825032230
         H            1.189150785187     1.018223253135     2.020349239618     1.007825032230
         H            1.935996785187     2.178795253135     0.891363239618     1.007825032230
         H            0.166392785187     2.144484253135     1.090456239618     1.007825032230
         H           -2.706809214813    -1.467338746865    -1.008060760382     1.007825032230
         H           -2.303604214813    -1.667703746865     0.692878239618     1.007825032230
         H           -3.808184214813     0.257604253135     1.285315239618     1.007825032230
         H           -4.139261214813     0.524200253135    -0.429062760382     1.007825032230
         H           -4.712047214813    -0.959457746865     0.367459239618     1.007825032230
         H            3.000948785187    -1.902250746865     0.381321239618     1.007825032230

  Basis Set: AUG-CC-PVTZ
    Blend: AUG-CC-PVTZ
  Basis Set: (AUG-CC-PVTZ AUX)
    Blend: AUG-CC-PVTZ-JKFIT
	 Reference Energy          =    -512.8840797967104663 [Eh]
	 Singles Energy            =      -0.0000000000000000 [Eh]
	 Same-Spin Energy          =      -0.5116093803339443 [Eh]
	 Opposite-Spin Energy      =      -1.6158426113787212 [Eh]
	 Correlation Energy        =      -2.1274519917126655 [Eh]
	 Total Energy              =    -515.0115317884230990 [Eh]

	 ================> DF-SCS-MP2 Energies <==================
	-----------------------------------------------------------
	 SCS Same-Spin Scale       =       0.3333333333333333 [-]
	 SCS Opposite-Spin Scale   =       1.2000000000000000 [-]
	 SCS Same-Spin Energy      =      -0.1705364601113148 [Eh]
	 SCS Opposite-Spin Energy  =      -1.9390111336544653 [Eh]
	 SCS Correlation Energy    =      -2.1095475937657802 [Eh]
	 SCS Total Energy          =    -514.9936273904762629 [Eh]
	-----------------------------------------------------------

  Dipole Moment: [D]
     X:     0.0269      Y:    -3.3466      Z:     2.3663     Total:     4.0987

*** Psi4 exiting successfully. Buy a developer a beer!
