                               Psi4 1.4a3.dev225

  ==> Input File <==

--------------------------------------------------------------------------
#psi4
#
memory 32 gb

molecule  {
0 1
  O        2.1858500    -1.4843500     0.4466430
  O       -1.5901990     1.2021140    -0.7742790
  O        3.2899360     0.0893000    -0.7567370
  N       -0.1552130    -0.3501220     0.0655300
  C        0.9973750     0.5138300    -0.1038320
  C        1.1366130     1.5332170     1.0331740
  C       -2.5208420    -0.9251940    -0.0919400
  C       -1.3825812     0.0751648    -0.2847902
  C        2.2713450    -0.2912280    -0.2118740
  C       -3.8280260    -0.2360070     0.2837800
  H        0.8752740     1.0541530    -1.0466610
  H       -0.0274960    -1.2421660     0.5250420
  H        1.2555520     1.0181310     1.9903510
  H        2.0023980     2.1787030     0.8613650
  H        0.2327940     2.1443920     1.0604580
  H       -2.6404080    -1.4674310    -1.0380590
  H       -2.2372030    -1.6677960     0.6628800
  H       -3.7417830     0.2575120     1.2553170
  H       -4.0728600     0.5241080    -0.4590610
  H       -4.6456460    -0.9595500     0.3374610
  H        3.0673500    -1.9023430     0.3513230
units angstrom
no_reorient  #important for SAPT in psi4, default
symmetry c1  #important for SAPT in psi4, default
}

set PROPERTIES_ORIGIN ["COM"]
properties('MP2/aug-cc-pvtz', properties = ['dipole'])
--------------------------------------------------------------------------

    Molecular point group: c1
  Charge       = 0
  Multiplicity = 1
  Basis Set: AUG-CC-PVTZ
    Blend: AUG-CC-PVTZ
  Basis Set: (AUG-CC-PVTZ AUX)
    Blend: AUG-CC-PVTZ-JKFIT

    Orbital Energies [Eh]
    ---------------------

    Doubly Occupied:

       1A    -20.635859     2A    -20.566444     3A    -20.518883
       4A    -15.599627     5A    -11.405415     6A    -11.355662
       7A    -11.298414     8A    -11.247358     9A    -11.234227
      10A    -11.221426    11A     -1.477911    12A     -1.374502
      13A     -1.373041    14A     -1.250660    15A     -1.076709
      16A     -1.038003    17A     -0.929647    18A     -0.885573
      19A     -0.824074    20A     -0.799380    21A     -0.729399
      22A     -0.715667    23A     -0.678575    24A     -0.661835
      25A     -0.642482    26A     -0.634874    27A     -0.611640
      28A     -0.596386    29A     -0.585346    30A     -0.556411
      31A     -0.551699    32A     -0.528769    33A     -0.521420
      34A     -0.512587    35A     -0.498426    36A     -0.486826
      37A     -0.470078    38A     -0.424777    39A     -0.401595

  @DF-RHF Final Energy:  -512.88532883056791

   => Energetics <=

    Nuclear Repulsion Energy =            548.0018383084636753
    One-Electron Energy =               -1787.9311219277592500
    Two-Electron Energy =                 727.0439547887276603
    Total Energy =                       -512.8853288305679143
  Basis Set: (AUG-CC-PVTZ AUX)
    Blend: AUG-CC-PVTZ-RI
    Molecular point group: c1

    Geometry (in Angstrom), charge = 0, multiplicity = 1:

       Center              X                  Y                   Z               Mass
    ------------   -----------------  -----------------  -----------------  -----------------
         O            2.116554056228    -1.484252395110     0.476951600076    15.994914619570
         O           -1.659494943772     1.202211604890    -0.743970399924    15.994914619570
         O            3.220640056228     0.089397604890    -0.726428399924    15.994914619570
         N           -0.224508943772    -0.350024395110     0.095838600076    14.003074004430
         C            0.928079056228     0.513927604890    -0.073523399924    12.000000000000
         C            1.067317056228     1.533314604890     1.063482600076    12.000000000000
         C           -2.590137943772    -0.925096395110    -0.061631399924    12.000000000000
         C           -1.451877143772     0.075262404890    -0.254481599924    12.000000000000
         C            2.202049056228    -0.291130395110    -0.181565399924    12.000000000000
         C           -3.897321943772    -0.235909395110     0.314088600076    12.000000000000
         H            0.805978056228     1.054250604890    -1.016352399924     1.007825032230
         H           -0.096791943772    -1.242068395110     0.555350600076     1.007825032230
         H            1.186256056228     1.018228604890     2.020659600076     1.007825032230
         H            1.933102056228     2.178800604890     0.891673600076     1.007825032230
         H            0.163498056228     2.144489604890     1.090766600076     1.007825032230
         H           -2.709703943772    -1.467333395110    -1.007750399924     1.007825032230
         H           -2.306498943772    -1.667698395110     0.693188600076     1.007825032230
         H           -3.811078943772     0.257609604890     1.285625600076     1.007825032230
         H           -4.142155943772     0.524205604890    -0.428752399924     1.007825032230
         H           -4.714941943772    -0.959452395110     0.367769600076     1.007825032230
         H            2.998054056228    -1.902245395110     0.381631600076     1.007825032230

  Basis Set: AUG-CC-PVTZ
    Blend: AUG-CC-PVTZ
  Basis Set: (AUG-CC-PVTZ AUX)
    Blend: AUG-CC-PVTZ-JKFIT
	 Reference Energy          =    -512.8853288305679143 [Eh]
	 Singles Energy            =      -0.0000000000000000 [Eh]
	 Same-Spin Energy          =      -0.5113142593951772 [Eh]
	 Opposite-Spin Energy      =      -1.6153478271494104 [Eh]
	 Correlation Energy        =      -2.1266620865445875 [Eh]
	 Total Energy              =    -515.0119909171124846 [Eh]

	 ================> DF-SCS-MP2 Energies <==================
	-----------------------------------------------------------
	 SCS Same-Spin Scale       =       0.3333333333333333 [-]
	 SCS Opposite-Spin Scale   =       1.2000000000000000 [-]
	 SCS Same-Spin Energy      =      -0.1704380864650590 [Eh]
	 SCS Opposite-Spin Energy  =      -1.9384173925792925 [Eh]
	 SCS Correlation Energy    =      -2.1088554790443514 [Eh]
	 SCS Total Energy          =    -514.9941843096122511 [Eh]
	-----------------------------------------------------------

  Dipole Moment: [D]
     X:     0.3083      Y:    -3.3343      Z:     2.3417     Total:     4.0861

*** Psi4 exiting successfully. Buy a developer a beer!
