                               Psi4 1.3.2 release

  ==> Input File <==

--------------------------------------------------------------------------
#psi4
#
memory 32 gb

molecule  {
0 1
  O       -1.9756670     1.6664010     0.1857370
  O        1.6511300    -1.1930600    -0.6768240
  O       -3.2820610    -0.0444860    -0.5140140
  N        0.2152580     0.2772540     0.2951010
  C       -0.9464590    -0.4858680    -0.1100250
  C       -1.2010820    -1.6869190     0.8036840
  C        2.5941300     0.7851170     0.3678910
  C        1.4652130    -0.1360080    -0.0663740
  C       -2.2007465     0.3727354    -0.1828631
  C        3.9493650     0.2879730    -0.1118860
  H       -0.7666830    -0.8628490    -1.1247510
  H        0.0773990     1.1958980     0.6978160
  H       -1.3680630    -1.3508140     1.8303240
  H       -2.0758160    -2.2433210     0.4601180
  H       -0.3237180    -2.3338760     0.7750620
  H        2.3897550     1.7945520    -0.0146150
  H        2.5759940     0.8629050     1.4619760
  H        4.1547340    -0.7097650     0.2816620
  H        3.9712690     0.2233490    -1.2012200
  H        4.7420490     0.9661550     0.2171920
  H       -2.8527260     2.0965707     0.1032370
units angstrom
no_reorient  #important for SAPT in psi4, default
symmetry c1  #important for SAPT in psi4, default
}

set PROPERTIES_ORIGIN ["COM"]
properties('MP2/aug-cc-pvtz', properties = ['dipole'])
--------------------------------------------------------------------------

    Molecular point group: c1
  Charge       = 0
  Multiplicity = 1
  Basis Set: AUG-CC-PVTZ
    Blend: AUG-CC-PVTZ
  Basis Set: (AUG-CC-PVTZ AUX)
    Blend: AUG-CC-PVTZ-JKFIT

    Orbital Energies [Eh]
    ---------------------

    Doubly Occupied:

       1A    -20.635937     2A    -20.565450     3A    -20.524092
       4A    -15.591787     5A    -11.403757     6A    -11.355669
       7A    -11.295815     8A    -11.247225     9A    -11.226176
      10A    -11.219244    11A     -1.480967    12A     -1.380637
      13A     -1.378869    14A     -1.244341    15A     -1.073626
      16A     -1.034491    17A     -0.925883    18A     -0.884552
      19A     -0.815271    20A     -0.791946    21A     -0.730538
      22A     -0.716278    23A     -0.682563    24A     -0.665889
      25A     -0.641344    26A     -0.634862    27A     -0.611306
      28A     -0.602452    29A     -0.580386    30A     -0.545966
      31A     -0.544158    32A     -0.523756    33A     -0.520385
      34A     -0.518921    35A     -0.499484    36A     -0.489002
      37A     -0.467424    38A     -0.428312    39A     -0.399597

  @DF-RHF Final Energy:  -512.88661479018026

   => Energetics <=

    Nuclear Repulsion Energy =            548.1649708794747085
    One-Electron Energy =               -1788.3464552123223257
    Two-Electron Energy =                 727.2948695426672430
    Total Energy =                       -512.8866147901802606
  Basis Set: (AUG-CC-PVTZ AUX)
    Blend: AUG-CC-PVTZ-RI
    Molecular point group: c1

    Geometry (in Angstrom), charge = 0, multiplicity = 1:

       Center              X                  Y                   Z               Mass
    ------------   -----------------  -----------------  -----------------  -----------------
         O           -1.974692591630     1.666247626269     0.185909156454    15.994914619570
         O            1.652104408370    -1.193213373731    -0.676651843546    15.994914619570
         O           -3.281086591630    -0.044639373731    -0.513841843546    15.994914619570
         N            0.216232408370     0.277100626269     0.295273156454    14.003074004430
         C           -0.945484591630    -0.486021373731    -0.109852843546    12.000000000000
         C           -1.200107591630    -1.687072373731     0.803856156454    12.000000000000
         C            2.595104408370     0.784963626269     0.368063156454    12.000000000000
         C            1.466187408370    -0.136161373731    -0.066201843546    12.000000000000
         C           -2.199772091630     0.372582026269    -0.182690943546    12.000000000000
         C            3.950339408370     0.287819626269    -0.111713843546    12.000000000000
         H           -0.765708591630    -0.863002373731    -1.124578843546     1.007825032230
         H            0.078373408370     1.195744626269     0.697988156454     1.007825032230
         H           -1.367088591630    -1.350967373731     1.830496156454     1.007825032230
         H           -2.074841591630    -2.243474373731     0.460290156454     1.007825032230
         H           -0.322743591630    -2.334029373731     0.775234156454     1.007825032230
         H            2.390729408370     1.794398626269    -0.014442843546     1.007825032230
         H            2.576968408370     0.862751626269     1.462148156454     1.007825032230
         H            4.155708408370    -0.709918373731     0.281834156454     1.007825032230
         H            3.972243408370     0.223195626269    -1.201047843546     1.007825032230
         H            4.743023408370     0.966001626269     0.217364156454     1.007825032230
         H           -2.851751591630     2.096417326269     0.103409156454     1.007825032230

  Basis Set: AUG-CC-PVTZ
    Blend: AUG-CC-PVTZ
  Basis Set: (AUG-CC-PVTZ AUX)
    Blend: AUG-CC-PVTZ-JKFIT
	 Reference Energy          =    -512.8866147901802606 [Eh]
	 Singles Energy            =      -0.0000000000000000 [Eh]
	 Same-Spin Energy          =      -0.5111488628074425 [Eh]
	 Opposite-Spin Energy      =      -1.6145331408766885 [Eh]
	 Correlation Energy        =      -2.1256820036841311 [Eh]
	 Total Energy              =    -515.0122967938643797 [Eh]

	 ================> DF-SCS-MP2 Energies <==================
	-----------------------------------------------------------
	 SCS Same-Spin Scale       =       0.3333333333333333 [-]
	 SCS Opposite-Spin Scale   =       1.2000000000000000 [-]
	 SCS Same-Spin Energy      =      -0.1703829542691475 [Eh]
	 SCS Opposite-Spin Energy  =      -1.9374397690520262 [Eh]
	 SCS Correlation Energy    =      -2.1078227233211737 [Eh]
	 SCS Total Energy          =    -514.9944375135014525 [Eh]
	-----------------------------------------------------------

  Dipole Moment: [D]
     X:    -0.1201      Y:     3.3138      Z:     1.9413     Total:     3.8424

*** Psi4 exiting successfully. Buy a developer a beer!
