                               Psi4 1.3.2 release

  ==> Input File <==

--------------------------------------------------------------------------
#psi4
#
memory 32 gb

molecule  {
0 1
  O       -1.9756670     1.6664010     0.1857370
  O        1.6511300    -1.1930600    -0.6768240
  O       -3.2820610    -0.0444860    -0.5140140
  N        0.2152580     0.2772540     0.2951010
  C       -0.9464590    -0.4858680    -0.1100250
  C       -1.2010820    -1.6869190     0.8036840
  C        2.5941300     0.7851170     0.3678910
  C        1.4606686    -0.1464051    -0.0700053
  C       -2.1892550     0.3702600    -0.1810000
  C        3.9493650     0.2879730    -0.1118860
  H       -0.7666830    -0.8628490    -1.1247510
  H        0.0687375     1.1942751     0.6984562
  H       -1.3680630    -1.3508140     1.8303240
  H       -2.0758160    -2.2433210     0.4601180
  H       -0.3237180    -2.3338760     0.7750620
  H        2.3897550     1.7945520    -0.0146150
  H        2.5759940     0.8629050     1.4619760
  H        4.1547340    -0.7097650     0.2816620
  H        3.9712690     0.2233490    -1.2012200
  H        4.7420490     0.9661550     0.2171920
  H       -2.8492950     2.1039740     0.1058080
units angstrom
no_reorient  #important for SAPT in psi4, default
symmetry c1  #important for SAPT in psi4, default
}

set PROPERTIES_ORIGIN ["COM"]
properties('MP2/aug-cc-pvtz', properties = ['dipole'])
--------------------------------------------------------------------------

    Molecular point group: c1
  Charge       = 0
  Multiplicity = 1
  Basis Set: AUG-CC-PVTZ
    Blend: AUG-CC-PVTZ
  Basis Set: (AUG-CC-PVTZ AUX)
    Blend: AUG-CC-PVTZ-JKFIT

    Orbital Energies [Eh]
    ---------------------

    Doubly Occupied:

       1A    -20.636096     2A    -20.563787     3A    -20.526092
       4A    -15.591641     5A    -11.404708     6A    -11.355574
       7A    -11.295980     8A    -11.246803     9A    -11.226965
      10A    -11.218919    11A     -1.478522    12A     -1.386646
      13A     -1.373614    14A     -1.246401    15A     -1.073255
      16A     -1.034675    17A     -0.927669    18A     -0.883606
      19A     -0.816710    20A     -0.793226    21A     -0.730452
      22A     -0.714664    23A     -0.682907    24A     -0.665509
      25A     -0.640570    26A     -0.633992    27A     -0.610342
      28A     -0.604505    29A     -0.581589    30A     -0.546457
      31A     -0.544468    32A     -0.523631    33A     -0.520873
      34A     -0.519148    35A     -0.497396    36A     -0.489500
      37A     -0.468029    38A     -0.428106    39A     -0.401017

  @DF-RHF Final Energy:  -512.88658444496002

   => Energetics <=

    Nuclear Repulsion Energy =            548.2958629314094878
    One-Electron Energy =               -1788.5968110855378654
    Two-Electron Energy =                 727.4143637091684695
    Total Energy =                       -512.8865844449600218
  Basis Set: (AUG-CC-PVTZ AUX)
    Blend: AUG-CC-PVTZ-RI
    Molecular point group: c1

    Geometry (in Angstrom), charge = 0, multiplicity = 1:

       Center              X                  Y                   Z               Mass
    ------------   -----------------  -----------------  -----------------  -----------------
         O           -1.975230895038     1.667272237692     0.186033107579    15.994914619570
         O            1.651566104962    -1.192188762308    -0.676527892421    15.994914619570
         O           -3.281624895038    -0.043614762308    -0.513717892421    15.994914619570
         N            0.215694104962     0.278125237692     0.295397107579    14.003074004430
         C           -0.946022895038    -0.484996762308    -0.109728892421    12.000000000000
         C           -1.200645895038    -1.686047762308     0.803980107579    12.000000000000
         C            2.594566104962     0.785988237692     0.368187107579    12.000000000000
         C            1.461104704962    -0.145533862308    -0.069709192421    12.000000000000
         C           -2.188818895038     0.371131237692    -0.180703892421    12.000000000000
         C            3.949801104962     0.288844237692    -0.111589892421    12.000000000000
         H           -0.766246895038    -0.861977762308    -1.124454892421     1.007825032230
         H            0.069173604962     1.195146337692     0.698752307579     1.007825032230
         H           -1.367626895038    -1.349942762308     1.830620107579     1.007825032230
         H           -2.075379895038    -2.242449762308     0.460414107579     1.007825032230
         H           -0.323281895038    -2.333004762308     0.775358107579     1.007825032230
         H            2.390191104962     1.795423237692    -0.014318892421     1.007825032230
         H            2.576430104962     0.863776237692     1.462272107579     1.007825032230
         H            4.155170104962    -0.708893762308     0.281958107579     1.007825032230
         H            3.971705104962     0.224220237692    -1.200923892421     1.007825032230
         H            4.742485104962     0.967026237692     0.217488107579     1.007825032230
         H           -2.848858895038     2.104845237692     0.106104107579     1.007825032230

  Basis Set: AUG-CC-PVTZ
    Blend: AUG-CC-PVTZ
  Basis Set: (AUG-CC-PVTZ AUX)
    Blend: AUG-CC-PVTZ-JKFIT
	 Reference Energy          =    -512.8865844449600218 [Eh]
	 Singles Energy            =      -0.0000000000000000 [Eh]
	 Same-Spin Energy          =      -0.5111406962669900 [Eh]
	 Opposite-Spin Energy      =      -1.6145162450483728 [Eh]
	 Correlation Energy        =      -2.1256569413153628 [Eh]
	 Total Energy              =    -515.0122413862753774 [Eh]

	 ================> DF-SCS-MP2 Energies <==================
	-----------------------------------------------------------
	 SCS Same-Spin Scale       =       0.3333333333333333 [-]
	 SCS Opposite-Spin Scale   =       1.2000000000000000 [-]
	 SCS Same-Spin Energy      =      -0.1703802320889967 [Eh]
	 SCS Opposite-Spin Energy  =      -1.9374194940580471 [Eh]
	 SCS Correlation Energy    =      -2.1077997261470438 [Eh]
	 SCS Total Energy          =    -514.9943841711070718 [Eh]
	-----------------------------------------------------------

  Dipole Moment: [D]
     X:    -0.0663      Y:     3.2686      Z:     1.9357     Total:     3.7994

*** Psi4 exiting successfully. Buy a developer a beer!
