                               Psi4 1.4a3.dev225

  ==> Input File <==

--------------------------------------------------------------------------
#psi4
#
memory 32 gb

molecule  {
0 1
  O        2.1858500    -1.4843500     0.4466430
  O       -1.5901990     1.2021140    -0.7742790
  O        3.2899360     0.0893000    -0.7567370
  N       -0.1552130    -0.3501220     0.0655300
  C        0.9973750     0.5138300    -0.1038320
  C        1.1366130     1.5332170     1.0331740
  C       -2.5208420    -0.9251940    -0.0919400
  C       -1.4008270     0.0814870    -0.2899980
  C        2.2713450    -0.2912280    -0.2118740
  C       -3.8280260    -0.2360070     0.2837800
  H        0.8752740     1.0541530    -1.0466610
  H       -0.0274960    -1.2421660     0.5250420
  H        1.2555520     1.0181310     1.9903510
  H        2.0023980     2.1787030     0.8613650
  H        0.2327940     2.1443920     1.0604580
  H       -2.6404080    -1.4674310    -1.0380590
  H       -2.2372030    -1.6677960     0.6628800
  H       -3.7417830     0.2575120     1.2553170
  H       -4.0728600     0.5241080    -0.4590610
  H       -4.6456460    -0.9595500     0.3374610
  H        3.1123140    -1.9236642     0.3464609
units angstrom
no_reorient  #important for SAPT in psi4, default
symmetry c1  #important for SAPT in psi4, default
}

set PROPERTIES_ORIGIN ["COM"]
properties('MP2/aug-cc-pvtz', properties = ['dipole'])
--------------------------------------------------------------------------

    Molecular point group: c1
  Charge       = 0
  Multiplicity = 1
  Basis Set: AUG-CC-PVTZ
    Blend: AUG-CC-PVTZ
  Basis Set: (AUG-CC-PVTZ AUX)
    Blend: AUG-CC-PVTZ-JKFIT

    Orbital Energies [Eh]
    ---------------------

    Doubly Occupied:

       1A    -20.637206     2A    -20.564211     3A    -20.522416
       4A    -15.595633     5A    -11.403077     6A    -11.356661
       7A    -11.296368     8A    -11.247565     9A    -11.232671
      10A    -11.222250    11A     -1.469826    12A     -1.379249
      13A     -1.368144    14A     -1.245459    15A     -1.075595
      16A     -1.037040    17A     -0.925559    18A     -0.885026
      19A     -0.816162    20A     -0.793788    21A     -0.726414
      22A     -0.709557    23A     -0.679361    24A     -0.659272
      25A     -0.642359    26A     -0.633614    27A     -0.607927
      28A     -0.598490    29A     -0.583867    30A     -0.556112
      31A     -0.549489    32A     -0.527653    33A     -0.523437
      34A     -0.513047    35A     -0.497262    36A     -0.486957
      37A     -0.468580    38A     -0.427377    39A     -0.400066

  @DF-RHF Final Energy:  -512.88120768704209

   => Energetics <=

    Nuclear Repulsion Energy =            547.5701200869960985
    One-Electron Energy =               -1787.1731677999864587
    Two-Electron Energy =                 726.7218400259481541
    Total Energy =                       -512.8812076870420924
  Basis Set: (AUG-CC-PVTZ AUX)
    Blend: AUG-CC-PVTZ-RI
    Molecular point group: c1

    Geometry (in Angstrom), charge = 0, multiplicity = 1:

       Center              X                  Y                   Z               Mass
    ------------   -----------------  -----------------  -----------------  -----------------
         O            2.117750920470    -1.484627227271     0.477416147794    15.994914619570
         O           -1.658298079530     1.201836772729    -0.743505852206    15.994914619570
         O            3.221836920470     0.089022772729    -0.725963852206    15.994914619570
         N           -0.223312079530    -0.350399227271     0.096303147794    14.003074004430
         C            0.929275920470     0.513552772729    -0.073058852206    12.000000000000
         C            1.068513920470     1.532939772729     1.063947147794    12.000000000000
         C           -2.588941079530    -0.925471227271    -0.061166852206    12.000000000000
         C           -1.468926079530     0.081209772729    -0.259224852206    12.000000000000
         C            2.203245920470    -0.291505227271    -0.181100852206    12.000000000000
         C           -3.896125079530    -0.236284227271     0.314553147794    12.000000000000
         H            0.807174920470     1.053875772729    -1.015887852206     1.007825032230
         H           -0.095595079530    -1.242443227271     0.555815147794     1.007825032230
         H            1.187452920470     1.017853772729     2.021124147794     1.007825032230
         H            1.934298920470     2.178425772729     0.892138147794     1.007825032230
         H            0.164694920470     2.144114772729     1.091231147794     1.007825032230
         H           -2.708507079530    -1.467708227271    -1.007285852206     1.007825032230
         H           -2.305302079530    -1.668073227271     0.693653147794     1.007825032230
         H           -3.809882079530     0.257234772729     1.286090147794     1.007825032230
         H           -4.140959079530     0.523830772729    -0.428287852206     1.007825032230
         H           -4.713745079530    -0.959827227271     0.368234147794     1.007825032230
         H            3.044214920470    -1.923941427271     0.377234047794     1.007825032230

  Basis Set: AUG-CC-PVTZ
    Blend: AUG-CC-PVTZ
  Basis Set: (AUG-CC-PVTZ AUX)
    Blend: AUG-CC-PVTZ-JKFIT
	 Reference Energy          =    -512.8812076870420924 [Eh]
	 Singles Energy            =      -0.0000000000000000 [Eh]
	 Same-Spin Energy          =      -0.5118535062310264 [Eh]
	 Opposite-Spin Energy      =      -1.6166573393025696 [Eh]
	 Correlation Energy        =      -2.1285108455335959 [Eh]
	 Total Energy              =    -515.0097185325756755 [Eh]

	 ================> DF-SCS-MP2 Energies <==================
	-----------------------------------------------------------
	 SCS Same-Spin Scale       =       0.3333333333333333 [-]
	 SCS Opposite-Spin Scale   =       1.2000000000000000 [-]
	 SCS Same-Spin Energy      =      -0.1706178354103421 [Eh]
	 SCS Opposite-Spin Energy  =      -1.9399888071630835 [Eh]
	 SCS Correlation Energy    =      -2.1106066425734258 [Eh]
	 SCS Total Energy          =    -514.9918143296155222 [Eh]
	-----------------------------------------------------------

  Dipole Moment: [D]
     X:     0.1902      Y:    -3.3292      Z:     2.2939     Total:     4.0474

*** Psi4 exiting successfully. Buy a developer a beer!
