                               Psi4 1.3.2 release

  ==> Input File <==

--------------------------------------------------------------------------
#psi4
#
memory 32 gb

molecule  {
0 1
  O       -2.0447722     1.6793475     0.1732767
  O        1.6511300    -1.1930600    -0.6768240
  O       -3.2820610    -0.0444860    -0.5140140
  N        0.2152580     0.2772540     0.2951010
  C       -0.9897950    -0.5471845    -0.1348956
  C       -1.2010820    -1.6869190     0.8036840
  C        2.5941300     0.7851170     0.3678910
  C        1.4652130    -0.1360080    -0.0663740
  C       -2.1892550     0.3702600    -0.1810000
  C        3.9493650     0.2879730    -0.1118860
  H       -0.7666830    -0.8628490    -1.1247510
  H        0.0773990     1.1958980     0.6978160
  H       -1.3680630    -1.3508140     1.8303240
  H       -2.0758160    -2.2433210     0.4601180
  H       -0.3237180    -2.3338760     0.7750620
  H        2.3897550     1.7945520    -0.0146150
  H        2.5759940     0.8629050     1.4619760
  H        4.1547340    -0.7097650     0.2816620
  H        3.9712690     0.2233490    -1.2012200
  H        4.7420490     0.9661550     0.2171920
  H       -2.8492950     2.1039740     0.1058080
units angstrom
no_reorient  #important for SAPT in psi4, default
symmetry c1  #important for SAPT in psi4, default
}

set PROPERTIES_ORIGIN ["COM"]
properties('MP2/aug-cc-pvtz', properties = ['dipole'])
--------------------------------------------------------------------------

    Molecular point group: c1
  Charge       = 0
  Multiplicity = 1
  Basis Set: AUG-CC-PVTZ
    Blend: AUG-CC-PVTZ
  Basis Set: (AUG-CC-PVTZ AUX)
    Blend: AUG-CC-PVTZ-JKFIT

    Orbital Energies [Eh]
    ---------------------

    Doubly Occupied:

       1A    -20.628319     2A    -20.561275     3A    -20.522225
       4A    -15.590373     5A    -11.405744     6A    -11.353684
       7A    -11.303105     8A    -11.245913     9A    -11.229001
      10A    -11.218413    11A     -1.486942    12A     -1.377250
      13A     -1.375750    14A     -1.231595    15A     -1.079445
      16A     -1.039715    17A     -0.934247    18A     -0.884437
      19A     -0.832733    20A     -0.786594    21A     -0.729122
      22A     -0.715710    23A     -0.678699    24A     -0.669056
      25A     -0.640024    26A     -0.634941    27A     -0.612419
      28A     -0.602435    29A     -0.581745    30A     -0.552927
      31A     -0.544587    32A     -0.526763    33A     -0.518190
      34A     -0.517314    35A     -0.495655    36A     -0.489576
      37A     -0.468232    38A     -0.425860    39A     -0.402366

  @DF-RHF Final Energy:  -512.87993218096608

   => Energetics <=

    Nuclear Repulsion Energy =            547.0144640426949536
    One-Electron Energy =               -1786.0040235658075289
    Two-Electron Energy =                 726.1096273421464957
    Total Energy =                       -512.8799321809660796
  Basis Set: (AUG-CC-PVTZ AUX)
    Blend: AUG-CC-PVTZ-RI
    Molecular point group: c1

    Geometry (in Angstrom), charge = 0, multiplicity = 1:

       Center              X                  Y                   Z               Mass
    ------------   -----------------  -----------------  -----------------  -----------------
         O           -2.033568467158     1.682991938505     0.176707887462    15.994914619570
         O            1.662333732842    -1.189415561495    -0.673392812538    15.994914619570
         O           -3.270857267158    -0.040841561495    -0.510582812538    15.994914619570
         N            0.226461732842     0.280898438505     0.298532187462    14.003074004430
         C           -0.978591267158    -0.543540061495    -0.131464412538    12.000000000000
         C           -1.189878267158    -1.683274561495     0.807115187462    12.000000000000
         C            2.605333732842     0.788761438505     0.371322187462    12.000000000000
         C            1.476416732842    -0.132363561495    -0.062942812538    12.000000000000
         C           -2.178051267158     0.373904438505    -0.177568812538    12.000000000000
         C            3.960568732842     0.291617438505    -0.108454812538    12.000000000000
         H           -0.755479267158    -0.859204561495    -1.121319812538     1.007825032230
         H            0.088602732842     1.199542438505     0.701247187462     1.007825032230
         H           -1.356859267158    -1.347169561495     1.833755187462     1.007825032230
         H           -2.064612267158    -2.239676561495     0.463549187462     1.007825032230
         H           -0.312514267158    -2.330231561495     0.778493187462     1.007825032230
         H            2.400958732842     1.798196438505    -0.011183812538     1.007825032230
         H            2.587197732842     0.866549438505     1.465407187462     1.007825032230
         H            4.165937732842    -0.706120561495     0.285093187462     1.007825032230
         H            3.982472732842     0.226993438505    -1.197788812538     1.007825032230
         H            4.753252732842     0.969799438505     0.220623187462     1.007825032230
         H           -2.838091267158     2.107618438505     0.109239187462     1.007825032230

  Basis Set: AUG-CC-PVTZ
    Blend: AUG-CC-PVTZ
  Basis Set: (AUG-CC-PVTZ AUX)
    Blend: AUG-CC-PVTZ-JKFIT
	 Reference Energy          =    -512.8799321809660796 [Eh]
	 Singles Energy            =      -0.0000000000000000 [Eh]
	 Same-Spin Energy          =      -0.5097096579653629 [Eh]
	 Opposite-Spin Energy      =      -1.6123656447468018 [Eh]
	 Correlation Energy        =      -2.1220753027121648 [Eh]
	 Total Energy              =    -515.0020074836781987 [Eh]

	 ================> DF-SCS-MP2 Energies <==================
	-----------------------------------------------------------
	 SCS Same-Spin Scale       =       0.3333333333333333 [-]
	 SCS Opposite-Spin Scale   =       1.2000000000000000 [-]
	 SCS Same-Spin Energy      =      -0.1699032193217876 [Eh]
	 SCS Opposite-Spin Energy  =      -1.9348387736961621 [Eh]
	 SCS Correlation Energy    =      -2.1047419930179498 [Eh]
	 SCS Total Energy          =    -514.9846741739839899 [Eh]
	-----------------------------------------------------------

  Dipole Moment: [D]
     X:    -0.1307      Y:     3.1234      Z:     1.9766     Total:     3.6986

*** Psi4 exiting successfully. Buy a developer a beer!
