                               Psi4 1.3.2 release

  ==> Input File <==

--------------------------------------------------------------------------
#psi4
#
memory 32 gb

molecule  {
0 1
  O       -1.9756670     1.6664010     0.1857370
  O        1.6511300    -1.1930600    -0.6768240
  O       -3.2820610    -0.0444860    -0.5140140
  N        0.2023105     0.3240845     0.2369250
  C       -0.9464590    -0.4858680    -0.1100250
  C       -1.2647425    -1.7050869     0.7585493
  C        2.5941300     0.7851170     0.3678910
  C        1.4652130    -0.1360080    -0.0663740
  C       -2.1892550     0.3702600    -0.1810000
  C        3.9493650     0.2879730    -0.1118860
  H       -0.7666830    -0.8628490    -1.1247510
  H        0.0773990     1.1958980     0.6978160
  H       -1.3680630    -1.3508140     1.8303240
  H       -2.0758160    -2.2433210     0.4601180
  H       -0.3237180    -2.3338760     0.7750620
  H        2.3897550     1.7945520    -0.0146150
  H        2.5759940     0.8629050     1.4619760
  H        4.1547340    -0.7097650     0.2816620
  H        3.9712690     0.2233490    -1.2012200
  H        4.7420490     0.9661550     0.2171920
  H       -2.8492950     2.1039740     0.1058080
units angstrom
no_reorient  #important for SAPT in psi4, default
symmetry c1  #important for SAPT in psi4, default
}

set PROPERTIES_ORIGIN ["COM"]
properties('MP2/aug-cc-pvtz', properties = ['dipole'])
--------------------------------------------------------------------------

    Molecular point group: c1
  Charge       = 0
  Multiplicity = 1
  Basis Set: AUG-CC-PVTZ
    Blend: AUG-CC-PVTZ
  Basis Set: (AUG-CC-PVTZ AUX)
    Blend: AUG-CC-PVTZ-JKFIT

    Orbital Energies [Eh]
    ---------------------

    Doubly Occupied:

       1A    -20.633792     2A    -20.561385     3A    -20.527672
       4A    -15.592777     5A    -11.401860     6A    -11.359014
       7A    -11.296658     8A    -11.248402     9A    -11.229722
      10A    -11.220209    11A     -1.476505    12A     -1.381367
      13A     -1.371629    14A     -1.245506    15A     -1.075211
      16A     -1.037222    17A     -0.928735    18A     -0.884909
      19A     -0.819062    20A     -0.792567    21A     -0.729488
      22A     -0.713290    23A     -0.682691    24A     -0.664573
      25A     -0.641009    26A     -0.632362    27A     -0.610501
      28A     -0.605339    29A     -0.590367    30A     -0.554992
      31A     -0.535623    32A     -0.529385    33A     -0.520396
      34A     -0.509894    35A     -0.496879    36A     -0.486586
      37A     -0.464454    38A     -0.430507    39A     -0.400776

  @DF-RHF Final Energy:  -512.87672769781670

   => Energetics <=

    Nuclear Repulsion Energy =            547.9255622504446137
    One-Electron Energy =               -1787.8379477951687022
    Two-Electron Energy =                 727.0356578469074975
    Total Energy =                       -512.8767276978167047
  Basis Set: (AUG-CC-PVTZ AUX)
    Blend: AUG-CC-PVTZ-RI
    Molecular point group: c1

    Geometry (in Angstrom), charge = 0, multiplicity = 1:

       Center              X                  Y                   Z               Mass
    ------------   -----------------  -----------------  -----------------  -----------------
         O           -1.969151450249     1.663383481804     0.195085934478    15.994914619570
         O            1.657645549751    -1.196077518196    -0.667475065522    15.994914619570
         O           -3.275545450249    -0.047503518196    -0.504665065522    15.994914619570
         N            0.208826049751     0.321066981804     0.246273934478    14.003074004430
         C           -0.939943450249    -0.488885518196    -0.100676065522    12.000000000000
         C           -1.258226950249    -1.708104418196     0.767898234478    12.000000000000
         C            2.600645549751     0.782099481804     0.377239934478    12.000000000000
         C            1.471728549751    -0.139025518196    -0.057025065522    12.000000000000
         C           -2.182739450249     0.367242481804    -0.171651065522    12.000000000000
         C            3.955880549751     0.284955481804    -0.102537065522    12.000000000000
         H           -0.760167450249    -0.865866518196    -1.115402065522     1.007825032230
         H            0.083914549751     1.192880481804     0.707164934478     1.007825032230
         H           -1.361547450249    -1.353831518196     1.839672934478     1.007825032230
         H           -2.069300450249    -2.246338518196     0.469466934478     1.007825032230
         H           -0.317202450249    -2.336893518196     0.784410934478     1.007825032230
         H            2.396270549751     1.791534481804    -0.005266065522     1.007825032230
         H            2.582509549751     0.859887481804     1.471324934478     1.007825032230
         H            4.161249549751    -0.712782518196     0.291010934478     1.007825032230
         H            3.977784549751     0.220331481804    -1.191871065522     1.007825032230
         H            4.748564549751     0.963137481804     0.226540934478     1.007825032230
         H           -2.842779450249     2.100956481804     0.115156934478     1.007825032230

  Basis Set: AUG-CC-PVTZ
    Blend: AUG-CC-PVTZ
  Basis Set: (AUG-CC-PVTZ AUX)
    Blend: AUG-CC-PVTZ-JKFIT
	 Reference Energy          =    -512.8767276978167047 [Eh]
	 Singles Energy            =      -0.0000000000000000 [Eh]
	 Same-Spin Energy          =      -0.5114143942393460 [Eh]
	 Opposite-Spin Energy      =      -1.6151571052704747 [Eh]
	 Correlation Energy        =      -2.1265714995098208 [Eh]
	 Total Energy              =    -515.0032991973265553 [Eh]

	 ================> DF-SCS-MP2 Energies <==================
	-----------------------------------------------------------
	 SCS Same-Spin Scale       =       0.3333333333333333 [-]
	 SCS Opposite-Spin Scale   =       1.2000000000000000 [-]
	 SCS Same-Spin Energy      =      -0.1704714647464486 [Eh]
	 SCS Opposite-Spin Energy  =      -1.9381885263245695 [Eh]
	 SCS Correlation Energy    =      -2.1086599910710180 [Eh]
	 SCS Total Energy          =    -514.9853876888877267 [Eh]
	-----------------------------------------------------------

  Dipole Moment: [D]
     X:     0.0948      Y:     3.1955      Z:     2.0319     Total:     3.7880

*** Psi4 exiting successfully. Buy a developer a beer!
