                               Psi4 1.3.2 release

  ==> Input File <==

--------------------------------------------------------------------------
#psi4
#
memory 32 gb

molecule  {
0 1
  O       -1.9756670     1.6664010     0.1857370
  O        1.6511300    -1.1930600    -0.6768240
  O       -3.2820610    -0.0444860    -0.5140140
  N        0.2152580     0.2772540     0.2951010
  C       -0.9464590    -0.4858680    -0.1100250
  C       -1.2010820    -1.6869190     0.8036840
  C        2.5941300     0.7851170     0.3678910
  C        1.4652130    -0.1360080    -0.0663740
  C       -2.1871000     0.3751233    -0.1551739
  C        3.9493650     0.2879730    -0.1118860
  H       -0.7512066    -0.8721531    -1.1183718
  H        0.0773990     1.1958980     0.6978160
  H       -1.3680630    -1.3508140     1.8303240
  H       -2.0758160    -2.2433210     0.4601180
  H       -0.3237180    -2.3338760     0.7750620
  H        2.3897550     1.7945520    -0.0146150
  H        2.5759940     0.8629050     1.4619760
  H        4.1547340    -0.7097650     0.2816620
  H        3.9712690     0.2233490    -1.2012200
  H        4.7420490     0.9661550     0.2171920
  H       -2.8492950     2.1039740     0.1058080
units angstrom
no_reorient  #important for SAPT in psi4, default
symmetry c1  #important for SAPT in psi4, default
}

set PROPERTIES_ORIGIN ["COM"]
properties('MP2/aug-cc-pvtz', properties = ['dipole'])
--------------------------------------------------------------------------

    Molecular point group: c1
  Charge       = 0
  Multiplicity = 1
  Basis Set: AUG-CC-PVTZ
    Blend: AUG-CC-PVTZ
  Basis Set: (AUG-CC-PVTZ AUX)
    Blend: AUG-CC-PVTZ-JKFIT

    Orbital Energies [Eh]
    ---------------------

    Doubly Occupied:

       1A    -20.639620     2A    -20.561575     3A    -20.524865
       4A    -15.592371     5A    -11.405687     6A    -11.356299
       7A    -11.296370     8A    -11.247703     9A    -11.226429
      10A    -11.219620    11A     -1.481704    12A     -1.380899
      13A     -1.368920    14A     -1.245740    15A     -1.075022
      16A     -1.035666    17A     -0.928387    18A     -0.885971
      19A     -0.819294    20A     -0.793224    21A     -0.731383
      22A     -0.715390    23A     -0.683044    24A     -0.666487
      25A     -0.641703    26A     -0.633682    27A     -0.609619
      28A     -0.602942    29A     -0.581036    30A     -0.546138
      31A     -0.543204    32A     -0.524143    33A     -0.520285
      34A     -0.519099    35A     -0.495960    36A     -0.486447
      37A     -0.467826    38A     -0.428906    39A     -0.399845

  @DF-RHF Final Energy:  -512.88472351255336

   => Energetics <=

    Nuclear Repulsion Energy =            548.2507202977119505
    One-Electron Energy =               -1788.5058787076554836
    Two-Electron Energy =                 727.3704348973901688
    Total Energy =                       -512.8847235125533643
  Basis Set: (AUG-CC-PVTZ AUX)
    Blend: AUG-CC-PVTZ-RI
    Molecular point group: c1

    Geometry (in Angstrom), charge = 0, multiplicity = 1:

       Center              X                  Y                   Z               Mass
    ------------   -----------------  -----------------  -----------------  -----------------
         O           -1.975952731183     1.666063312430     0.183556626802    15.994914619570
         O            1.650844268817    -1.193397687570    -0.679004373198    15.994914619570
         O           -3.282346731183    -0.044823687570    -0.516194373198    15.994914619570
         N            0.214972268817     0.276916312430     0.292920626802    14.003074004430
         C           -0.946744731183    -0.486205687570    -0.112205373198    12.000000000000
         C           -1.201367731183    -1.687256687570     0.801503626802    12.000000000000
         C            2.593844268817     0.784779312430     0.365710626802    12.000000000000
         C            1.464927268817    -0.136345687570    -0.068554373198    12.000000000000
         C           -2.187385731183     0.374785612430    -0.157354273198    12.000000000000
         C            3.949079268817     0.287635312430    -0.114066373198    12.000000000000
         H           -0.751492331183    -0.872490787570    -1.120552173198     1.007825032230
         H            0.077113268817     1.195560312430     0.695635626802     1.007825032230
         H           -1.368348731183    -1.351151687570     1.828143626802     1.007825032230
         H           -2.076101731183    -2.243658687570     0.457937626802     1.007825032230
         H           -0.324003731183    -2.334213687570     0.772881626802     1.007825032230
         H            2.389469268817     1.794214312430    -0.016795373198     1.007825032230
         H            2.575708268817     0.862567312430     1.459795626802     1.007825032230
         H            4.154448268817    -0.710102687570     0.279481626802     1.007825032230
         H            3.970983268817     0.223011312430    -1.203400373198     1.007825032230
         H            4.741763268817     0.965817312430     0.215011626802     1.007825032230
         H           -2.849580731183     2.103636312430     0.103627626802     1.007825032230

  Basis Set: AUG-CC-PVTZ
    Blend: AUG-CC-PVTZ
  Basis Set: (AUG-CC-PVTZ AUX)
    Blend: AUG-CC-PVTZ-JKFIT
	 Reference Energy          =    -512.8847235125533643 [Eh]
	 Singles Energy            =      -0.0000000000000000 [Eh]
	 Same-Spin Energy          =      -0.5115645749728595 [Eh]
	 Opposite-Spin Energy      =      -1.6152847207230241 [Eh]
	 Correlation Energy        =      -2.1268492956958838 [Eh]
	 Total Energy              =    -515.0115728082492979 [Eh]

	 ================> DF-SCS-MP2 Energies <==================
	-----------------------------------------------------------
	 SCS Same-Spin Scale       =       0.3333333333333333 [-]
	 SCS Opposite-Spin Scale   =       1.2000000000000000 [-]
	 SCS Same-Spin Energy      =      -0.1705215249909531 [Eh]
	 SCS Opposite-Spin Energy  =      -1.9383416648676288 [Eh]
	 SCS Correlation Energy    =      -2.1088631898585821 [Eh]
	 SCS Total Energy          =    -514.9935867024119034 [Eh]
	-----------------------------------------------------------

  Dipole Moment: [D]
     X:    -0.0003      Y:     3.3941      Z:     2.0133     Total:     3.9463

*** Psi4 exiting successfully. Buy a developer a beer!
