                               Psi4 1.3.2 release

  ==> Input File <==

--------------------------------------------------------------------------
#psi4
#
memory 32 gb

molecule  {
0 1
  O       -1.9756670     1.6664010     0.1857370
  O        1.6511300    -1.1930600    -0.6768240
  O       -3.2820610    -0.0444860    -0.5140140
  N        0.2152580     0.2772540     0.2951010
  C       -0.9464590    -0.4858680    -0.1100250
  C       -1.2010820    -1.6869190     0.8036840
  C        2.5941300     0.7851170     0.3678910
  C        1.4652130    -0.1360080    -0.0663740
  C       -2.1579338     0.5603304    -0.1272205
  C        3.9493650     0.2879730    -0.1118860
  H       -0.7666830    -0.8628490    -1.1247510
  H        0.0773990     1.1958980     0.6978160
  H       -1.3680630    -1.3508140     1.8303240
  H       -2.0758160    -2.2433210     0.4601180
  H       -0.3237180    -2.3338760     0.7750620
  H        2.3897550     1.7945520    -0.0146150
  H        2.5759940     0.8629050     1.4619760
  H        4.1547340    -0.7097650     0.2816620
  H        3.9712690     0.2233490    -1.2012200
  H        4.7420490     0.9661550     0.2171920
  H       -2.8492950     2.1039740     0.1058080
units angstrom
no_reorient  #important for SAPT in psi4, default
symmetry c1  #important for SAPT in psi4, default
}

set PROPERTIES_ORIGIN ["COM"]
properties('MP2/aug-cc-pvtz', properties = ['dipole'])
--------------------------------------------------------------------------

    Molecular point group: c1
  Charge       = 0
  Multiplicity = 1
  Basis Set: AUG-CC-PVTZ
    Blend: AUG-CC-PVTZ
  Basis Set: (AUG-CC-PVTZ AUX)
    Blend: AUG-CC-PVTZ-JKFIT

    Orbital Energies [Eh]
    ---------------------

    Doubly Occupied:

       1A    -20.692040     2A    -20.529439     3A    -20.523781
       4A    -15.590177     5A    -11.406249     6A    -11.354637
       7A    -11.295256     8A    -11.247641     9A    -11.219584
      10A    -11.219574    11A     -1.600753    12A     -1.379553
      13A     -1.301756    14A     -1.243653    15A     -1.068452
      16A     -1.025525    17A     -0.955493    18A     -0.898550
      19A     -0.843537    20A     -0.808471    21A     -0.763776
      22A     -0.723558    23A     -0.715084    24A     -0.675321
      25A     -0.649961    26A     -0.636880    27A     -0.604113
      28A     -0.581436    29A     -0.575474    30A     -0.540454
      31A     -0.527344    32A     -0.519739    33A     -0.517860
      34A     -0.509105    35A     -0.490929    36A     -0.451447
      37A     -0.440623    38A     -0.423816    39A     -0.395652

  @DF-RHF Final Energy:  -512.82432992302029

   => Energetics <=

    Nuclear Repulsion Energy =            548.5622520478229944
    One-Electron Energy =               -1788.8797713425180973
    Two-Electron Energy =                 727.4931893716748164
    Total Energy =                       -512.8243299230202865
  Basis Set: (AUG-CC-PVTZ AUX)
    Blend: AUG-CC-PVTZ-RI
    Molecular point group: c1

    Geometry (in Angstrom), charge = 0, multiplicity = 1:

       Center              X                  Y                   Z               Mass
    ------------   -----------------  -----------------  -----------------  -----------------
         O           -1.978257742025     1.650678999957     0.181288736451    15.994914619570
         O            1.648539257975    -1.208782000043    -0.681272263549    15.994914619570
         O           -3.284651742025    -0.060208000043    -0.518462263549    15.994914619570
         N            0.212667257975     0.261531999957     0.290652736451    14.003074004430
         C           -0.949049742025    -0.501590000043    -0.114473263549    12.000000000000
         C           -1.203672742025    -1.702641000043     0.799235736451    12.000000000000
         C            2.591539257975     0.769394999957     0.363442736451    12.000000000000
         C            1.462622257975    -0.151730000043    -0.070822263549    12.000000000000
         C           -2.160524542025     0.544608399957    -0.131668763549    12.000000000000
         C            3.946774257975     0.272250999957    -0.116334263549    12.000000000000
         H           -0.769273742025    -0.878571000043    -1.129199263549     1.007825032230
         H            0.074808257975     1.180175999957     0.693367736451     1.007825032230
         H           -1.370653742025    -1.366536000043     1.825875736451     1.007825032230
         H           -2.078406742025    -2.259043000043     0.455669736451     1.007825032230
         H           -0.326308742025    -2.349598000043     0.770613736451     1.007825032230
         H            2.387164257975     1.778829999957    -0.019063263549     1.007825032230
         H            2.573403257975     0.847182999957     1.457527736451     1.007825032230
         H            4.152143257975    -0.725487000043     0.277213736451     1.007825032230
         H            3.968678257975     0.207626999957    -1.205668263549     1.007825032230
         H            4.739458257975     0.950432999957     0.212743736451     1.007825032230
         H           -2.851885742025     2.088251999957     0.101359736451     1.007825032230

  Basis Set: AUG-CC-PVTZ
    Blend: AUG-CC-PVTZ
  Basis Set: (AUG-CC-PVTZ AUX)
    Blend: AUG-CC-PVTZ-JKFIT
	 Reference Energy          =    -512.8243299230202865 [Eh]
	 Singles Energy            =      -0.0000000000000000 [Eh]
	 Same-Spin Energy          =      -0.5125215345938126 [Eh]
	 Opposite-Spin Energy      =      -1.6161268487286866 [Eh]
	 Correlation Energy        =      -2.1286483833224992 [Eh]
	 Total Energy              =    -514.9529783063427431 [Eh]

	 ================> DF-SCS-MP2 Energies <==================
	-----------------------------------------------------------
	 SCS Same-Spin Scale       =       0.3333333333333333 [-]
	 SCS Opposite-Spin Scale   =       1.2000000000000000 [-]
	 SCS Same-Spin Energy      =      -0.1708405115312708 [Eh]
	 SCS Opposite-Spin Energy  =      -1.9393522184744239 [Eh]
	 SCS Correlation Energy    =      -2.1101927300056946 [Eh]
	 SCS Total Energy          =    -514.9345226530259652 [Eh]
	-----------------------------------------------------------

  Dipole Moment: [D]
     X:     0.3554      Y:     4.7051      Z:     2.3745     Total:     5.2823

*** Psi4 exiting successfully. Buy a developer a beer!
