                               Psi4 1.3.2 release

  ==> Input File <==

--------------------------------------------------------------------------
#psi4
#
memory 32 gb

molecule  {
0 1
  O       -1.9756670     1.6664010     0.1857370
  O        1.6511300    -1.1930600    -0.6768240
  O       -3.2820610    -0.0444860    -0.5140140
  N        0.2152580     0.2772540     0.2951010
  C       -0.9464590    -0.4858680    -0.1100250
  C       -1.2010820    -1.6869190     0.8036840
  C        2.5941300     0.7851170     0.3678910
  C        1.4560293    -0.1567700    -0.0736088
  C       -2.1892550     0.3702600    -0.1810000
  C        3.9493650     0.2879730    -0.1118860
  H       -0.7666830    -0.8628490    -1.1247510
  H        0.0600872     1.1925823     0.6990656
  H       -1.3680630    -1.3508140     1.8303240
  H       -2.0758160    -2.2433210     0.4601180
  H       -0.3237180    -2.3338760     0.7750620
  H        2.3897550     1.7945520    -0.0146150
  H        2.5759940     0.8629050     1.4619760
  H        4.1547340    -0.7097650     0.2816620
  H        3.9712690     0.2233490    -1.2012200
  H        4.7420490     0.9661550     0.2171920
  H       -2.8492950     2.1039740     0.1058080
units angstrom
no_reorient  #important for SAPT in psi4, default
symmetry c1  #important for SAPT in psi4, default
}

set PROPERTIES_ORIGIN ["COM"]
properties('MP2/aug-cc-pvtz', properties = ['dipole'])
--------------------------------------------------------------------------

    Molecular point group: c1
  Charge       = 0
  Multiplicity = 1
  Basis Set: AUG-CC-PVTZ
    Blend: AUG-CC-PVTZ
  Basis Set: (AUG-CC-PVTZ AUX)
    Blend: AUG-CC-PVTZ-JKFIT

    Orbital Energies [Eh]
    ---------------------

    Doubly Occupied:

       1A    -20.636223     2A    -20.563788     3A    -20.527592
       4A    -15.590936     5A    -11.404662     6A    -11.355024
       7A    -11.295550     8A    -11.245989     9A    -11.227046
      10A    -11.218325    11A     -1.478619    12A     -1.392830
      13A     -1.373676    14A     -1.247382    15A     -1.071660
      16A     -1.033666    17A     -0.927589    18A     -0.881796
      19A     -0.816777    20A     -0.794070    21A     -0.730048
      22A     -0.714766    23A     -0.683023    24A     -0.665488
      25A     -0.639963    26A     -0.634731    27A     -0.610365
      28A     -0.606219    29A     -0.582245    30A     -0.546394
      31A     -0.545090    32A     -0.523415    33A     -0.521325
      34A     -0.518922    35A     -0.497212    36A     -0.490678
      37A     -0.468207    38A     -0.427145    39A     -0.401734

  @DF-RHF Final Energy:  -512.88671843010343

   => Energetics <=

    Nuclear Repulsion Energy =            548.3962376157709286
    One-Electron Energy =               -1788.7855655312919225
    Two-Electron Energy =                 727.5026094854174517
    Total Energy =                       -512.8867184301034285
  Basis Set: (AUG-CC-PVTZ AUX)
    Blend: AUG-CC-PVTZ-RI
    Molecular point group: c1

    Geometry (in Angstrom), charge = 0, multiplicity = 1:

       Center              X                  Y                   Z               Mass
    ------------   -----------------  -----------------  -----------------  -----------------
         O           -1.974787055093     1.668141345451     0.186326942883    15.994914619570
         O            1.652009944907    -1.191319654549    -0.676234057117    15.994914619570
         O           -3.281181055093    -0.042745654549    -0.513424057117    15.994914619570
         N            0.216137944907     0.278994345451     0.295690942883    14.003074004430
         C           -0.945579055093    -0.484127654549    -0.109435057117    12.000000000000
         C           -1.200202055093    -1.685178654549     0.804273942883    12.000000000000
         C            2.595009944907     0.786857345451     0.368480942883    12.000000000000
         C            1.456909244907    -0.155029654549    -0.073018857117    12.000000000000
         C           -2.188375055093     0.372000345451    -0.180410057117    12.000000000000
         C            3.950244944907     0.289713345451    -0.111296057117    12.000000000000
         H           -0.765803055093    -0.861108654549    -1.124161057117     1.007825032230
         H            0.060967144907     1.194322645451     0.699655542883     1.007825032230
         H           -1.367183055093    -1.349073654549     1.830913942883     1.007825032230
         H           -2.074936055093    -2.241580654549     0.460707942883     1.007825032230
         H           -0.322838055093    -2.332135654549     0.775651942883     1.007825032230
         H            2.390634944907     1.796292345451    -0.014025057117     1.007825032230
         H            2.576873944907     0.864645345451     1.462565942883     1.007825032230
         H            4.155613944907    -0.708024654549     0.282251942883     1.007825032230
         H            3.972148944907     0.225089345451    -1.200630057117     1.007825032230
         H            4.742928944907     0.967895345451     0.217781942883     1.007825032230
         H           -2.848415055093     2.105714345451     0.106397942883     1.007825032230

  Basis Set: AUG-CC-PVTZ
    Blend: AUG-CC-PVTZ
  Basis Set: (AUG-CC-PVTZ AUX)
    Blend: AUG-CC-PVTZ-JKFIT
	 Reference Energy          =    -512.8867184301034285 [Eh]
	 Singles Energy            =      -0.0000000000000000 [Eh]
	 Same-Spin Energy          =      -0.5109243704966870 [Eh]
	 Opposite-Spin Energy      =      -1.6140943185102372 [Eh]
	 Correlation Energy        =      -2.1250186890069243 [Eh]
	 Total Energy              =    -515.0117371191103075 [Eh]

	 ================> DF-SCS-MP2 Energies <==================
	-----------------------------------------------------------
	 SCS Same-Spin Scale       =       0.3333333333333333 [-]
	 SCS Opposite-Spin Scale   =       1.2000000000000000 [-]
	 SCS Same-Spin Energy      =      -0.1703081234988957 [Eh]
	 SCS Opposite-Spin Energy  =      -1.9369131822122845 [Eh]
	 SCS Correlation Energy    =      -2.1072213057111799 [Eh]
	 SCS Total Energy          =    -514.9939397358145925 [Eh]
	-----------------------------------------------------------

  Dipole Moment: [D]
     X:    -0.0895      Y:     3.2210      Z:     1.9102     Total:     3.7459

*** Psi4 exiting successfully. Buy a developer a beer!
