                               Psi4 1.3.2 release

  ==> Input File <==

--------------------------------------------------------------------------
#psi4
#
memory 32 gb

molecule  {
0 1
  O       -1.9756670     1.6664010     0.1857370
  O        1.6511300    -1.1930600    -0.6768240
  O       -3.2820610    -0.0444860    -0.5140140
  N        0.2152580     0.2772540     0.2951010
  C       -0.9464590    -0.4858680    -0.1100250
  C       -1.2010820    -1.6869190     0.8036840
  C        2.5941300     0.7851170     0.3678910
  C        1.4652130    -0.1360080    -0.0663740
  C       -2.1892550     0.3702600    -0.1810000
  C        3.9493650     0.2879730    -0.1118860
  H       -0.7830662    -0.8284942    -1.0322776
  H        0.0773990     1.1958980     0.6978160
  H       -1.3680630    -1.3508140     1.8303240
  H       -2.0758160    -2.2433210     0.4601180
  H       -0.3237180    -2.3338760     0.7750620
  H        2.3897550     1.7945520    -0.0146150
  H        2.5759940     0.8629050     1.4619760
  H        4.1547340    -0.7097650     0.2816620
  H        3.9712690     0.2233490    -1.2012200
  H        4.7420490     0.9661550     0.2171920
  H       -2.8492950     2.1039740     0.1058080
units angstrom
no_reorient  #important for SAPT in psi4, default
symmetry c1  #important for SAPT in psi4, default
}

set PROPERTIES_ORIGIN ["COM"]
properties('MP2/aug-cc-pvtz', properties = ['dipole'])
--------------------------------------------------------------------------

    Molecular point group: c1
  Charge       = 0
  Multiplicity = 1
  Basis Set: AUG-CC-PVTZ
    Blend: AUG-CC-PVTZ
  Basis Set: (AUG-CC-PVTZ AUX)
    Blend: AUG-CC-PVTZ-JKFIT

    Orbital Energies [Eh]
    ---------------------

    Doubly Occupied:

       1A    -20.636130     2A    -20.564590     3A    -20.524365
       4A    -15.591629     5A    -11.404857     6A    -11.356068
       7A    -11.285631     8A    -11.247409     9A    -11.226510
      10A    -11.219395    11A     -1.478773    12A     -1.380610
      13A     -1.374082    14A     -1.246213    15A     -1.077732
      16A     -1.037538    17A     -0.928249    18A     -0.885387
      19A     -0.827420    20A     -0.792407    21A     -0.730878
      22A     -0.715008    23A     -0.685288    24A     -0.669715
      25A     -0.641246    26A     -0.636551    27A     -0.612748
      28A     -0.603440    29A     -0.580786    30A     -0.547293
      31A     -0.544506    32A     -0.525098    33A     -0.523258
      34A     -0.519338    35A     -0.497758    36A     -0.490039
      37A     -0.469300    38A     -0.428674    39A     -0.400636

  @DF-RHF Final Energy:  -512.88067177482640

   => Energetics <=

    Nuclear Repulsion Energy =            548.7610627575591025
    One-Electron Energy =               -1789.4703622553324749
    Two-Electron Energy =                 727.8286277229469761
    Total Energy =                       -512.8806717748263964
  Basis Set: (AUG-CC-PVTZ AUX)
    Blend: AUG-CC-PVTZ-RI
    Molecular point group: c1

    Geometry (in Angstrom), charge = 0, multiplicity = 1:

       Center              X                  Y                   Z               Mass
    ------------   -----------------  -----------------  -----------------  -----------------
         O           -1.975553149280     1.666162290043     0.185094776121    15.994914619570
         O            1.651243850720    -1.193298709957    -0.677466223879    15.994914619570
         O           -3.281947149280    -0.044724709957    -0.514656223879    15.994914619570
         N            0.215371850720     0.277015290043     0.294458776121    14.003074004430
         C           -0.946345149280    -0.486106709957    -0.110667223879    12.000000000000
         C           -1.200968149280    -1.687157709957     0.803041776121    12.000000000000
         C            2.594243850720     0.784878290043     0.367248776121    12.000000000000
         C            1.465326850720    -0.136246709957    -0.067016223879    12.000000000000
         C           -2.189141149280     0.370021290043    -0.181642223879    12.000000000000
         C            3.949478850720     0.287734290043    -0.112528223879    12.000000000000
         H           -0.782952349280    -0.828732909957    -1.032919823879     1.007825032230
         H            0.077512850720     1.195659290043     0.697173776121     1.007825032230
         H           -1.367949149280    -1.351052709957     1.829681776121     1.007825032230
         H           -2.075702149280    -2.243559709957     0.459475776121     1.007825032230
         H           -0.323604149280    -2.334114709957     0.774419776121     1.007825032230
         H            2.389868850720     1.794313290043    -0.015257223879     1.007825032230
         H            2.576107850720     0.862666290043     1.461333776121     1.007825032230
         H            4.154847850720    -0.710003709957     0.281019776121     1.007825032230
         H            3.971382850720     0.223110290043    -1.201862223879     1.007825032230
         H            4.742162850720     0.965916290043     0.216549776121     1.007825032230
         H           -2.849181149280     2.103735290043     0.105165776121     1.007825032230

  Basis Set: AUG-CC-PVTZ
    Blend: AUG-CC-PVTZ
  Basis Set: (AUG-CC-PVTZ AUX)
    Blend: AUG-CC-PVTZ-JKFIT
	 Reference Energy          =    -512.8806717748263964 [Eh]
	 Singles Energy            =      -0.0000000000000000 [Eh]
	 Same-Spin Energy          =      -0.5110982260830552 [Eh]
	 Opposite-Spin Energy      =      -1.6142641241503755 [Eh]
	 Correlation Energy        =      -2.1253623502334307 [Eh]
	 Total Energy              =    -515.0060341250598412 [Eh]

	 ================> DF-SCS-MP2 Energies <==================
	-----------------------------------------------------------
	 SCS Same-Spin Scale       =       0.3333333333333333 [-]
	 SCS Opposite-Spin Scale   =       1.2000000000000000 [-]
	 SCS Same-Spin Energy      =      -0.1703660753610184 [Eh]
	 SCS Opposite-Spin Energy  =      -1.9371169489804505 [Eh]
	 SCS Correlation Energy    =      -2.1074830243414691 [Eh]
	 SCS Total Energy          =    -514.9881547991678872 [Eh]
	-----------------------------------------------------------

  Dipole Moment: [D]
     X:    -0.0831      Y:     3.3283      Z:     1.9621     Total:     3.8645

*** Psi4 exiting successfully. Buy a developer a beer!
