                               Psi4 1.4a3.dev225

  ==> Input File <==

--------------------------------------------------------------------------
#psi4
#
memory 32 gb

molecule  {
0 1
  O        2.1858500    -1.4843500     0.4466430
  O       -1.5901990     1.2021140    -0.7742790
  O        3.2899360     0.0893000    -0.7567370
  N       -0.1552130    -0.3501220     0.0655300
  C        0.9973750     0.5138300    -0.1038320
  C        1.1366130     1.5332170     1.0331740
  C       -2.5208420    -0.9251940    -0.0919400
  C       -1.4008270     0.0814870    -0.2899980
  C        2.3132201    -0.2755842    -0.2342737
  C       -3.8280260    -0.2360070     0.2837800
  H        0.8752740     1.0541530    -1.0466610
  H       -0.0274960    -1.2421660     0.5250420
  H        1.2555520     1.0181310     1.9903510
  H        2.0023980     2.1787030     0.8613650
  H        0.2327940     2.1443920     1.0604580
  H       -2.6404080    -1.4674310    -1.0380590
  H       -2.2372030    -1.6677960     0.6628800
  H       -3.7417830     0.2575120     1.2553170
  H       -4.0728600     0.5241080    -0.4590610
  H       -4.6456460    -0.9595500     0.3374610
  H        3.0673500    -1.9023430     0.3513230
units angstrom
no_reorient  #important for SAPT in psi4, default
symmetry c1  #important for SAPT in psi4, default
}

set PROPERTIES_ORIGIN ["COM"]
properties('MP2/aug-cc-pvtz', properties = ['dipole'])
--------------------------------------------------------------------------

    Molecular point group: c1
  Charge       = 0
  Multiplicity = 1
  Basis Set: AUG-CC-PVTZ
    Blend: AUG-CC-PVTZ
  Basis Set: (AUG-CC-PVTZ AUX)
    Blend: AUG-CC-PVTZ-JKFIT

    Orbital Energies [Eh]
    ---------------------

    Doubly Occupied:

       1A    -20.625651     2A    -20.574313     3A    -20.520950
       4A    -15.594060     5A    -11.399680     6A    -11.355372
       7A    -11.295126     8A    -11.246569     9A    -11.231062
      10A    -11.221437    11A     -1.483787    12A     -1.390614
      13A     -1.377528    14A     -1.242586    15A     -1.072627
      16A     -1.034446    17A     -0.921385    18A     -0.883029
      19A     -0.813804    20A     -0.791879    21A     -0.726455
      22A     -0.718663    23A     -0.679293    24A     -0.659600
      25A     -0.645634    26A     -0.636776    27A     -0.612310
      28A     -0.597664    29A     -0.582694    30A     -0.556494
      31A     -0.551989    32A     -0.527952    33A     -0.522648
      34A     -0.513893    35A     -0.507624    36A     -0.489118
      37A     -0.467173    38A     -0.426154    39A     -0.398270

  @DF-RHF Final Energy:  -512.88553666211010

   => Energetics <=

    Nuclear Repulsion Energy =            547.7253619133778102
    One-Electron Energy =               -1787.4291806722535512
    Two-Electron Energy =                 726.8182820967656426
    Total Energy =                       -512.8855366621100984
  Basis Set: (AUG-CC-PVTZ AUX)
    Blend: AUG-CC-PVTZ-RI
    Molecular point group: c1

    Geometry (in Angstrom), charge = 0, multiplicity = 1:

       Center              X                  Y                   Z               Mass
    ------------   -----------------  -----------------  -----------------  -----------------
         O            2.114599523998    -1.486069345039     0.479235194958    15.994914619570
         O           -1.661449476002     1.200394654961    -0.741686805042    15.994914619570
         O            3.218685523998     0.087580654961    -0.724144805042    15.994914619570
         N           -0.226463476002    -0.351841345039     0.098122194958    14.003074004430
         C            0.926124523998     0.512110654961    -0.071239805042    12.000000000000
         C            1.065362523998     1.531497654961     1.065766194958    12.000000000000
         C           -2.592092476002    -0.926913345039    -0.059347805042    12.000000000000
         C           -1.472077476002     0.079767654961    -0.257405805042    12.000000000000
         C            2.241969623998    -0.277303545039    -0.201681505042    12.000000000000
         C           -3.899276476002    -0.237726345039     0.316372194958    12.000000000000
         H            0.804023523998     1.052433654961    -1.014068805042     1.007825032230
         H           -0.098746476002    -1.243885345039     0.557634194958     1.007825032230
         H            1.184301523998     1.016411654961     2.022943194958     1.007825032230
         H            1.931147523998     2.176983654961     0.893957194958     1.007825032230
         H            0.161543523998     2.142672654961     1.093050194958     1.007825032230
         H           -2.711658476002    -1.469150345039    -1.005466805042     1.007825032230
         H           -2.308453476002    -1.669515345039     0.695472194958     1.007825032230
         H           -3.813033476002     0.255792654961     1.287909194958     1.007825032230
         H           -4.144110476002     0.522388654961    -0.426468805042     1.007825032230
         H           -4.716896476002    -0.961269345039     0.370053194958     1.007825032230
         H            2.996099523998    -1.904062345039     0.383915194958     1.007825032230

  Basis Set: AUG-CC-PVTZ
    Blend: AUG-CC-PVTZ
  Basis Set: (AUG-CC-PVTZ AUX)
    Blend: AUG-CC-PVTZ-JKFIT
	 Reference Energy          =    -512.8855366621100984 [Eh]
	 Singles Energy            =      -0.0000000000000000 [Eh]
	 Same-Spin Energy          =      -0.5102703589372350 [Eh]
	 Opposite-Spin Energy      =      -1.6135053866074585 [Eh]
	 Correlation Energy        =      -2.1237757455446937 [Eh]
	 Total Energy              =    -515.0093124076547610 [Eh]

	 ================> DF-SCS-MP2 Energies <==================
	-----------------------------------------------------------
	 SCS Same-Spin Scale       =       0.3333333333333333 [-]
	 SCS Opposite-Spin Scale   =       1.2000000000000000 [-]
	 SCS Same-Spin Energy      =      -0.1700901196457450 [Eh]
	 SCS Opposite-Spin Energy  =      -1.9362064639289500 [Eh]
	 SCS Correlation Energy    =      -2.1062965835746952 [Eh]
	 SCS Total Energy          =    -514.9918332456848020 [Eh]
	-----------------------------------------------------------

  Dipole Moment: [D]
     X:     0.4244      Y:    -3.1345      Z:     2.0949     Total:     3.7939

*** Psi4 exiting successfully. Buy a developer a beer!
