                               Psi4 1.3.2 release

  ==> Input File <==

--------------------------------------------------------------------------
#psi4
#
memory 32 gb

molecule  {
0 1
  O       -1.9756670     1.6664010     0.1857370
  O        1.6511300    -1.1930600    -0.6768240
  O       -3.2820610    -0.0444860    -0.5140140
  N        0.2152580     0.2772540     0.2951010
  C       -0.9757336    -0.4523122    -0.0861348
  C       -1.2010820    -1.6869190     0.8036840
  C        2.5941300     0.7851170     0.3678910
  C        1.4833734    -0.0983880    -0.0434451
  C       -2.1892550     0.3702600    -0.1810000
  C        3.9493650     0.2879730    -0.1118860
  H       -0.7666830    -0.8628490    -1.1247510
  H        0.0773990     1.1958980     0.6978160
  H       -1.3680630    -1.3508140     1.8303240
  H       -2.0758160    -2.2433210     0.4601180
  H       -0.3237180    -2.3338760     0.7750620
  H        2.3897550     1.7945520    -0.0146150
  H        2.5759940     0.8629050     1.4619760
  H        4.1547340    -0.7097650     0.2816620
  H        3.9712690     0.2233490    -1.2012200
  H        4.7420490     0.9661550     0.2171920
  H       -2.8492950     2.1039740     0.1058080
units angstrom
no_reorient  #important for SAPT in psi4, default
symmetry c1  #important for SAPT in psi4, default
}

set PROPERTIES_ORIGIN ["COM"]
properties('MP2/aug-cc-pvtz', properties = ['dipole'])
--------------------------------------------------------------------------

    Molecular point group: c1
  Charge       = 0
  Multiplicity = 1
  Basis Set: AUG-CC-PVTZ
    Blend: AUG-CC-PVTZ
  Basis Set: (AUG-CC-PVTZ AUX)
    Blend: AUG-CC-PVTZ-JKFIT

    Orbital Energies [Eh]
    ---------------------

    Doubly Occupied:

       1A    -20.636034     2A    -20.564167     3A    -20.519074
       4A    -15.595995     5A    -11.405199     6A    -11.360214
       7A    -11.298064     8A    -11.250244     9A    -11.228176
      10A    -11.221866    11A     -1.479991    12A     -1.374578
      13A     -1.358319    14A     -1.240746    15A     -1.083205
      16A     -1.041082    17A     -0.933046    18A     -0.895498
      19A     -0.813060    20A     -0.791813    21A     -0.735561
      22A     -0.714957    23A     -0.684445    24A     -0.666989
      25A     -0.644903    26A     -0.628761    27A     -0.611330
      28A     -0.594968    29A     -0.573846    30A     -0.548963
      31A     -0.544059    32A     -0.526755    33A     -0.518700
      34A     -0.516841    35A     -0.498466    36A     -0.479134
      37A     -0.470519    38A     -0.429495    39A     -0.395535

  @DF-RHF Final Energy:  -512.87487774379474

   => Energetics <=

    Nuclear Repulsion Energy =            548.1507431353292077
    One-Electron Energy =               -1788.3020489750815614
    Two-Electron Energy =                 727.2764280959574990
    Total Energy =                       -512.8748777437947410
  Basis Set: (AUG-CC-PVTZ AUX)
    Blend: AUG-CC-PVTZ-RI
    Molecular point group: c1

    Geometry (in Angstrom), charge = 0, multiplicity = 1:

       Center              X                  Y                   Z               Mass
    ------------   -----------------  -----------------  -----------------  -----------------
         O           -1.974747635632     1.660513541296     0.181864476153    15.994914619570
         O            1.652049364368    -1.198947458704    -0.680696523847    15.994914619570
         O           -3.281141635632    -0.050373458704    -0.517886523847    15.994914619570
         N            0.216177364368     0.271366541296     0.291228476153    14.003074004430
         C           -0.974814235632    -0.458199658704    -0.090007323847    12.000000000000
         C           -1.200162635632    -1.692806458704     0.799811476153    12.000000000000
         C            2.595049364368     0.779229541296     0.364018476153    12.000000000000
         C            1.484292764368    -0.104275458704    -0.047317623847    12.000000000000
         C           -2.188335635632     0.364372541296    -0.184872523847    12.000000000000
         C            3.950284364368     0.282085541296    -0.115758523847    12.000000000000
         H           -0.765763635632    -0.868736458704    -1.128623523847     1.007825032230
         H            0.078318364368     1.190010541296     0.693943476153     1.007825032230
         H           -1.367143635632    -1.356701458704     1.826451476153     1.007825032230
         H           -2.074896635632    -2.249208458704     0.456245476153     1.007825032230
         H           -0.322798635632    -2.339763458704     0.771189476153     1.007825032230
         H            2.390674364368     1.788664541296    -0.018487523847     1.007825032230
         H            2.576913364368     0.857017541296     1.458103476153     1.007825032230
         H            4.155653364368    -0.715652458704     0.277789476153     1.007825032230
         H            3.972188364368     0.217461541296    -1.205092523847     1.007825032230
         H            4.742968364368     0.960267541296     0.213319476153     1.007825032230
         H           -2.848375635632     2.098086541296     0.101935476153     1.007825032230

  Basis Set: AUG-CC-PVTZ
    Blend: AUG-CC-PVTZ
  Basis Set: (AUG-CC-PVTZ AUX)
    Blend: AUG-CC-PVTZ-JKFIT
	 Reference Energy          =    -512.8748777437947410 [Eh]
	 Singles Energy            =      -0.0000000000000000 [Eh]
	 Same-Spin Energy          =      -0.5130156268358350 [Eh]
	 Opposite-Spin Energy      =      -1.6178877888819980 [Eh]
	 Correlation Energy        =      -2.1309034157178330 [Eh]
	 Total Energy              =    -515.0057811595125941 [Eh]

	 ================> DF-SCS-MP2 Energies <==================
	-----------------------------------------------------------
	 SCS Same-Spin Scale       =       0.3333333333333333 [-]
	 SCS Opposite-Spin Scale   =       1.2000000000000000 [-]
	 SCS Same-Spin Energy      =      -0.1710052089452783 [Eh]
	 SCS Opposite-Spin Energy  =      -1.9414653466583975 [Eh]
	 SCS Correlation Energy    =      -2.1124705556036760 [Eh]
	 SCS Total Energy          =    -514.9873482993983771 [Eh]
	-----------------------------------------------------------

  Dipole Moment: [D]
     X:     0.0387      Y:     3.4768      Z:     2.0799     Total:     4.0517

*** Psi4 exiting successfully. Buy a developer a beer!
