                               Psi4 1.3.2 release

  ==> Input File <==

--------------------------------------------------------------------------
#psi4
#
memory 32 gb

molecule  {
0 1
  O       -1.9756670     1.6664010     0.1857370
  O        1.6511300    -1.1930600    -0.6768240
  O       -3.2820610    -0.0444860    -0.5140140
  N        0.2152580     0.2772540     0.2951010
  C       -0.9464590    -0.4858680    -0.1100250
  C       -1.2010820    -1.6869190     0.8036840
  C        2.5941300     0.7851170     0.3678910
  C        1.6483265    -0.1965493    -0.1193287
  C       -2.1892550     0.3702600    -0.1810000
  C        3.9493650     0.2879730    -0.1118860
  H       -0.7666830    -0.8628490    -1.1247510
  H        0.0773990     1.1958980     0.6978160
  H       -1.3680630    -1.3508140     1.8303240
  H       -2.0758160    -2.2433210     0.4601180
  H       -0.3237180    -2.3338760     0.7750620
  H        2.3897550     1.7945520    -0.0146150
  H        2.5759940     0.8629050     1.4619760
  H        4.1547340    -0.7097650     0.2816620
  H        3.9712690     0.2233490    -1.2012200
  H        4.7420490     0.9661550     0.2171920
  H       -2.8492950     2.1039740     0.1058080
units angstrom
no_reorient  #important for SAPT in psi4, default
symmetry c1  #important for SAPT in psi4, default
}

set PROPERTIES_ORIGIN ["COM"]
properties('MP2/aug-cc-pvtz', properties = ['dipole'])
--------------------------------------------------------------------------

    Molecular point group: c1
  Charge       = 0
  Multiplicity = 1
  Basis Set: AUG-CC-PVTZ
    Blend: AUG-CC-PVTZ
  Basis Set: (AUG-CC-PVTZ AUX)
    Blend: AUG-CC-PVTZ-JKFIT

    Orbital Energies [Eh]
    ---------------------

    Doubly Occupied:

       1A    -20.622220     2A    -20.562035     3A    -20.551027
       4A    -15.550074     5A    -11.390628     6A    -11.368576
       7A    -11.277716     8A    -11.256422     9A    -11.230711
      10A    -11.214816    11A     -1.464865    12A     -1.458602
      13A     -1.360671    14A     -1.192826    15A     -1.092697
      16A     -1.013427    17A     -0.915631    18A     -0.890792
      19A     -0.798599    20A     -0.764119    21A     -0.728557
      22A     -0.700413    23A     -0.684602    24A     -0.670440
      25A     -0.661053    26A     -0.640777    27A     -0.605036
      28A     -0.595732    29A     -0.576425    30A     -0.549620
      31A     -0.541362    32A     -0.535196    33A     -0.528400
      34A     -0.516403    35A     -0.512666    36A     -0.483098
      37A     -0.464231    38A     -0.425392    39A     -0.371311

  @DF-RHF Final Energy:  -512.84785211385577

   => Energetics <=

    Nuclear Repulsion Energy =            547.3683313707878142
    One-Electron Energy =               -1786.8980270022623245
    Two-Electron Energy =                 726.6818435176188586
    Total Energy =                       -512.8478521138557653
  Basis Set: (AUG-CC-PVTZ AUX)
    Blend: AUG-CC-PVTZ-RI
    Molecular point group: c1

    Geometry (in Angstrom), charge = 0, multiplicity = 1:

       Center              X                  Y                   Z               Mass
    ------------   -----------------  -----------------  -----------------  -----------------
         O           -1.990813464902     1.671408714541     0.190117412456    15.994914619570
         O            1.635983535098    -1.188052285459    -0.672443587544    15.994914619570
         O           -3.297207464902    -0.039478285459    -0.509633587544    15.994914619570
         N            0.200111535098     0.282261714541     0.299481412456    14.003074004430
         C           -0.961605464902    -0.480860285459    -0.105644587544    12.000000000000
         C           -1.216228464902    -1.681911285459     0.808064412456    12.000000000000
         C            2.578983535098     0.790124714541     0.372271412456    12.000000000000
         C            1.633180035098    -0.191541585459    -0.114948287544    12.000000000000
         C           -2.204401464902     0.375267714541    -0.176619587544    12.000000000000
         C            3.934218535098     0.292980714541    -0.107505587544    12.000000000000
         H           -0.781829464902    -0.857841285459    -1.120370587544     1.007825032230
         H            0.062252535098     1.200905714541     0.702196412456     1.007825032230
         H           -1.383209464902    -1.345806285459     1.834704412456     1.007825032230
         H           -2.090962464902    -2.238313285459     0.464498412456     1.007825032230
         H           -0.338864464902    -2.328868285459     0.779442412456     1.007825032230
         H            2.374608535098     1.799559714541    -0.010234587544     1.007825032230
         H            2.560847535098     0.867912714541     1.466356412456     1.007825032230
         H            4.139587535098    -0.704757285459     0.286042412456     1.007825032230
         H            3.956122535098     0.228356714541    -1.196839587544     1.007825032230
         H            4.726902535098     0.971162714541     0.221572412456     1.007825032230
         H           -2.864441464902     2.108981714541     0.110188412456     1.007825032230

  Basis Set: AUG-CC-PVTZ
    Blend: AUG-CC-PVTZ
  Basis Set: (AUG-CC-PVTZ AUX)
    Blend: AUG-CC-PVTZ-JKFIT
	 Reference Energy          =    -512.8478521138557653 [Eh]
	 Singles Energy            =      -0.0000000000000000 [Eh]
	 Same-Spin Energy          =      -0.5112623308533443 [Eh]
	 Opposite-Spin Energy      =      -1.6149253838427085 [Eh]
	 Correlation Energy        =      -2.1261877146960528 [Eh]
	 Total Energy              =    -514.9740398285517813 [Eh]

	 ================> DF-SCS-MP2 Energies <==================
	-----------------------------------------------------------
	 SCS Same-Spin Scale       =       0.3333333333333333 [-]
	 SCS Opposite-Spin Scale   =       1.2000000000000000 [-]
	 SCS Same-Spin Energy      =      -0.1704207769511147 [Eh]
	 SCS Opposite-Spin Energy  =      -1.9379104606112501 [Eh]
	 SCS Correlation Energy    =      -2.1083312375623646 [Eh]
	 SCS Total Energy          =    -514.9561833514180762 [Eh]
	-----------------------------------------------------------

  Dipole Moment: [D]
     X:     1.8751      Y:     2.9028      Z:     1.4889     Total:     3.7629

*** Psi4 exiting successfully. Buy a developer a beer!
