                               Psi4 1.3.2 release

  ==> Input File <==

--------------------------------------------------------------------------
#psi4
#
memory 32 gb

molecule  {
0 1
  O       -1.9756670     1.6664010     0.1857370
  O        1.6511300    -1.1930600    -0.6768240
  O       -3.2820610    -0.0444860    -0.5140140
  N        0.2347830     0.3155138     0.3157349
  C       -0.9464590    -0.4858680    -0.1100250
  C       -1.2010820    -1.6869190     0.8036840
  C        2.5581662     0.8171739     0.3901438
  C        1.4652130    -0.1360080    -0.0663740
  C       -2.1892550     0.3702600    -0.1810000
  C        3.9493650     0.2879730    -0.1118860
  H       -0.7666830    -0.8628490    -1.1247510
  H        0.0773990     1.1958980     0.6978160
  H       -1.3680630    -1.3508140     1.8303240
  H       -2.0758160    -2.2433210     0.4601180
  H       -0.3237180    -2.3338760     0.7750620
  H        2.3897550     1.7945520    -0.0146150
  H        2.5759940     0.8629050     1.4619760
  H        4.1547340    -0.7097650     0.2816620
  H        3.9712690     0.2233490    -1.2012200
  H        4.7420490     0.9661550     0.2171920
  H       -2.8492950     2.1039740     0.1058080
units angstrom
no_reorient  #important for SAPT in psi4, default
symmetry c1  #important for SAPT in psi4, default
}

set PROPERTIES_ORIGIN ["COM"]
properties('MP2/aug-cc-pvtz', properties = ['dipole'])
--------------------------------------------------------------------------

    Molecular point group: c1
  Charge       = 0
  Multiplicity = 1
  Basis Set: AUG-CC-PVTZ
    Blend: AUG-CC-PVTZ
  Basis Set: (AUG-CC-PVTZ AUX)
    Blend: AUG-CC-PVTZ-JKFIT

    Orbital Energies [Eh]
    ---------------------

    Doubly Occupied:

       1A    -20.636011     2A    -20.563999     3A    -20.527970
       4A    -15.590474     5A    -11.404779     6A    -11.357359
       7A    -11.299150     8A    -11.242733     9A    -11.228483
      10A    -11.220055    11A     -1.478457    12A     -1.380406
      13A     -1.373722    14A     -1.243435    15A     -1.073694
      16A     -1.030881    17A     -0.926904    18A     -0.884615
      19A     -0.819649    20A     -0.798577    21A     -0.727756
      22A     -0.716034    23A     -0.678744    24A     -0.666156
      25A     -0.644694    26A     -0.634084    27A     -0.610909
      28A     -0.605140    29A     -0.578357    30A     -0.546050
      31A     -0.543269    32A     -0.522300    33A     -0.521309
      34A     -0.505130    35A     -0.503028    36A     -0.491009
      37A     -0.467685    38A     -0.429333    39A     -0.404373

  @DF-RHF Final Energy:  -512.88052157524726

   => Energetics <=

    Nuclear Repulsion Energy =            547.4592195817550646
    One-Electron Energy =               -1786.9260576378073893
    Two-Electron Energy =                 726.5863164808051806
    Total Energy =                       -512.8805215752472577
  Basis Set: (AUG-CC-PVTZ AUX)
    Blend: AUG-CC-PVTZ-RI
    Molecular point group: c1

    Geometry (in Angstrom), charge = 0, multiplicity = 1:

       Center              X                  Y                   Z               Mass
    ------------   -----------------  -----------------  -----------------  -----------------
         O           -1.974576790420     1.660056339732     0.181904852620    15.994914619570
         O            1.652220209580    -1.199404660268    -0.680656147380    15.994914619570
         O           -3.280970790420    -0.050830660268    -0.517846147380    15.994914619570
         N            0.235873209580     0.309169139732     0.311902752620    14.003074004430
         C           -0.945368790420    -0.492212660268    -0.113857147380    12.000000000000
         C           -1.199991790420    -1.693263660268     0.799851852620    12.000000000000
         C            2.559256409580     0.810829239732     0.386311652620    12.000000000000
         C            1.466303209580    -0.142352660268    -0.070206147380    12.000000000000
         C           -2.188164790420     0.363915339732    -0.184832147380    12.000000000000
         C            3.950455209580     0.281628339732    -0.115718147380    12.000000000000
         H           -0.765592790420    -0.869193660268    -1.128583147380     1.007825032230
         H            0.078489209580     1.189553339732     0.693983852620     1.007825032230
         H           -1.366972790420    -1.357158660268     1.826491852620     1.007825032230
         H           -2.074725790420    -2.249665660268     0.456285852620     1.007825032230
         H           -0.322627790420    -2.340220660268     0.771229852620     1.007825032230
         H            2.390845209580     1.788207339732    -0.018447147380     1.007825032230
         H            2.577084209580     0.856560339732     1.458143852620     1.007825032230
         H            4.155824209580    -0.716109660268     0.277829852620     1.007825032230
         H            3.972359209580     0.217004339732    -1.205052147380     1.007825032230
         H            4.743139209580     0.959810339732     0.213359852620     1.007825032230
         H           -2.848204790420     2.097629339732     0.101975852620     1.007825032230

  Basis Set: AUG-CC-PVTZ
    Blend: AUG-CC-PVTZ
  Basis Set: (AUG-CC-PVTZ AUX)
    Blend: AUG-CC-PVTZ-JKFIT
	 Reference Energy          =    -512.8805215752472577 [Eh]
	 Singles Energy            =      -0.0000000000000000 [Eh]
	 Same-Spin Energy          =      -0.5109181377242047 [Eh]
	 Opposite-Spin Energy      =      -1.6149506472046231 [Eh]
	 Correlation Energy        =      -2.1258687849288278 [Eh]
	 Total Energy              =    -515.0063903601760558 [Eh]

	 ================> DF-SCS-MP2 Energies <==================
	-----------------------------------------------------------
	 SCS Same-Spin Scale       =       0.3333333333333333 [-]
	 SCS Opposite-Spin Scale   =       1.2000000000000000 [-]
	 SCS Same-Spin Energy      =      -0.1703060459080682 [Eh]
	 SCS Opposite-Spin Energy  =      -1.9379407766455476 [Eh]
	 SCS Correlation Energy    =      -2.1082468225536157 [Eh]
	 SCS Total Energy          =    -514.9887683978008681 [Eh]
	-----------------------------------------------------------

  Dipole Moment: [D]
     X:    -0.1512      Y:     3.2247      Z:     1.9318     Total:     3.7620

*** Psi4 exiting successfully. Buy a developer a beer!
