                               Psi4 1.4a3.dev225

  ==> Input File <==

--------------------------------------------------------------------------
#psi4
#
memory 32 gb

molecule  {
0 1
  O        2.1858500    -1.4843500     0.4466430
  O       -1.5901990     1.2021140    -0.7742790
  O        3.2899360     0.0893000    -0.7567370
  N       -0.1552130    -0.3501220     0.0655300
  C        0.9973750     0.5138300    -0.1038320
  C        1.1411532     1.5664564     1.0702486
  C       -2.5208420    -0.9251940    -0.0919400
  C       -1.4008270     0.0814870    -0.2899980
  C        2.2713450    -0.2912280    -0.2118740
  C       -3.8280260    -0.2360070     0.2837800
  H        0.8752740     1.0541530    -1.0466610
  H       -0.0274960    -1.2421660     0.5250420
  H        1.2555520     1.0181310     1.9903510
  H        2.0023980     2.1787030     0.8613650
  H        0.2327940     2.1443920     1.0604580
  H       -2.6404080    -1.4674310    -1.0380590
  H       -2.2372030    -1.6677960     0.6628800
  H       -3.7417830     0.2575120     1.2553170
  H       -4.0728600     0.5241080    -0.4590610
  H       -4.6456460    -0.9595500     0.3374610
  H        3.0673500    -1.9023430     0.3513230
units angstrom
no_reorient  #important for SAPT in psi4, default
symmetry c1  #important for SAPT in psi4, default
}

set PROPERTIES_ORIGIN ["COM"]
properties('MP2/aug-cc-pvtz', properties = ['dipole'])
--------------------------------------------------------------------------

    Molecular point group: c1
  Charge       = 0
  Multiplicity = 1
  Basis Set: AUG-CC-PVTZ
    Blend: AUG-CC-PVTZ
  Basis Set: (AUG-CC-PVTZ AUX)
    Blend: AUG-CC-PVTZ-JKFIT

    Orbital Energies [Eh]
    ---------------------

    Doubly Occupied:

       1A    -20.634167     2A    -20.564617     3A    -20.522685
       4A    -15.596224     5A    -11.403636     6A    -11.356843
       7A    -11.297834     8A    -11.247755     9A    -11.232511
      10A    -11.222429    11A     -1.476118    12A     -1.379413
      13A     -1.372279    14A     -1.244799    15A     -1.073077
      16A     -1.034338    17A     -0.930377    18A     -0.886397
      19A     -0.822287    20A     -0.794432    21A     -0.726503
      22A     -0.714086    23A     -0.679815    24A     -0.659049
      25A     -0.641796    26A     -0.634079    27A     -0.610815
      28A     -0.599740    29A     -0.580315    30A     -0.561509
      31A     -0.551303    32A     -0.533412    33A     -0.523417
      34A     -0.512933    35A     -0.498385    36A     -0.485952
      37A     -0.469469    38A     -0.427750    39A     -0.397498

  @DF-RHF Final Energy:  -512.88464909877439

   => Energetics <=

    Nuclear Repulsion Energy =            546.9445885220009131
    One-Electron Energy =               -1785.8583874419664426
    Two-Electron Energy =                 726.0291498211911403
    Total Energy =                       -512.8846490987743891
  Basis Set: (AUG-CC-PVTZ AUX)
    Blend: AUG-CC-PVTZ-RI
    Molecular point group: c1

    Geometry (in Angstrom), charge = 0, multiplicity = 1:

       Center              X                  Y                   Z               Mass
    ------------   -----------------  -----------------  -----------------  -----------------
         O            2.117687735047    -1.487524790918     0.474315690944    15.994914619570
         O           -1.658361264953     1.198939209082    -0.746606309056    15.994914619570
         O            3.221773735047     0.086125209082    -0.729064309056    15.994914619570
         N           -0.223375264953    -0.353296790918     0.093202690944    14.003074004430
         C            0.929212735047     0.510655209082    -0.076159309056    12.000000000000
         C            1.072990935047     1.563281609082     1.097921290944    12.000000000000
         C           -2.589004264953    -0.928368790918    -0.064267309056    12.000000000000
         C           -1.468989264953     0.078312209082    -0.262325309056    12.000000000000
         C            2.203182735047    -0.294402790918    -0.184201309056    12.000000000000
         C           -3.896188264953    -0.239181790918     0.311452690944    12.000000000000
         H            0.807111735047     1.050978209082    -1.018988309056     1.007825032230
         H           -0.095658264953    -1.245340790918     0.552714690944     1.007825032230
         H            1.187389735047     1.014956209082     2.018023690944     1.007825032230
         H            1.934235735047     2.175528209082     0.889037690944     1.007825032230
         H            0.164631735047     2.141217209082     1.088130690944     1.007825032230
         H           -2.708570264953    -1.470605790918    -1.010386309056     1.007825032230
         H           -2.305365264953    -1.670970790918     0.690552690944     1.007825032230
         H           -3.809945264953     0.254337209082     1.282989690944     1.007825032230
         H           -4.141022264953     0.520933209082    -0.431388309056     1.007825032230
         H           -4.713808264953    -0.962724790918     0.365133690944     1.007825032230
         H            2.999187735047    -1.905517790918     0.378995690944     1.007825032230

  Basis Set: AUG-CC-PVTZ
    Blend: AUG-CC-PVTZ
  Basis Set: (AUG-CC-PVTZ AUX)
    Blend: AUG-CC-PVTZ-JKFIT
	 Reference Energy          =    -512.8846490987743891 [Eh]
	 Singles Energy            =      -0.0000000000000000 [Eh]
	 Same-Spin Energy          =      -0.5109974851295130 [Eh]
	 Opposite-Spin Energy      =      -1.6150098217054387 [Eh]
	 Correlation Energy        =      -2.1260073068349516 [Eh]
	 Total Energy              =    -515.0106564056093248 [Eh]

	 ================> DF-SCS-MP2 Energies <==================
	-----------------------------------------------------------
	 SCS Same-Spin Scale       =       0.3333333333333333 [-]
	 SCS Opposite-Spin Scale   =       1.2000000000000000 [-]
	 SCS Same-Spin Energy      =      -0.1703324950431710 [Eh]
	 SCS Opposite-Spin Energy  =      -1.9380117860465265 [Eh]
	 SCS Correlation Energy    =      -2.1083442810896975 [Eh]
	 SCS Total Energy          =    -514.9929933798640604 [Eh]
	-----------------------------------------------------------

  Dipole Moment: [D]
     X:     0.1193      Y:    -3.2919      Z:     2.2945     Total:     4.0144

*** Psi4 exiting successfully. Buy a developer a beer!
