                               Psi4 1.3.2 release

  ==> Input File <==

--------------------------------------------------------------------------
#psi4
#
memory 32 gb

molecule  {
0 1
  O       -1.9756670     1.6664010     0.1857370
  O        1.6511300    -1.1930600    -0.6768240
  O       -3.2820610    -0.0444860    -0.5140140
  N        0.2152580     0.2772540     0.2951010
  C       -0.9253382    -0.4792630    -0.0950667
  C       -1.2010820    -1.6869190     0.8036840
  C        2.5941300     0.7851170     0.3678910
  C        1.4652130    -0.1360080    -0.0663740
  C       -2.1892550     0.3702600    -0.1810000
  C        3.9493650     0.2879730    -0.1118860
  H       -0.7666830    -0.8628490    -1.1247510
  H        0.0773990     1.1958980     0.6978160
  H       -1.3680630    -1.3508140     1.8303240
  H       -2.0734457    -2.2556024     0.4745014
  H       -0.3237180    -2.3338760     0.7750620
  H        2.3897550     1.7945520    -0.0146150
  H        2.5759940     0.8629050     1.4619760
  H        4.1547340    -0.7097650     0.2816620
  H        3.9712690     0.2233490    -1.2012200
  H        4.7420490     0.9661550     0.2171920
  H       -2.8492950     2.1039740     0.1058080
units angstrom
no_reorient  #important for SAPT in psi4, default
symmetry c1  #important for SAPT in psi4, default
}

set PROPERTIES_ORIGIN ["COM"]
properties('MP2/aug-cc-pvtz', properties = ['dipole'])
--------------------------------------------------------------------------

    Molecular point group: c1
  Charge       = 0
  Multiplicity = 1
  Basis Set: AUG-CC-PVTZ
    Blend: AUG-CC-PVTZ
  Basis Set: (AUG-CC-PVTZ AUX)
    Blend: AUG-CC-PVTZ-JKFIT

    Orbital Energies [Eh]
    ---------------------

    Doubly Occupied:

       1A    -20.635083     2A    -20.563410     3A    -20.525887
       4A    -15.593496     5A    -11.404440     6A    -11.357284
       7A    -11.296502     8A    -11.248337     9A    -11.225862
      10A    -11.220056    11A     -1.477526    12A     -1.382486
      13A     -1.372648    14A     -1.251275    15A     -1.074535
      16A     -1.034611    17A     -0.927095    18A     -0.885891
      19A     -0.816337    20A     -0.794642    21A     -0.731954
      22A     -0.714051    23A     -0.684892    24A     -0.664366
      25A     -0.641831    26A     -0.633613    27A     -0.608385
      28A     -0.603572    29A     -0.584100    30A     -0.545584
      31A     -0.541768    32A     -0.526509    33A     -0.520377
      34A     -0.518261    35A     -0.497678    36A     -0.487802
      37A     -0.465413    38A     -0.430045    39A     -0.400380

  @DF-RHF Final Energy:  -512.88488571014091

   => Energetics <=

    Nuclear Repulsion Energy =            548.3755933687469906
    One-Electron Energy =               -1788.7449951683718155
    Two-Electron Energy =                 727.4845160894840319
    Total Energy =                       -512.8848857101409067
  Basis Set: (AUG-CC-PVTZ AUX)
    Blend: AUG-CC-PVTZ-RI
    Molecular point group: c1

    Geometry (in Angstrom), charge = 0, multiplicity = 1:

       Center              X                  Y                   Z               Mass
    ------------   -----------------  -----------------  -----------------  -----------------
         O           -1.977430467388     1.665939928393     0.184399967834    15.994914619570
         O            1.649366532612    -1.193521071607    -0.678161032166    15.994914619570
         O           -3.283824467388    -0.044947071607    -0.515351032166    15.994914619570
         N            0.213494532612     0.276792928393     0.293763967834    14.003074004430
         C           -0.927101667388    -0.479724071607    -0.096403732166    12.000000000000
         C           -1.202845467388    -1.687380071607     0.802346967834    12.000000000000
         C            2.592366532612     0.784655928393     0.366553967834    12.000000000000
         C            1.463449532612    -0.136469071607    -0.067711032166    12.000000000000
         C           -2.191018467388     0.369798928393    -0.182337032166    12.000000000000
         C            3.947601532612     0.287511928393    -0.113223032166    12.000000000000
         H           -0.768446467388    -0.863310071607    -1.126088032166     1.007825032230
         H            0.075635532612     1.195436928393     0.696478967834     1.007825032230
         H           -1.369826467388    -1.351275071607     1.828986967834     1.007825032230
         H           -2.075209167388    -2.256063471607     0.473164367834     1.007825032230
         H           -0.325481467388    -2.334337071607     0.773724967834     1.007825032230
         H            2.387991532612     1.794090928393    -0.015952032166     1.007825032230
         H            2.574230532612     0.862443928393     1.460638967834     1.007825032230
         H            4.152970532612    -0.710226071607     0.280324967834     1.007825032230
         H            3.969505532612     0.222887928393    -1.202557032166     1.007825032230
         H            4.740285532612     0.965693928393     0.215854967834     1.007825032230
         H           -2.851058467388     2.103512928393     0.104470967834     1.007825032230

  Basis Set: AUG-CC-PVTZ
    Blend: AUG-CC-PVTZ
  Basis Set: (AUG-CC-PVTZ AUX)
    Blend: AUG-CC-PVTZ-JKFIT
	 Reference Energy          =    -512.8848857101409067 [Eh]
	 Singles Energy            =      -0.0000000000000000 [Eh]
	 Same-Spin Energy          =      -0.5115540193064105 [Eh]
	 Opposite-Spin Energy      =      -1.6150620350292064 [Eh]
	 Correlation Energy        =      -2.1266160543356172 [Eh]
	 Total Energy              =    -515.0115017644765203 [Eh]

	 ================> DF-SCS-MP2 Energies <==================
	-----------------------------------------------------------
	 SCS Same-Spin Scale       =       0.3333333333333333 [-]
	 SCS Opposite-Spin Scale   =       1.2000000000000000 [-]
	 SCS Same-Spin Energy      =      -0.1705180064354702 [Eh]
	 SCS Opposite-Spin Energy  =      -1.9380744420350475 [Eh]
	 SCS Correlation Energy    =      -2.1085924484705179 [Eh]
	 SCS Total Energy          =    -514.9934781586114241 [Eh]
	-----------------------------------------------------------

  Dipole Moment: [D]
     X:     0.0295      Y:     3.3337      Z:     1.9724     Total:     3.8736

*** Psi4 exiting successfully. Buy a developer a beer!
