                               Psi4 1.3.2 release

  ==> Input File <==

--------------------------------------------------------------------------
#psi4
#
memory 32 gb

molecule  {
0 1
  O       -1.9756670     1.6664010     0.1857370
  O        1.6511300    -1.1930600    -0.6768240
  O       -3.2820610    -0.0444860    -0.5140140
  N        0.2152580     0.2772540     0.2951010
  C       -0.9464590    -0.4858680    -0.1100250
  C       -1.2010820    -1.6869190     0.8036840
  C        2.5941300     0.7851170     0.3678910
  C        1.4141268    -0.0873066    -0.0295764
  C       -2.1892550     0.3702600    -0.1810000
  C        3.9826801     0.3511238    -0.0766071
  H       -0.7666830    -0.8628490    -1.1247510
  H        0.0773990     1.1958980     0.6978160
  H       -1.3680630    -1.3508140     1.8303240
  H       -2.0758160    -2.2433210     0.4601180
  H       -0.3237180    -2.3338760     0.7750620
  H        2.3897550     1.7945520    -0.0146150
  H        2.5759940     0.8629050     1.4619760
  H        4.1547340    -0.7097650     0.2816620
  H        3.9712690     0.2233490    -1.2012200
  H        4.7420490     0.9661550     0.2171920
  H       -2.8492950     2.1039740     0.1058080
units angstrom
no_reorient  #important for SAPT in psi4, default
symmetry c1  #important for SAPT in psi4, default
}

set PROPERTIES_ORIGIN ["COM"]
properties('MP2/aug-cc-pvtz', properties = ['dipole'])
--------------------------------------------------------------------------

    Molecular point group: c1
  Charge       = 0
  Multiplicity = 1
  Basis Set: AUG-CC-PVTZ
    Blend: AUG-CC-PVTZ
  Basis Set: (AUG-CC-PVTZ AUX)
    Blend: AUG-CC-PVTZ-JKFIT

    Orbital Energies [Eh]
    ---------------------

    Doubly Occupied:

       1A    -20.640989     2A    -20.568619     3A    -20.506977
       4A    -15.607911     5A    -11.410187     6A    -11.354949
       7A    -11.304122     8A    -11.248739     9A    -11.231161
      10A    -11.218912    11A     -1.483544    12A     -1.378480
      13A     -1.354344    14A     -1.250675    15A     -1.082195
      16A     -1.040005    17A     -0.934718    18A     -0.889626
      19A     -0.823959    20A     -0.809207    21A     -0.738787
      22A     -0.719327    23A     -0.681328    24A     -0.668087
      25A     -0.639827    26A     -0.634925    27A     -0.615763
      28A     -0.594075    29A     -0.581021    30A     -0.557031
      31A     -0.546555    32A     -0.532608    33A     -0.515395
      34A     -0.505026    35A     -0.494005    36A     -0.474719
      37A     -0.471612    38A     -0.416998    39A     -0.399011

  @DF-RHF Final Energy:  -512.86424025555573

   => Energetics <=

    Nuclear Repulsion Energy =            547.9047282095425544
    One-Electron Energy =               -1787.6870942493824259
    Two-Electron Energy =                 726.9181257842841433
    Total Energy =                       -512.8642402555557283
  Basis Set: (AUG-CC-PVTZ AUX)
    Blend: AUG-CC-PVTZ-RI
    Molecular point group: c1

    Geometry (in Angstrom), charge = 0, multiplicity = 1:

       Center              X                  Y                   Z               Mass
    ------------   -----------------  -----------------  -----------------  -----------------
         O           -1.974197000378     1.657148933170     0.179775273242    15.994914619570
         O            1.652599999622    -1.202312066830    -0.682785726758    15.994914619570
         O           -3.280591000378    -0.053738066830    -0.519975726758    15.994914619570
         N            0.216727999622     0.268001933170     0.289139273242    14.003074004430
         C           -0.944989000378    -0.495120066830    -0.115986726758    12.000000000000
         C           -1.199612000378    -1.696171066830     0.797722273242    12.000000000000
         C            2.595599999622     0.775864933170     0.361929273242    12.000000000000
         C            1.415596799622    -0.096558666830    -0.035538126758    12.000000000000
         C           -2.187785000378     0.361007933170    -0.186961726758    12.000000000000
         C            3.984150099622     0.341871733170    -0.082568826758    12.000000000000
         H           -0.765213000378    -0.872101066830    -1.130712726758     1.007825032230
         H            0.078868999622     1.186645933170     0.691854273242     1.007825032230
         H           -1.366593000378    -1.360066066830     1.824362273242     1.007825032230
         H           -2.074346000378    -2.252573066830     0.454156273242     1.007825032230
         H           -0.322248000378    -2.343128066830     0.769100273242     1.007825032230
         H            2.391224999622     1.785299933170    -0.020576726758     1.007825032230
         H            2.577463999622     0.853652933170     1.456014273242     1.007825032230
         H            4.156203999622    -0.719017066830     0.275700273242     1.007825032230
         H            3.972738999622     0.214096933170    -1.207181726758     1.007825032230
         H            4.743518999622     0.956902933170     0.211230273242     1.007825032230
         H           -2.847825000378     2.094721933170     0.099846273242     1.007825032230

  Basis Set: AUG-CC-PVTZ
    Blend: AUG-CC-PVTZ
  Basis Set: (AUG-CC-PVTZ AUX)
    Blend: AUG-CC-PVTZ-JKFIT
	 Reference Energy          =    -512.8642402555557283 [Eh]
	 Singles Energy            =      -0.0000000000000000 [Eh]
	 Same-Spin Energy          =      -0.5127052310932704 [Eh]
	 Opposite-Spin Energy      =      -1.6175659941871996 [Eh]
	 Correlation Energy        =      -2.1302712252804699 [Eh]
	 Total Energy              =    -514.9945114808361950 [Eh]

	 ================> DF-SCS-MP2 Energies <==================
	-----------------------------------------------------------
	 SCS Same-Spin Scale       =       0.3333333333333333 [-]
	 SCS Opposite-Spin Scale   =       1.2000000000000000 [-]
	 SCS Same-Spin Energy      =      -0.1709017436977568 [Eh]
	 SCS Opposite-Spin Energy  =      -1.9410791930246394 [Eh]
	 SCS Correlation Energy    =      -2.1119809367223961 [Eh]
	 SCS Total Energy          =    -514.9762211922781034 [Eh]
	-----------------------------------------------------------

  Dipole Moment: [D]
     X:    -0.6124      Y:     3.6142      Z:     2.2136     Total:     4.2822

*** Psi4 exiting successfully. Buy a developer a beer!
