                               Psi4 1.3.2 release

  ==> Input File <==

--------------------------------------------------------------------------
#psi4
#
memory 32 gb

molecule  {
0 1
  O       -1.9756670     1.6664010     0.1857370
  O        1.6511300    -1.1930600    -0.6768240
  O       -3.2820610    -0.0444860    -0.5140140
  N        0.2152580     0.2772540     0.2951010
  C       -0.9464590    -0.4858680    -0.1100250
  C       -1.2010820    -1.6869190     0.8036840
  C        2.5941300     0.7851170     0.3678910
  C        1.4312496    -0.0738359    -0.1026619
  C       -2.1892550     0.3702600    -0.1810000
  C        3.9493650     0.2879730    -0.1118860
  H       -0.7666830    -0.8628490    -1.1247510
  H        0.0773990     1.1958980     0.6978160
  H       -1.3680630    -1.3508140     1.8303240
  H       -2.0758160    -2.2433210     0.4601180
  H       -0.3237180    -2.3338760     0.7750620
  H        2.3413842     1.7741978    -0.0381603
  H        2.5759940     0.8629050     1.4619760
  H        4.1547340    -0.7097650     0.2816620
  H        3.9712690     0.2233490    -1.2012200
  H        4.7420490     0.9661550     0.2171920
  H       -2.8492950     2.1039740     0.1058080
units angstrom
no_reorient  #important for SAPT in psi4, default
symmetry c1  #important for SAPT in psi4, default
}

set PROPERTIES_ORIGIN ["COM"]
properties('MP2/aug-cc-pvtz', properties = ['dipole'])
--------------------------------------------------------------------------

    Molecular point group: c1
  Charge       = 0
  Multiplicity = 1
  Basis Set: AUG-CC-PVTZ
    Blend: AUG-CC-PVTZ
  Basis Set: (AUG-CC-PVTZ AUX)
    Blend: AUG-CC-PVTZ-JKFIT

    Orbital Energies [Eh]
    ---------------------

    Doubly Occupied:

       1A    -20.638700     2A    -20.566307     3A    -20.514191
       4A    -15.601148     5A    -11.407451     6A    -11.354635
       7A    -11.300515     8A    -11.248522     9A    -11.228764
      10A    -11.219066    11A     -1.481182    12A     -1.376213
      13A     -1.359859    14A     -1.250162    15A     -1.078670
      16A     -1.038137    17A     -0.930914    18A     -0.887736
      19A     -0.820691    20A     -0.800616    21A     -0.734540
      22A     -0.717108    23A     -0.680006    24A     -0.666430
      25A     -0.641820    26A     -0.633179    27A     -0.612699
      28A     -0.597069    29A     -0.576771    30A     -0.548747
      31A     -0.544188    32A     -0.525933    33A     -0.519974
      34A     -0.513290    35A     -0.499008    36A     -0.483171
      37A     -0.469941    38A     -0.421484    39A     -0.400255

  @DF-RHF Final Energy:  -512.87663088320141

   => Energetics <=

    Nuclear Repulsion Energy =            548.2994413510406275
    One-Electron Energy =               -1788.5739571858553063
    Two-Electron Energy =                 727.3978849516133778
    Total Energy =                       -512.8766308832014147
  Basis Set: (AUG-CC-PVTZ AUX)
    Blend: AUG-CC-PVTZ-RI
    Molecular point group: c1

    Geometry (in Angstrom), charge = 0, multiplicity = 1:

       Center              X                  Y                   Z               Mass
    ------------   -----------------  -----------------  -----------------  -----------------
         O           -1.972521599673     1.661399695720     0.188902362295    15.994914619570
         O            1.654275400327    -1.198061304280    -0.673658637705    15.994914619570
         O           -3.278915599673    -0.049487304280    -0.510848637705    15.994914619570
         N            0.218403400327     0.272252695720     0.298266362295    14.003074004430
         C           -0.943313599673    -0.490869304280    -0.106859637705    12.000000000000
         C           -1.197936599673    -1.691920304280     0.806849362295    12.000000000000
         C            2.597275400327     0.780115695720     0.371056362295    12.000000000000
         C            1.434395000327    -0.078837204280    -0.099496537705    12.000000000000
         C           -2.186109599673     0.365258695720    -0.177834637705    12.000000000000
         C            3.952510400327     0.282971695720    -0.108720637705    12.000000000000
         H           -0.763537599673    -0.867850304280    -1.121585637705     1.007825032230
         H            0.080544400327     1.190896695720     0.700981362295     1.007825032230
         H           -1.364917599673    -1.355815304280     1.833489362295     1.007825032230
         H           -2.072670599673    -2.248322304280     0.463283362295     1.007825032230
         H           -0.320572599673    -2.338877304280     0.778227362295     1.007825032230
         H            2.344529600327     1.769196495720    -0.034994937705     1.007825032230
         H            2.579139400327     0.857903695720     1.465141362295     1.007825032230
         H            4.157879400327    -0.714766304280     0.284827362295     1.007825032230
         H            3.974414400327     0.218347695720    -1.198054637705     1.007825032230
         H            4.745194400327     0.961153695720     0.220357362295     1.007825032230
         H           -2.846149599673     2.098972695720     0.108973362295     1.007825032230

  Basis Set: AUG-CC-PVTZ
    Blend: AUG-CC-PVTZ
  Basis Set: (AUG-CC-PVTZ AUX)
    Blend: AUG-CC-PVTZ-JKFIT
	 Reference Energy          =    -512.8766308832014147 [Eh]
	 Singles Energy            =      -0.0000000000000000 [Eh]
	 Same-Spin Energy          =      -0.5122886774506346 [Eh]
	 Opposite-Spin Energy      =      -1.6168232259036133 [Eh]
	 Correlation Energy        =      -2.1291119033542478 [Eh]
	 Total Energy              =    -515.0057427865556292 [Eh]

	 ================> DF-SCS-MP2 Energies <==================
	-----------------------------------------------------------
	 SCS Same-Spin Scale       =       0.3333333333333333 [-]
	 SCS Opposite-Spin Scale   =       1.2000000000000000 [-]
	 SCS Same-Spin Energy      =      -0.1707628924835448 [Eh]
	 SCS Opposite-Spin Energy  =      -1.9401878710843359 [Eh]
	 SCS Correlation Energy    =      -2.1109507635678808 [Eh]
	 SCS Total Energy          =    -514.9875816467692857 [Eh]
	-----------------------------------------------------------

  Dipole Moment: [D]
     X:    -0.3611      Y:     3.4772      Z:     2.0647     Total:     4.0601

*** Psi4 exiting successfully. Buy a developer a beer!
