                               Psi4 1.3.2 release

  ==> Input File <==

--------------------------------------------------------------------------
#psi4
#
memory 32 gb

molecule  {
0 1
  O       -1.9756670     1.6664010     0.1857370
  O        1.6511300    -1.1930600    -0.6768240
  O       -3.2820610    -0.0444860    -0.5140140
  N        0.2152580     0.2772540     0.2951010
  C       -0.9464590    -0.4858680    -0.1100250
  C       -1.2010820    -1.6869190     0.8036840
  C        2.5941300     0.7851170     0.3678910
  C        1.4652130    -0.1360080    -0.0663740
  C       -2.1777472     0.3678833    -0.1791090
  C        3.9493650     0.2879730    -0.1118860
  H       -0.7666830    -0.8628490    -1.1247510
  H        0.0773990     1.1958980     0.6978160
  H       -1.3680630    -1.3508140     1.8303240
  H       -2.0758160    -2.2433210     0.4601180
  H       -0.3237180    -2.3338760     0.7750620
  H        2.3897550     1.7945520    -0.0146150
  H        2.5759940     0.8629050     1.4619760
  H        4.1547340    -0.7097650     0.2816620
  H        3.9712690     0.2233490    -1.2012200
  H        4.7420490     0.9661550     0.2171920
  H       -2.8457975     2.1113440     0.1083851
units angstrom
no_reorient  #important for SAPT in psi4, default
symmetry c1  #important for SAPT in psi4, default
}

set PROPERTIES_ORIGIN ["COM"]
properties('MP2/aug-cc-pvtz', properties = ['dipole'])
--------------------------------------------------------------------------

    Molecular point group: c1
  Charge       = 0
  Multiplicity = 1
  Basis Set: AUG-CC-PVTZ
    Blend: AUG-CC-PVTZ
  Basis Set: (AUG-CC-PVTZ AUX)
    Blend: AUG-CC-PVTZ-JKFIT

    Orbital Energies [Eh]
    ---------------------

    Doubly Occupied:

       1A    -20.636039     2A    -20.562135     3A    -20.525085
       4A    -15.592951     5A    -11.405793     6A    -11.356610
       7A    -11.296982     8A    -11.247895     9A    -11.227618
      10A    -11.219766    11A     -1.476136    12A     -1.381125
      13A     -1.367635    14A     -1.246359    15A     -1.076253
      16A     -1.036818    17A     -0.929687    18A     -0.886226
      19A     -0.818131    20A     -0.792767    21A     -0.731410
      22A     -0.712817    23A     -0.683307    24A     -0.665377
      25A     -0.641279    26A     -0.631982    27A     -0.609169
      28A     -0.602835    29A     -0.581310    30A     -0.547143
      31A     -0.543820    32A     -0.524456    33A     -0.520759
      34A     -0.519454    35A     -0.496190    36A     -0.486686
      37A     -0.467965    38A     -0.429255    39A     -0.400899

  @DF-RHF Final Energy:  -512.88476671122396

   => Energetics <=

    Nuclear Repulsion Energy =            548.2347795199441407
    One-Electron Energy =               -1788.4828392141723725
    Two-Electron Energy =                 727.3632929830042713
    Total Energy =                       -512.8847667112239606
  Basis Set: (AUG-CC-PVTZ AUX)
    Blend: AUG-CC-PVTZ-RI
    Molecular point group: c1

    Geometry (in Angstrom), charge = 0, multiplicity = 1:

       Center              X                  Y                   Z               Mass
    ------------   -----------------  -----------------  -----------------  -----------------
         O           -1.976643144617     1.666546345063     0.185562866829    15.994914619570
         O            1.650153855383    -1.192914654937    -0.676998133171    15.994914619570
         O           -3.283037144617    -0.044340654937    -0.514188133171    15.994914619570
         N            0.214281855383     0.277399345063     0.294926866829    14.003074004430
         C           -0.947435144617    -0.485722654937    -0.110199133171    12.000000000000
         C           -1.202058144617    -1.686773654937     0.803509866829    12.000000000000
         C            2.593153855383     0.785262345063     0.367716866829    12.000000000000
         C            1.464236855383    -0.135862654937    -0.066548133171    12.000000000000
         C           -2.178723344617     0.368028645063    -0.179283133171    12.000000000000
         C            3.948388855383     0.288118345063    -0.112060133171    12.000000000000
         H           -0.767659144617    -0.862703654937    -1.124925133171     1.007825032230
         H            0.076422855383     1.196043345063     0.697641866829     1.007825032230
         H           -1.369039144617    -1.350668654937     1.830149866829     1.007825032230
         H           -2.076792144617    -2.243175654937     0.459943866829     1.007825032230
         H           -0.324694144617    -2.333730654937     0.774887866829     1.007825032230
         H            2.388778855383     1.794697345063    -0.014789133171     1.007825032230
         H            2.575017855383     0.863050345063     1.461801866829     1.007825032230
         H            4.153757855383    -0.709619654937     0.281487866829     1.007825032230
         H            3.970292855383     0.223494345063    -1.201394133171     1.007825032230
         H            4.741072855383     0.966300345063     0.217017866829     1.007825032230
         H           -2.846773644617     2.111489345063     0.108210966829     1.007825032230

  Basis Set: AUG-CC-PVTZ
    Blend: AUG-CC-PVTZ
  Basis Set: (AUG-CC-PVTZ AUX)
    Blend: AUG-CC-PVTZ-JKFIT
	 Reference Energy          =    -512.8847667112239606 [Eh]
	 Singles Energy            =      -0.0000000000000000 [Eh]
	 Same-Spin Energy          =      -0.5116150541425453 [Eh]
	 Opposite-Spin Energy      =      -1.6154344296538299 [Eh]
	 Correlation Energy        =      -2.1270494837963749 [Eh]
	 Total Energy              =    -515.0118161950202875 [Eh]

	 ================> DF-SCS-MP2 Energies <==================
	-----------------------------------------------------------
	 SCS Same-Spin Scale       =       0.3333333333333333 [-]
	 SCS Opposite-Spin Scale   =       1.2000000000000000 [-]
	 SCS Same-Spin Energy      =      -0.1705383513808484 [Eh]
	 SCS Opposite-Spin Energy  =      -1.9385213155845957 [Eh]
	 SCS Correlation Energy    =      -2.1090596669654440 [Eh]
	 SCS Total Energy          =    -514.9938263781893966 [Eh]
	-----------------------------------------------------------

  Dipole Moment: [D]
     X:     0.0300      Y:     3.3168      Z:     1.9802     Total:     3.8630

*** Psi4 exiting successfully. Buy a developer a beer!
