                               Psi4 1.3.2 release

  ==> Input File <==

--------------------------------------------------------------------------
#psi4
#
memory 32 gb

molecule  {
0 1
  O       -1.9756670     1.6664010     0.1857370
  O        1.6511300    -1.1930600    -0.6768240
  O       -3.2820610    -0.0444860    -0.5140140
  N        0.2152580     0.2772540     0.2951010
  C       -0.9312886    -0.5022998    -0.1217868
  C       -1.2010820    -1.6869190     0.8036840
  C        2.5941300     0.7851170     0.3678910
  C        1.4555602    -0.1546320    -0.0776750
  C       -2.1892550     0.3702600    -0.1810000
  C        3.9493650     0.2879730    -0.1118860
  H       -0.7666830    -0.8628490    -1.1247510
  H        0.0773990     1.1958980     0.6978160
  H       -1.3680630    -1.3508140     1.8303240
  H       -2.0758160    -2.2433210     0.4601180
  H       -0.3237180    -2.3338760     0.7750620
  H        2.3897550     1.7945520    -0.0146150
  H        2.5759940     0.8629050     1.4619760
  H        4.1547340    -0.7097650     0.2816620
  H        3.9712690     0.2233490    -1.2012200
  H        4.7420490     0.9661550     0.2171920
  H       -2.8492950     2.1039740     0.1058080
units angstrom
no_reorient  #important for SAPT in psi4, default
symmetry c1  #important for SAPT in psi4, default
}

set PROPERTIES_ORIGIN ["COM"]
properties('MP2/aug-cc-pvtz', properties = ['dipole'])
--------------------------------------------------------------------------

    Molecular point group: c1
  Charge       = 0
  Multiplicity = 1
  Basis Set: AUG-CC-PVTZ
    Blend: AUG-CC-PVTZ
  Basis Set: (AUG-CC-PVTZ AUX)
    Blend: AUG-CC-PVTZ-JKFIT

    Orbital Energies [Eh]
    ---------------------

    Doubly Occupied:

       1A    -20.635827     2A    -20.563451     3A    -20.527425
       4A    -15.590863     5A    -11.404316     6A    -11.354284
       7A    -11.295921     8A    -11.245918     9A    -11.226541
      10A    -11.218313    11A     -1.477596    12A     -1.393003
      13A     -1.373001    14A     -1.247298    15A     -1.071116
      16A     -1.033182    17A     -0.925095    18A     -0.880520
      19A     -0.819087    20A     -0.792566    21A     -0.728515
      22A     -0.714322    23A     -0.683253    24A     -0.665218
      25A     -0.639830    26A     -0.635760    27A     -0.609547
      28A     -0.606971    29A     -0.583669    30A     -0.546559
      31A     -0.543187    32A     -0.523783    33A     -0.523165
      34A     -0.519101    35A     -0.496971    36A     -0.491341
      37A     -0.466155    38A     -0.426705    39A     -0.402317

  @DF-RHF Final Energy:  -512.88650241034406

   => Energetics <=

    Nuclear Repulsion Energy =            548.2442402580093130
    One-Electron Energy =               -1788.4981032520208828
    Two-Electron Energy =                 727.3673605836675051
    Total Energy =                       -512.8865024103440646
  Basis Set: (AUG-CC-PVTZ AUX)
    Blend: AUG-CC-PVTZ-RI
    Molecular point group: c1

    Geometry (in Angstrom), charge = 0, multiplicity = 1:

       Center              X                  Y                   Z               Mass
    ------------   -----------------  -----------------  -----------------  -----------------
         O           -1.976123359379     1.669300644004     0.187644860076    15.994914619570
         O            1.650673640621    -1.190160355996    -0.674916139924    15.994914619570
         O           -3.282517359379    -0.041586355996    -0.512106139924    15.994914619570
         N            0.214801640621     0.280153644004     0.297008860076    14.003074004430
         C           -0.931744959379    -0.499400155996    -0.119878939924    12.000000000000
         C           -1.201538359379    -1.684019355996     0.805591860076    12.000000000000
         C            2.593673640621     0.788016644004     0.369798860076    12.000000000000
         C            1.455103840621    -0.151732355996    -0.075767139924    12.000000000000
         C           -2.189711359379     0.373159644004    -0.179092139924    12.000000000000
         C            3.948908640621     0.290872644004    -0.109978139924    12.000000000000
         H           -0.767139359379    -0.859949355996    -1.122843139924     1.007825032230
         H            0.076942640621     1.198797644004     0.699723860076     1.007825032230
         H           -1.368519359379    -1.347914355996     1.832231860076     1.007825032230
         H           -2.076272359379    -2.240421355996     0.462025860076     1.007825032230
         H           -0.324174359379    -2.330976355996     0.776969860076     1.007825032230
         H            2.389298640621     1.797451644004    -0.012707139924     1.007825032230
         H            2.575537640621     0.865804644004     1.463883860076     1.007825032230
         H            4.154277640621    -0.706865355996     0.283569860076     1.007825032230
         H            3.970812640621     0.226248644004    -1.199312139924     1.007825032230
         H            4.741592640621     0.969054644004     0.219099860076     1.007825032230
         H           -2.849751359379     2.106873644004     0.107715860076     1.007825032230

  Basis Set: AUG-CC-PVTZ
    Blend: AUG-CC-PVTZ
  Basis Set: (AUG-CC-PVTZ AUX)
    Blend: AUG-CC-PVTZ-JKFIT
	 Reference Energy          =    -512.8865024103440646 [Eh]
	 Singles Energy            =      -0.0000000000000000 [Eh]
	 Same-Spin Energy          =      -0.5107255303704700 [Eh]
	 Opposite-Spin Energy      =      -1.6138385217716360 [Eh]
	 Correlation Energy        =      -2.1245640521421061 [Eh]
	 Total Energy              =    -515.0110664624861556 [Eh]

	 ================> DF-SCS-MP2 Energies <==================
	-----------------------------------------------------------
	 SCS Same-Spin Scale       =       0.3333333333333333 [-]
	 SCS Opposite-Spin Scale   =       1.2000000000000000 [-]
	 SCS Same-Spin Energy      =      -0.1702418434568233 [Eh]
	 SCS Opposite-Spin Energy  =      -1.9366062261259631 [Eh]
	 SCS Correlation Energy    =      -2.1068480695827865 [Eh]
	 SCS Total Energy          =    -514.9933504799269031 [Eh]
	-----------------------------------------------------------

  Dipole Moment: [D]
     X:    -0.0864      Y:     3.2240      Z:     1.8994     Total:     3.7429

*** Psi4 exiting successfully. Buy a developer a beer!
