                               Psi4 1.3.2 release

  ==> Input File <==

--------------------------------------------------------------------------
#psi4
#
memory 32 gb

molecule  {
0 1
  O       -1.9756670     1.6664010     0.1857370
  O        1.6511300    -1.1930600    -0.6768240
  O       -3.2820610    -0.0444860    -0.5140140
  N        0.2152580     0.2772540     0.2951010
  C       -0.9464590    -0.4858680    -0.1100250
  C       -1.2010820    -1.6869190     0.8036840
  C        2.5941300     0.7851170     0.3678910
  C        1.5394660    -0.0754222    -0.0378108
  C       -2.1892550     0.3702600    -0.1810000
  C        3.9493650     0.2879730    -0.1118860
  H       -0.7666830    -0.8628490    -1.1247510
  H        0.0773990     1.1958980     0.6978160
  H       -1.3680630    -1.3508140     1.8303240
  H       -2.0758160    -2.2433210     0.4601180
  H       -0.3237180    -2.3338760     0.7750620
  H        2.3897550     1.7945520    -0.0146150
  H        2.5759940     0.8629050     1.4619760
  H        4.1547340    -0.7097650     0.2816620
  H        3.9712690     0.2233490    -1.2012200
  H        4.7420490     0.9661550     0.2171920
  H       -2.8492950     2.1039740     0.1058080
units angstrom
no_reorient  #important for SAPT in psi4, default
symmetry c1  #important for SAPT in psi4, default
}

set PROPERTIES_ORIGIN ["COM"]
properties('MP2/aug-cc-pvtz', properties = ['dipole'])
--------------------------------------------------------------------------

    Molecular point group: c1
  Charge       = 0
  Multiplicity = 1
  Basis Set: AUG-CC-PVTZ
    Blend: AUG-CC-PVTZ
  Basis Set: (AUG-CC-PVTZ AUX)
    Blend: AUG-CC-PVTZ-JKFIT

    Orbital Energies [Eh]
    ---------------------

    Doubly Occupied:

       1A    -20.633482     2A    -20.561766     3A    -20.521996
       4A    -15.589972     5A    -11.402786     6A    -11.365245
       7A    -11.294627     8A    -11.252014     9A    -11.225791
      10A    -11.223648    11A     -1.476060    12A     -1.371461
      13A     -1.349797    14A     -1.226781    15A     -1.092825
      16A     -1.037190    17A     -0.927533    18A     -0.900114
      19A     -0.813455    20A     -0.779404    21A     -0.730112
      22A     -0.711856    23A     -0.688203    24A     -0.665001
      25A     -0.650276    26A     -0.628862    27A     -0.608765
      28A     -0.593552    29A     -0.571959    30A     -0.545418
      31A     -0.540121    32A     -0.528516    33A     -0.523042
      34A     -0.520860    35A     -0.496311    36A     -0.477870
      37A     -0.464769    38A     -0.432894    39A     -0.390844

  @DF-RHF Final Energy:  -512.86567322917108

   => Energetics <=

    Nuclear Repulsion Energy =            547.3458062334104852
    One-Electron Energy =               -1786.7926012291502502
    Two-Electron Energy =                 726.5811217665686854
    Total Energy =                       -512.8656732291710796
  Basis Set: (AUG-CC-PVTZ AUX)
    Blend: AUG-CC-PVTZ-RI
    Molecular point group: c1

    Geometry (in Angstrom), charge = 0, multiplicity = 1:

       Center              X                  Y                   Z               Mass
    ------------   -----------------  -----------------  -----------------  -----------------
         O           -1.981808908872     1.661389508688     0.183374539715    15.994914619570
         O            1.644988091128    -1.198071491312    -0.679186460285    15.994914619570
         O           -3.288202908872    -0.049497491312    -0.516376460285    15.994914619570
         N            0.209116091128     0.272242508688     0.292738539715    14.003074004430
         C           -0.952600908872    -0.490879491312    -0.112387460285    12.000000000000
         C           -1.207223908872    -1.691930491312     0.801321539715    12.000000000000
         C            2.587988091128     0.780105508688     0.365528539715    12.000000000000
         C            1.533324091128    -0.080433691312    -0.040173260285    12.000000000000
         C           -2.195396908872     0.365248508688    -0.183362460285    12.000000000000
         C            3.943223091128     0.282961508688    -0.114248460285    12.000000000000
         H           -0.772824908872    -0.867860491312    -1.127113460285     1.007825032230
         H            0.071257091128     1.190886508688     0.695453539715     1.007825032230
         H           -1.374204908872    -1.355825491312     1.827961539715     1.007825032230
         H           -2.081957908872    -2.248332491312     0.457755539715     1.007825032230
         H           -0.329859908872    -2.338887491312     0.772699539715     1.007825032230
         H            2.383613091128     1.789540508688    -0.016977460285     1.007825032230
         H            2.569852091128     0.857893508688     1.459613539715     1.007825032230
         H            4.148592091128    -0.714776491312     0.279299539715     1.007825032230
         H            3.965127091128     0.218337508688    -1.203582460285     1.007825032230
         H            4.735907091128     0.961143508688     0.214829539715     1.007825032230
         H           -2.855436908872     2.098962508688     0.103445539715     1.007825032230

  Basis Set: AUG-CC-PVTZ
    Blend: AUG-CC-PVTZ
  Basis Set: (AUG-CC-PVTZ AUX)
    Blend: AUG-CC-PVTZ-JKFIT
	 Reference Energy          =    -512.8656732291710796 [Eh]
	 Singles Energy            =      -0.0000000000000000 [Eh]
	 Same-Spin Energy          =      -0.5136445269864448 [Eh]
	 Opposite-Spin Energy      =      -1.6192737680453353 [Eh]
	 Correlation Energy        =      -2.1329182950317800 [Eh]
	 Total Energy              =    -514.9985915242028796 [Eh]

	 ================> DF-SCS-MP2 Energies <==================
	-----------------------------------------------------------
	 SCS Same-Spin Scale       =       0.3333333333333333 [-]
	 SCS Opposite-Spin Scale   =       1.2000000000000000 [-]
	 SCS Same-Spin Energy      =      -0.1712148423288149 [Eh]
	 SCS Opposite-Spin Energy  =      -1.9431285216544023 [Eh]
	 SCS Correlation Energy    =      -2.1143433639832172 [Eh]
	 SCS Total Energy          =    -514.9800165931543461 [Eh]
	-----------------------------------------------------------

  Dipole Moment: [D]
     X:     0.4241      Y:     3.5614      Z:     2.0532     Total:     4.1327

*** Psi4 exiting successfully. Buy a developer a beer!
