                               Psi4 1.3.2 release

  ==> Input File <==

--------------------------------------------------------------------------
#psi4
#
memory 32 gb

molecule  {
0 1
  O       -1.9069250     1.6501532     0.1961746
  O        1.6511300    -1.1930600    -0.6768240
  O       -3.2558088    -0.1017910    -0.5227138
  N        0.2152580     0.2772540     0.2951010
  C       -0.9464590    -0.4858680    -0.1100250
  C       -1.2010820    -1.6869190     0.8036840
  C        2.5941300     0.7851170     0.3678910
  C        1.4652130    -0.1360080    -0.0663740
  C       -2.1892550     0.3702600    -0.1810000
  C        3.9493650     0.2879730    -0.1118860
  H       -0.7666830    -0.8628490    -1.1247510
  H        0.0773990     1.1958980     0.6978160
  H       -1.3680630    -1.3508140     1.8303240
  H       -2.0758160    -2.2433210     0.4601180
  H       -0.3237180    -2.3338760     0.7750620
  H        2.3897550     1.7945520    -0.0146150
  H        2.5759940     0.8629050     1.4619760
  H        4.1547340    -0.7097650     0.2816620
  H        3.9712690     0.2233490    -1.2012200
  H        4.7420490     0.9661550     0.2171920
  H       -2.8492950     2.1039740     0.1058080
units angstrom
no_reorient  #important for SAPT in psi4, default
symmetry c1  #important for SAPT in psi4, default
}

set PROPERTIES_ORIGIN ["COM"]
properties('MP2/aug-cc-pvtz', properties = ['dipole'])
--------------------------------------------------------------------------

    Molecular point group: c1
  Charge       = 0
  Multiplicity = 1
  Basis Set: AUG-CC-PVTZ
    Blend: AUG-CC-PVTZ
  Basis Set: (AUG-CC-PVTZ AUX)
    Blend: AUG-CC-PVTZ-JKFIT

    Orbital Energies [Eh]
    ---------------------

    Doubly Occupied:

       1A    -20.649735     2A    -20.568148     3A    -20.522130
       4A    -15.588719     5A    -11.405917     6A    -11.353597
       7A    -11.289802     8A    -11.246000     9A    -11.223633
      10A    -11.218301    11A     -1.473573    12A     -1.379518
      13A     -1.377350    14A     -1.241628    15A     -1.071803
      16A     -1.032716    17A     -0.922578    18A     -0.882222
      19A     -0.806621    20A     -0.791234    21A     -0.729827
      22A     -0.712626    23A     -0.680721    24A     -0.665204
      25A     -0.640289    26A     -0.634207    27A     -0.608969
      28A     -0.600203    29A     -0.577888    30A     -0.544140
      31A     -0.542458    32A     -0.522130    33A     -0.519291
      34A     -0.517846    35A     -0.499401    36A     -0.487581
      37A     -0.466176    38A     -0.426368    39A     -0.397046

  @DF-RHF Final Energy:  -512.87290975366375

   => Energetics <=

    Nuclear Repulsion Energy =            549.0525489794797522
    One-Electron Energy =               -1790.2157247481566174
    Two-Electron Energy =                 728.2902660150131169
    Total Energy =                       -512.8729097536637482
  Basis Set: (AUG-CC-PVTZ AUX)
    Blend: AUG-CC-PVTZ-RI
    Molecular point group: c1

    Geometry (in Angstrom), charge = 0, multiplicity = 1:

       Center              X                  Y                   Z               Mass
    ------------   -----------------  -----------------  -----------------  -----------------
         O           -1.917398412662     1.658262610829     0.195983188071    15.994914619570
         O            1.640656587338    -1.184950589171    -0.677015411929    15.994914619570
         O           -3.266282212662    -0.093681589171    -0.522905211929    15.994914619570
         N            0.204784587338     0.285363410829     0.294909588071    14.003074004430
         C           -0.956932412662    -0.477758589171    -0.110216411929    12.000000000000
         C           -1.211555412662    -1.678809589171     0.803492588071    12.000000000000
         C            2.583656587338     0.793226410829     0.367699588071    12.000000000000
         C            1.454739587338    -0.127898589171    -0.066565411929    12.000000000000
         C           -2.199728412662     0.378369410829    -0.181191411929    12.000000000000
         C            3.938891587338     0.296082410829    -0.112077411929    12.000000000000
         H           -0.777156412662    -0.854739589171    -1.124942411929     1.007825032230
         H            0.066925587338     1.204007410829     0.697624588071     1.007825032230
         H           -1.378536412662    -1.342704589171     1.830132588071     1.007825032230
         H           -2.086289412662    -2.235211589171     0.459926588071     1.007825032230
         H           -0.334191412662    -2.325766589171     0.774870588071     1.007825032230
         H            2.379281587338     1.802661410829    -0.014806411929     1.007825032230
         H            2.565520587338     0.871014410829     1.461784588071     1.007825032230
         H            4.144260587338    -0.701655589171     0.281470588071     1.007825032230
         H            3.960795587338     0.231458410829    -1.201411411929     1.007825032230
         H            4.731575587338     0.974264410829     0.217000588071     1.007825032230
         H           -2.859768412662     2.112083410829     0.105616588071     1.007825032230

  Basis Set: AUG-CC-PVTZ
    Blend: AUG-CC-PVTZ
  Basis Set: (AUG-CC-PVTZ AUX)
    Blend: AUG-CC-PVTZ-JKFIT
	 Reference Energy          =    -512.8729097536637482 [Eh]
	 Singles Energy            =      -0.0000000000000000 [Eh]
	 Same-Spin Energy          =      -0.5131871466465485 [Eh]
	 Opposite-Spin Energy      =      -1.6186928056491725 [Eh]
	 Correlation Energy        =      -2.1318799522957210 [Eh]
	 Total Energy              =    -515.0047897059595243 [Eh]

	 ================> DF-SCS-MP2 Energies <==================
	-----------------------------------------------------------
	 SCS Same-Spin Scale       =       0.3333333333333333 [-]
	 SCS Opposite-Spin Scale   =       1.2000000000000000 [-]
	 SCS Same-Spin Energy      =      -0.1710623822155162 [Eh]
	 SCS Opposite-Spin Energy  =      -1.9424313667790070 [Eh]
	 SCS Correlation Energy    =      -2.1134937489945234 [Eh]
	 SCS Total Energy          =    -514.9864035026582769 [Eh]
	-----------------------------------------------------------

  Dipole Moment: [D]
     X:    -0.3237      Y:     3.5549      Z:     1.9506     Total:     4.0678

*** Psi4 exiting successfully. Buy a developer a beer!
