                               Psi4 1.3.2 release

  ==> Input File <==

--------------------------------------------------------------------------
#psi4
#
memory 32 gb

molecule  {
0 1
  O       -1.9756670     1.6664010     0.1857370
  O        1.6511300    -1.1930600    -0.6768240
  O       -3.2820610    -0.0444860    -0.5140140
  N        0.2152580     0.2772540     0.2951010
  C       -0.9464590    -0.4858680    -0.1100250
  C       -1.2026497    -1.6786335     0.8140407
  C        2.5941300     0.7851170     0.3678910
  C        1.4652130    -0.1360080    -0.0663740
  C       -2.1892550     0.3702600    -0.1810000
  C        3.9493650     0.2879730    -0.1118860
  H       -0.7655254    -0.8538594    -1.1278404
  H        0.0773990     1.1958980     0.6978160
  H       -1.3680630    -1.3508140     1.8303240
  H       -2.0758160    -2.2433210     0.4601180
  H       -0.3237180    -2.3338760     0.7750620
  H        2.3897550     1.7945520    -0.0146150
  H        2.5759940     0.8629050     1.4619760
  H        4.1547340    -0.7097650     0.2816620
  H        3.9712690     0.2233490    -1.2012200
  H        4.7420490     0.9661550     0.2171920
  H       -2.8492950     2.1039740     0.1058080
units angstrom
no_reorient  #important for SAPT in psi4, default
symmetry c1  #important for SAPT in psi4, default
}

set PROPERTIES_ORIGIN ["COM"]
properties('MP2/aug-cc-pvtz', properties = ['dipole'])
--------------------------------------------------------------------------

    Molecular point group: c1
  Charge       = 0
  Multiplicity = 1
  Basis Set: AUG-CC-PVTZ
    Blend: AUG-CC-PVTZ
  Basis Set: (AUG-CC-PVTZ AUX)
    Blend: AUG-CC-PVTZ-JKFIT

    Orbital Energies [Eh]
    ---------------------

    Doubly Occupied:

       1A    -20.635896     2A    -20.563721     3A    -20.524486
       4A    -15.592129     5A    -11.404575     6A    -11.356045
       7A    -11.296515     8A    -11.247502     9A    -11.226920
      10A    -11.219463    11A     -1.478371    12A     -1.380570
      13A     -1.373472    14A     -1.245340    15A     -1.074874
      16A     -1.035587    17A     -0.927724    18A     -0.885363
      19A     -0.816960    20A     -0.792253    21A     -0.730723
      22A     -0.714500    23A     -0.682852    24A     -0.665535
      25A     -0.641191    26A     -0.633454    27A     -0.610412
      28A     -0.602485    29A     -0.581272    30A     -0.545867
      31A     -0.542759    32A     -0.524014    33A     -0.521419
      34A     -0.519303    35A     -0.497249    36A     -0.488596
      37A     -0.467823    38A     -0.428635    39A     -0.400216

  @DF-RHF Final Energy:  -512.88570542726586

   => Energetics <=

    Nuclear Repulsion Energy =            548.2317983964703672
    One-Electron Energy =               -1788.4828673607848941
    Two-Electron Energy =                 727.3653635370486654
    Total Energy =                       -512.8857054272658615
  Basis Set: (AUG-CC-PVTZ AUX)
    Blend: AUG-CC-PVTZ-RI
    Molecular point group: c1

    Geometry (in Angstrom), charge = 0, multiplicity = 1:

       Center              X                  Y                   Z               Mass
    ------------   -----------------  -----------------  -----------------  -----------------
         O           -1.975545330212     1.665653154217     0.184901979075    15.994914619570
         O            1.651251669788    -1.193807845783    -0.677659020925    15.994914619570
         O           -3.281939330212    -0.045233845783    -0.514849020925    15.994914619570
         N            0.215379669788     0.276506154217     0.294265979075    14.003074004430
         C           -0.946337330212    -0.486615845783    -0.110860020925    12.000000000000
         C           -1.202528030212    -1.679381345783     0.813205679075    12.000000000000
         C            2.594251669788     0.784369154217     0.367055979075    12.000000000000
         C            1.465334669788    -0.136755845783    -0.067209020925    12.000000000000
         C           -2.189133330212     0.369512154217    -0.181835020925    12.000000000000
         C            3.949486669788     0.287225154217    -0.112721020925    12.000000000000
         H           -0.765403730212    -0.854607245783    -1.128675420925     1.007825032230
         H            0.077520669788     1.195150154217     0.696980979075     1.007825032230
         H           -1.367941330212    -1.351561845783     1.829488979075     1.007825032230
         H           -2.075694330212    -2.244068845783     0.459282979075     1.007825032230
         H           -0.323596330212    -2.334623845783     0.774226979075     1.007825032230
         H            2.389876669788     1.793804154217    -0.015450020925     1.007825032230
         H            2.576115669788     0.862157154217     1.461140979075     1.007825032230
         H            4.154855669788    -0.710512845783     0.280826979075     1.007825032230
         H            3.971390669788     0.222601154217    -1.202055020925     1.007825032230
         H            4.742170669788     0.965407154217     0.216356979075     1.007825032230
         H           -2.849173330212     2.103226154217     0.104972979075     1.007825032230

  Basis Set: AUG-CC-PVTZ
    Blend: AUG-CC-PVTZ
  Basis Set: (AUG-CC-PVTZ AUX)
    Blend: AUG-CC-PVTZ-JKFIT
	 Reference Energy          =    -512.8857054272658615 [Eh]
	 Singles Energy            =      -0.0000000000000000 [Eh]
	 Same-Spin Energy          =      -0.5113934342950481 [Eh]
	 Opposite-Spin Energy      =      -1.6150036809873511 [Eh]
	 Correlation Energy        =      -2.1263971152823995 [Eh]
	 Total Energy              =    -515.0121025425482912 [Eh]

	 ================> DF-SCS-MP2 Energies <==================
	-----------------------------------------------------------
	 SCS Same-Spin Scale       =       0.3333333333333333 [-]
	 SCS Opposite-Spin Scale   =       1.2000000000000000 [-]
	 SCS Same-Spin Energy      =      -0.1704644780983494 [Eh]
	 SCS Opposite-Spin Energy  =      -1.9380044171848212 [Eh]
	 SCS Correlation Energy    =      -2.1084688952831705 [Eh]
	 SCS Total Energy          =    -514.9941743225490427 [Eh]
	-----------------------------------------------------------

  Dipole Moment: [D]
     X:    -0.0491      Y:     3.3189      Z:     1.9665     Total:     3.8581

*** Psi4 exiting successfully. Buy a developer a beer!
