                               Psi4 1.3.2 release

  ==> Input File <==

--------------------------------------------------------------------------
#psi4
#
memory 32 gb

molecule  {
0 1
  O       -1.9756670     1.6664010     0.1857370
  O        1.6511300    -1.1930600    -0.6768240
  O       -3.2820610    -0.0444860    -0.5140140
  N        0.2152580     0.2772540     0.2951010
  C       -0.9464590    -0.4858680    -0.1100250
  C       -1.2010820    -1.6869190     0.8036840
  C        2.5941300     0.7851170     0.3678910
  C        1.4652130    -0.1360080    -0.0663740
  C       -2.1901906     0.3677305    -0.1939054
  C        3.9493650     0.2879730    -0.1118860
  H       -0.7744421    -0.8581537    -1.1278248
  H        0.0773990     1.1958980     0.6978160
  H       -1.3680630    -1.3508140     1.8303240
  H       -2.0758160    -2.2433210     0.4601180
  H       -0.3237180    -2.3338760     0.7750620
  H        2.3897550     1.7945520    -0.0146150
  H        2.5759940     0.8629050     1.4619760
  H        4.1547340    -0.7097650     0.2816620
  H        3.9712690     0.2233490    -1.2012200
  H        4.7420490     0.9661550     0.2171920
  H       -2.8492950     2.1039740     0.1058080
units angstrom
no_reorient  #important for SAPT in psi4, default
symmetry c1  #important for SAPT in psi4, default
}

set PROPERTIES_ORIGIN ["COM"]
properties('MP2/aug-cc-pvtz', properties = ['dipole'])
--------------------------------------------------------------------------

    Molecular point group: c1
  Charge       = 0
  Multiplicity = 1
  Basis Set: AUG-CC-PVTZ
    Blend: AUG-CC-PVTZ
  Basis Set: (AUG-CC-PVTZ AUX)
    Blend: AUG-CC-PVTZ-JKFIT

    Orbital Energies [Eh]
    ---------------------

    Doubly Occupied:

       1A    -20.634109     2A    -20.564938     3A    -20.524465
       4A    -15.592384     5A    -11.404369     6A    -11.356072
       7A    -11.296494     8A    -11.247496     9A    -11.227141
      10A    -11.219453    11A     -1.477084    12A     -1.380600
      13A     -1.375338    14A     -1.245160    15A     -1.074872
      16A     -1.035684    17A     -0.927522    18A     -0.885173
      19A     -0.815364    20A     -0.791913    21A     -0.730622
      22A     -0.714231    23A     -0.682851    24A     -0.665142
      25A     -0.641054    26A     -0.633377    27A     -0.610504
      28A     -0.602467    29A     -0.580782    30A     -0.546765
      31A     -0.544233    32A     -0.524100    33A     -0.520713
      34A     -0.519177    35A     -0.498467    36A     -0.488805
      37A     -0.467743    38A     -0.428736    39A     -0.400466

  @DF-RHF Final Energy:  -512.88609505735747

   => Energetics <=

    Nuclear Repulsion Energy =            548.1680134026531732
    One-Electron Energy =               -1788.3564827462116682
    Two-Electron Energy =                 727.3023742862011431
    Total Energy =                       -512.8860950573574655
  Basis Set: (AUG-CC-PVTZ AUX)
    Blend: AUG-CC-PVTZ-RI
    Molecular point group: c1

    Geometry (in Angstrom), charge = 0, multiplicity = 1:

       Center              X                  Y                   Z               Mass
    ------------   -----------------  -----------------  -----------------  -----------------
         O           -1.975535671179     1.666577565219     0.186826029445    15.994914619570
         O            1.651261328821    -1.192883434781    -0.675734970555    15.994914619570
         O           -3.281929671179    -0.044309434781    -0.512924970555    15.994914619570
         N            0.215389328821     0.277430565219     0.296190029445    14.003074004430
         C           -0.946327671179    -0.485691434781    -0.108935970555    12.000000000000
         C           -1.200950671179    -1.686742434781     0.804773029445    12.000000000000
         C            2.594261328821     0.785293565219     0.368980029445    12.000000000000
         C            1.465344328821    -0.135831434781    -0.065284970555    12.000000000000
         C           -2.190059271179     0.367907065219    -0.192816370555    12.000000000000
         C            3.949496328821     0.288149565219    -0.110796970555    12.000000000000
         H           -0.774310771179    -0.857977134781    -1.126735770555     1.007825032230
         H            0.077530328821     1.196074565219     0.698905029445     1.007825032230
         H           -1.367931671179    -1.350637434781     1.831413029445     1.007825032230
         H           -2.075684671179    -2.243144434781     0.461207029445     1.007825032230
         H           -0.323586671179    -2.333699434781     0.776151029445     1.007825032230
         H            2.389886328821     1.794728565219    -0.013525970555     1.007825032230
         H            2.576125328821     0.863081565219     1.463065029445     1.007825032230
         H            4.154865328821    -0.709588434781     0.282751029445     1.007825032230
         H            3.971400328821     0.223525565219    -1.200130970555     1.007825032230
         H            4.742180328821     0.966331565219     0.218281029445     1.007825032230
         H           -2.849163671179     2.104150565219     0.106897029445     1.007825032230

  Basis Set: AUG-CC-PVTZ
    Blend: AUG-CC-PVTZ
  Basis Set: (AUG-CC-PVTZ AUX)
    Blend: AUG-CC-PVTZ-JKFIT
	 Reference Energy          =    -512.8860950573574655 [Eh]
	 Singles Energy            =      -0.0000000000000000 [Eh]
	 Same-Spin Energy          =      -0.5113009359575220 [Eh]
	 Opposite-Spin Energy      =      -1.6148640722875731 [Eh]
	 Correlation Energy        =      -2.1261650082450951 [Eh]
	 Total Energy              =    -515.0122600656025043 [Eh]

	 ================> DF-SCS-MP2 Energies <==================
	-----------------------------------------------------------
	 SCS Same-Spin Scale       =       0.3333333333333333 [-]
	 SCS Opposite-Spin Scale   =       1.2000000000000000 [-]
	 SCS Same-Spin Energy      =      -0.1704336453191740 [Eh]
	 SCS Opposite-Spin Energy  =      -1.9378368867450877 [Eh]
	 SCS Correlation Energy    =      -2.1082705320642616 [Eh]
	 SCS Total Energy          =    -514.9943655894217045 [Eh]
	-----------------------------------------------------------

  Dipole Moment: [D]
     X:    -0.0661      Y:     3.2741      Z:     1.9339     Total:     3.8032

*** Psi4 exiting successfully. Buy a developer a beer!
