                               Psi4 1.4a3.dev225

  ==> Input File <==

--------------------------------------------------------------------------
#psi4
#
memory 32 gb

molecule  {
0 1
  O        2.1858500    -1.4843500     0.4466430
  O       -1.5901990     1.2021140    -0.7742790
  O        3.2899360     0.0893000    -0.7567370
  N       -0.1552130    -0.3501220     0.0655300
  C        0.9973750     0.5138300    -0.1038320
  C        1.1366130     1.5332170     1.0331740
  C       -2.5208420    -0.9251940    -0.0919400
  C       -1.3977612     0.0633450    -0.2821579
  C        2.2713450    -0.2912280    -0.2118740
  C       -3.8280260    -0.2360070     0.2837800
  H        0.8752740     1.0541530    -1.0466610
  H       -0.0274960    -1.2421660     0.5250420
  H        1.2555520     1.0181310     1.9903510
  H        2.0023980     2.1787030     0.8613650
  H        0.2327940     2.1443920     1.0604580
  H       -2.6404080    -1.4674310    -1.0380590
  H       -2.2372030    -1.6677960     0.6628800
  H       -3.7417830     0.2575120     1.2553170
  H       -4.0728600     0.5241080    -0.4590610
  H       -4.6456460    -0.9595500     0.3374610
  H        3.0673500    -1.9023430     0.3513230
units angstrom
no_reorient  #important for SAPT in psi4, default
symmetry c1  #important for SAPT in psi4, default
}

set PROPERTIES_ORIGIN ["COM"]
properties('MP2/aug-cc-pvtz', properties = ['dipole'])
--------------------------------------------------------------------------

    Molecular point group: c1
  Charge       = 0
  Multiplicity = 1
  Basis Set: AUG-CC-PVTZ
    Blend: AUG-CC-PVTZ
  Basis Set: (AUG-CC-PVTZ AUX)
    Blend: AUG-CC-PVTZ-JKFIT

    Orbital Energies [Eh]
    ---------------------

    Doubly Occupied:

       1A    -20.635315     2A    -20.566003     3A    -20.518501
       4A    -15.598998     5A    -11.404973     6A    -11.357273
       7A    -11.297975     8A    -11.248419     9A    -11.233546
      10A    -11.222720    11A     -1.477392    12A     -1.373662
      13A     -1.368277    14A     -1.246561    15A     -1.078464
      16A     -1.039276    17A     -0.929159    18A     -0.888650
      19A     -0.823250    20A     -0.796615    21A     -0.728966
      22A     -0.715121    23A     -0.679801    24A     -0.661337
      25A     -0.643261    26A     -0.634646    27A     -0.611266
      28A     -0.593894    29A     -0.584671    30A     -0.556411
      31A     -0.550997    32A     -0.528704    33A     -0.522271
      34A     -0.512934    35A     -0.498434    36A     -0.485647
      37A     -0.469400    38A     -0.426596    39A     -0.399700

  @DF-RHF Final Energy:  -512.88413343471905

   => Energetics <=

    Nuclear Repulsion Energy =            547.8250445740054602
    One-Electron Energy =               -1787.6001866172446171
    Two-Electron Energy =                 726.8910086085201101
    Total Energy =                       -512.8841334347190468
  Basis Set: (AUG-CC-PVTZ AUX)
    Blend: AUG-CC-PVTZ-RI
    Molecular point group: c1

    Geometry (in Angstrom), charge = 0, multiplicity = 1:

       Center              X                  Y                   Z               Mass
    ------------   -----------------  -----------------  -----------------  -----------------
         O            2.117809692207    -1.483274703005     0.476733865518    15.994914619570
         O           -1.658239307793     1.203189296995    -0.744188134482    15.994914619570
         O            3.221895692207     0.090375296995    -0.726646134482    15.994914619570
         N           -0.223253307793    -0.349046703005     0.095620865518    14.003074004430
         C            0.929334692207     0.514905296995    -0.073741134482    12.000000000000
         C            1.068572692207     1.534292296995     1.063264865518    12.000000000000
         C           -2.588882307793    -0.924118703005    -0.061849134482    12.000000000000
         C           -1.465801507793     0.064420296995    -0.252067034482    12.000000000000
         C            2.203304692207    -0.290152703005    -0.181783134482    12.000000000000
         C           -3.896066307793    -0.234931703005     0.313870865518    12.000000000000
         H            0.807233692207     1.055228296995    -1.016570134482     1.007825032230
         H           -0.095536307793    -1.241090703005     0.555132865518     1.007825032230
         H            1.187511692207     1.019206296995     2.020441865518     1.007825032230
         H            1.934357692207     2.179778296995     0.891455865518     1.007825032230
         H            0.164753692207     2.145467296995     1.090548865518     1.007825032230
         H           -2.708448307793    -1.466355703005    -1.007968134482     1.007825032230
         H           -2.305243307793    -1.666720703005     0.692970865518     1.007825032230
         H           -3.809823307793     0.258587296995     1.285407865518     1.007825032230
         H           -4.140900307793     0.525183296995    -0.428970134482     1.007825032230
         H           -4.713686307793    -0.958474703005     0.367551865518     1.007825032230
         H            2.999309692207    -1.901267703005     0.381413865518     1.007825032230

  Basis Set: AUG-CC-PVTZ
    Blend: AUG-CC-PVTZ
  Basis Set: (AUG-CC-PVTZ AUX)
    Blend: AUG-CC-PVTZ-JKFIT
	 Reference Energy          =    -512.8841334347190468 [Eh]
	 Singles Energy            =      -0.0000000000000000 [Eh]
	 Same-Spin Energy          =      -0.5116225443929859 [Eh]
	 Opposite-Spin Energy      =      -1.6159334829157346 [Eh]
	 Correlation Energy        =      -2.1275560273087204 [Eh]
	 Total Energy              =    -515.0116894620277890 [Eh]

	 ================> DF-SCS-MP2 Energies <==================
	-----------------------------------------------------------
	 SCS Same-Spin Scale       =       0.3333333333333333 [-]
	 SCS Opposite-Spin Scale   =       1.2000000000000000 [-]
	 SCS Same-Spin Energy      =      -0.1705408481309953 [Eh]
	 SCS Opposite-Spin Energy  =      -1.9391201794988815 [Eh]
	 SCS Correlation Energy    =      -2.1096610276298766 [Eh]
	 SCS Total Energy          =    -514.9937944623488875 [Eh]
	-----------------------------------------------------------

  Dipole Moment: [D]
     X:     0.2112      Y:    -3.3830      Z:     2.3448     Total:     4.1215

*** Psi4 exiting successfully. Buy a developer a beer!
