                               Psi4 1.3.2 release

  ==> Input File <==

--------------------------------------------------------------------------
#psi4
#
memory 32 gb

molecule  {
0 1
  O       -1.9871860     1.6687646     0.1838989
  O        1.6511300    -1.1930600    -0.6768240
  O       -3.2861470    -0.0348204    -0.5124746
  N        0.2152580     0.2772540     0.2951010
  C       -0.9464590    -0.4858680    -0.1100250
  C       -1.2010820    -1.6869190     0.8036840
  C        2.5941300     0.7851170     0.3678910
  C        1.4652130    -0.1360080    -0.0663740
  C       -2.1892550     0.3702600    -0.1810000
  C        3.9493650     0.2879730    -0.1118860
  H       -0.7666830    -0.8628490    -1.1247510
  H        0.0773990     1.1958980     0.6978160
  H       -1.3680630    -1.3508140     1.8303240
  H       -2.0758160    -2.2433210     0.4601180
  H       -0.3237180    -2.3338760     0.7750620
  H        2.3897550     1.7945520    -0.0146150
  H        2.5759940     0.8629050     1.4619760
  H        4.1547340    -0.7097650     0.2816620
  H        3.9712690     0.2233490    -1.2012200
  H        4.7420490     0.9661550     0.2171920
  H       -2.8492950     2.1039740     0.1058080
units angstrom
no_reorient  #important for SAPT in psi4, default
symmetry c1  #important for SAPT in psi4, default
}

set PROPERTIES_ORIGIN ["COM"]
properties('MP2/aug-cc-pvtz', properties = ['dipole'])
--------------------------------------------------------------------------

    Molecular point group: c1
  Charge       = 0
  Multiplicity = 1
  Basis Set: AUG-CC-PVTZ
    Blend: AUG-CC-PVTZ
  Basis Set: (AUG-CC-PVTZ AUX)
    Blend: AUG-CC-PVTZ-JKFIT

    Orbital Energies [Eh]
    ---------------------

    Doubly Occupied:

       1A    -20.633509     2A    -20.563042     3A    -20.525000
       4A    -15.592975     5A    -11.404640     6A    -11.356565
       7A    -11.297523     8A    -11.247822     9A    -11.227441
      10A    -11.219707    11A     -1.479425    12A     -1.381071
      13A     -1.372714    14A     -1.245961    15A     -1.075442
      16A     -1.036155    17A     -0.928725    18A     -0.885995
      19A     -0.818560    20A     -0.792629    21A     -0.731299
      22A     -0.714519    23A     -0.683275    24A     -0.665670
      25A     -0.641434    26A     -0.633258    27A     -0.610375
      28A     -0.603068    29A     -0.581352    30A     -0.546993
      31A     -0.544151    32A     -0.524440    33A     -0.520768
      34A     -0.519406    35A     -0.497261    36A     -0.488148
      37A     -0.467901    38A     -0.429188    39A     -0.400789

  @DF-RHF Final Energy:  -512.88683172922276

   => Energetics <=

    Nuclear Repulsion Energy =            548.0757537105904476
    One-Electron Energy =               -1788.1487792854868530
    Two-Electron Energy =                 727.1861938456735288
    Total Energy =                       -512.8868317292227630
  Basis Set: (AUG-CC-PVTZ AUX)
    Blend: AUG-CC-PVTZ-RI
    Molecular point group: c1

    Geometry (in Angstrom), charge = 0, multiplicity = 1:

       Center              X                  Y                   Z               Mass
    ------------   -----------------  -----------------  -----------------  -----------------
         O           -1.985465456040     1.667438289814     0.183932019466    15.994914619570
         O            1.652850543960    -1.194386310186    -0.676790880534    15.994914619570
         O           -3.284426456040    -0.036146710186    -0.512441480534    15.994914619570
         N            0.216978543960     0.275927689814     0.295134119466    14.003074004430
         C           -0.944738456040    -0.487194310186    -0.109991880534    12.000000000000
         C           -1.199361456040    -1.688245310186     0.803717119466    12.000000000000
         C            2.595850543960     0.783790689814     0.367924119466    12.000000000000
         C            1.466933543960    -0.137334310186    -0.066340880534    12.000000000000
         C           -2.187534456040     0.368933689814    -0.180966880534    12.000000000000
         C            3.951085543960     0.286646689814    -0.111852880534    12.000000000000
         H           -0.764962456040    -0.864175310186    -1.124717880534     1.007825032230
         H            0.079119543960     1.194571689814     0.697849119466     1.007825032230
         H           -1.366342456040    -1.352140310186     1.830357119466     1.007825032230
         H           -2.074095456040    -2.244647310186     0.460151119466     1.007825032230
         H           -0.321997456040    -2.335202310186     0.775095119466     1.007825032230
         H            2.391475543960     1.793225689814    -0.014581880534     1.007825032230
         H            2.577714543960     0.861578689814     1.462009119466     1.007825032230
         H            4.156454543960    -0.711091310186     0.281695119466     1.007825032230
         H            3.972989543960     0.222022689814    -1.201186880534     1.007825032230
         H            4.743769543960     0.964828689814     0.217225119466     1.007825032230
         H           -2.847574456040     2.102647689814     0.105841119466     1.007825032230

  Basis Set: AUG-CC-PVTZ
    Blend: AUG-CC-PVTZ
  Basis Set: (AUG-CC-PVTZ AUX)
    Blend: AUG-CC-PVTZ-JKFIT
	 Reference Energy          =    -512.8868317292227630 [Eh]
	 Singles Energy            =      -0.0000000000000000 [Eh]
	 Same-Spin Energy          =      -0.5110996289511133 [Eh]
	 Opposite-Spin Energy      =      -1.6144171090085808 [Eh]
	 Correlation Energy        =      -2.1255167379596940 [Eh]
	 Total Energy              =    -515.0123484671825054 [Eh]

	 ================> DF-SCS-MP2 Energies <==================
	-----------------------------------------------------------
	 SCS Same-Spin Scale       =       0.3333333333333333 [-]
	 SCS Opposite-Spin Scale   =       1.2000000000000000 [-]
	 SCS Same-Spin Energy      =      -0.1703665429837044 [Eh]
	 SCS Opposite-Spin Energy  =      -1.9373005308102969 [Eh]
	 SCS Correlation Energy    =      -2.1076670737940013 [Eh]
	 SCS Total Energy          =    -514.9944988030167679 [Eh]
	-----------------------------------------------------------

  Dipole Moment: [D]
     X:     0.0028      Y:     3.2732      Z:     1.9622     Total:     3.8163

*** Psi4 exiting successfully. Buy a developer a beer!
