                               Psi4 1.3.2 release

  ==> Input File <==

--------------------------------------------------------------------------
#psi4
#
memory 32 gb

molecule  {
0 1
  O       -1.9641642     1.6639387     0.1875472
  O        1.6511300    -1.1930600    -0.6768240
  O       -3.2778918    -0.0541201    -0.5155280
  N        0.2152580     0.2772540     0.2951010
  C       -0.9464590    -0.4858680    -0.1100250
  C       -1.2010820    -1.6869190     0.8036840
  C        2.5941300     0.7851170     0.3678910
  C        1.4652130    -0.1360080    -0.0663740
  C       -2.1892550     0.3702600    -0.1810000
  C        3.9493650     0.2879730    -0.1118860
  H       -0.7666830    -0.8628490    -1.1247510
  H        0.0773990     1.1958980     0.6978160
  H       -1.3680630    -1.3508140     1.8303240
  H       -2.0758160    -2.2433210     0.4601180
  H       -0.3237180    -2.3338760     0.7750620
  H        2.3897550     1.7945520    -0.0146150
  H        2.5759940     0.8629050     1.4619760
  H        4.1547340    -0.7097650     0.2816620
  H        3.9712690     0.2233490    -1.2012200
  H        4.7420490     0.9661550     0.2171920
  H       -2.8492950     2.1039740     0.1058080
units angstrom
no_reorient  #important for SAPT in psi4, default
symmetry c1  #important for SAPT in psi4, default
}

set PROPERTIES_ORIGIN ["COM"]
properties('MP2/aug-cc-pvtz', properties = ['dipole'])
--------------------------------------------------------------------------

    Molecular point group: c1
  Charge       = 0
  Multiplicity = 1
  Basis Set: AUG-CC-PVTZ
    Blend: AUG-CC-PVTZ
  Basis Set: (AUG-CC-PVTZ AUX)
    Blend: AUG-CC-PVTZ-JKFIT

    Orbital Energies [Eh]
    ---------------------

    Doubly Occupied:

       1A    -20.638396     2A    -20.564539     3A    -20.524181
       4A    -15.591768     5A    -11.404907     6A    -11.355720
       7A    -11.295322     8A    -11.247301     9A    -11.226349
      10A    -11.219305    11A     -1.477497    12A     -1.380262
      13A     -1.374366    14A     -1.244728    15A     -1.074383
      16A     -1.035178    17A     -0.926851    18A     -0.884842
      19A     -0.814874    20A     -0.792096    21A     -0.730514
      22A     -0.714515    23A     -0.682564    24A     -0.665493
      25A     -0.641073    26A     -0.633523    27A     -0.610242
      28A     -0.602277    29A     -0.580369    30A     -0.546102
      31A     -0.543692    32A     -0.523786    33A     -0.520310
      34A     -0.518949    35A     -0.497843    36A     -0.488186
      37A     -0.467747    38A     -0.428389    39A     -0.399728

  @DF-RHF Final Energy:  -512.88468821896129

   => Energetics <=

    Nuclear Repulsion Energy =            548.3266237281345639
    One-Electron Energy =               -1788.6862913276020208
    Two-Electron Energy =                 727.4749793805061699
    Total Energy =                       -512.8846882189612870
  Basis Set: (AUG-CC-PVTZ AUX)
    Blend: AUG-CC-PVTZ-RI
    Molecular point group: c1

    Geometry (in Angstrom), charge = 0, multiplicity = 1:

       Center              X                  Y                   Z               Mass
    ------------   -----------------  -----------------  -----------------  -----------------
         O           -1.965892056944     1.665272323339     0.187514729617    15.994914619570
         O            1.649402143056    -1.191726376661    -0.676856470383    15.994914619570
         O           -3.279619656944    -0.052786476661    -0.515560470383    15.994914619570
         N            0.213530143056     0.278587623339     0.295068529617    14.003074004430
         C           -0.948186856944    -0.484534376661    -0.110057470383    12.000000000000
         C           -1.202809856944    -1.685585376661     0.803651529617    12.000000000000
         C            2.592402143056     0.786450623339     0.367858529617    12.000000000000
         C            1.463485143056    -0.134674376661    -0.066406470383    12.000000000000
         C           -2.190982856944     0.371593623339    -0.181032470383    12.000000000000
         C            3.947637143056     0.289306623339    -0.111918470383    12.000000000000
         H           -0.768410856944    -0.861515376661    -1.124783470383     1.007825032230
         H            0.075671143056     1.197231623339     0.697783529617     1.007825032230
         H           -1.369790856944    -1.349480376661     1.830291529617     1.007825032230
         H           -2.077543856944    -2.241987376661     0.460085529617     1.007825032230
         H           -0.325445856944    -2.332542376661     0.775029529617     1.007825032230
         H            2.388027143056     1.795885623339    -0.014647470383     1.007825032230
         H            2.574266143056     0.864238623339     1.461943529617     1.007825032230
         H            4.153006143056    -0.708431376661     0.281629529617     1.007825032230
         H            3.969541143056     0.224682623339    -1.201252470383     1.007825032230
         H            4.740321143056     0.967488623339     0.217159529617     1.007825032230
         H           -2.851022856944     2.105307623339     0.105775529617     1.007825032230

  Basis Set: AUG-CC-PVTZ
    Blend: AUG-CC-PVTZ
  Basis Set: (AUG-CC-PVTZ AUX)
    Blend: AUG-CC-PVTZ-JKFIT
	 Reference Energy          =    -512.8846882189612870 [Eh]
	 Singles Energy            =      -0.0000000000000000 [Eh]
	 Same-Spin Energy          =      -0.5116548549901165 [Eh]
	 Opposite-Spin Energy      =      -1.6155392902661885 [Eh]
	 Correlation Energy        =      -2.1271941452563050 [Eh]
	 Total Energy              =    -515.0118823642176267 [Eh]

	 ================> DF-SCS-MP2 Energies <==================
	-----------------------------------------------------------
	 SCS Same-Spin Scale       =       0.3333333333333333 [-]
	 SCS Opposite-Spin Scale   =       1.2000000000000000 [-]
	 SCS Same-Spin Energy      =      -0.1705516183300388 [Eh]
	 SCS Opposite-Spin Energy  =      -1.9386471483194261 [Eh]
	 SCS Correlation Energy    =      -2.1091987666494649 [Eh]
	 SCS Total Energy          =    -514.9938869856107431 [Eh]
	-----------------------------------------------------------

  Dipole Moment: [D]
     X:    -0.0916      Y:     3.3564      Z:     1.9593     Total:     3.8875

*** Psi4 exiting successfully. Buy a developer a beer!
