                               Psi4 1.3.2 release

  ==> Input File <==

--------------------------------------------------------------------------
#psi4
#
memory 32 gb

molecule  {
0 1
  O       -1.9756670     1.6664010     0.1857370
  O        1.6511300    -1.1930600    -0.6768240
  O       -3.2820610    -0.0444860    -0.5140140
  N        0.2152580     0.2772540     0.2951010
  C       -0.9464590    -0.4858680    -0.1100250
  C       -1.2010820    -1.6869190     0.8036840
  C        2.5941300     0.7851170     0.3678910
  C        1.4740160    -0.1151201    -0.0590291
  C       -2.1892550     0.3702600    -0.1810000
  C        3.9493650     0.2879730    -0.1118860
  H       -0.7666830    -0.8628490    -1.1247510
  H        0.0947528     1.1989339     0.6964437
  H       -1.3680630    -1.3508140     1.8303240
  H       -2.0758160    -2.2433210     0.4601180
  H       -0.3237180    -2.3338760     0.7750620
  H        2.3897550     1.7945520    -0.0146150
  H        2.5759940     0.8629050     1.4619760
  H        4.1547340    -0.7097650     0.2816620
  H        3.9712690     0.2233490    -1.2012200
  H        4.7420490     0.9661550     0.2171920
  H       -2.8492950     2.1039740     0.1058080
units angstrom
no_reorient  #important for SAPT in psi4, default
symmetry c1  #important for SAPT in psi4, default
}

set PROPERTIES_ORIGIN ["COM"]
properties('MP2/aug-cc-pvtz', properties = ['dipole'])
--------------------------------------------------------------------------

    Molecular point group: c1
  Charge       = 0
  Multiplicity = 1
  Basis Set: AUG-CC-PVTZ
    Blend: AUG-CC-PVTZ
  Basis Set: (AUG-CC-PVTZ AUX)
    Blend: AUG-CC-PVTZ-JKFIT

    Orbital Energies [Eh]
    ---------------------

    Doubly Occupied:

       1A    -20.635768     2A    -20.563831     3A    -20.521575
       4A    -15.593910     5A    -11.404895     6A    -11.357322
       7A    -11.297345     8A    -11.248928     9A    -11.226785
      10A    -11.220663    11A     -1.478285    12A     -1.373669
      13A     -1.369034    14A     -1.242966    15A     -1.078400
      16A     -1.037611    17A     -0.928071    18A     -0.888994
      19A     -0.816795    20A     -0.790513    21A     -0.731721
      22A     -0.714447    23A     -0.683308    24A     -0.665832
      25A     -0.642800    26A     -0.632528    27A     -0.610348
      28A     -0.598928    29A     -0.579058    30A     -0.546774
      31A     -0.543040    32A     -0.525587    33A     -0.520118
      34A     -0.518958    35A     -0.497743    36A     -0.485246
      37A     -0.467558    38A     -0.429341    39A     -0.398612

  @DF-RHF Final Energy:  -512.88327402802918

   => Energetics <=

    Nuclear Repulsion Energy =            548.0119127765190115
    One-Electron Energy =               -1788.0557577855131512
    Two-Electron Energy =                 727.1605709809649625
    Total Energy =                       -512.8832740280291773
  Basis Set: (AUG-CC-PVTZ AUX)
    Blend: AUG-CC-PVTZ-RI
    Molecular point group: c1

    Geometry (in Angstrom), charge = 0, multiplicity = 1:

       Center              X                  Y                   Z               Mass
    ------------   -----------------  -----------------  -----------------  -----------------
         O           -1.976515672516     1.664652088423     0.185139175878    15.994914619570
         O            1.650281327484    -1.194808911577    -0.677421824122    15.994914619570
         O           -3.282909672516    -0.046234911577    -0.514611824122    15.994914619570
         N            0.214409327484     0.275505088423     0.294503175878    14.003074004430
         C           -0.947307672516    -0.487616911577    -0.110622824122    12.000000000000
         C           -1.201930672516    -1.688667911577     0.803086175878    12.000000000000
         C            2.593281327484     0.783368088423     0.367293175878    12.000000000000
         C            1.473167327484    -0.116869011577    -0.059626924122    12.000000000000
         C           -2.190103672516     0.368511088423    -0.181597824122    12.000000000000
         C            3.948516327484     0.286224088423    -0.112483824122    12.000000000000
         H           -0.767531672516    -0.864597911577    -1.125348824122     1.007825032230
         H            0.093904127484     1.197184988423     0.695845875878     1.007825032230
         H           -1.368911672516    -1.352562911577     1.829726175878     1.007825032230
         H           -2.076664672516    -2.245069911577     0.459520175878     1.007825032230
         H           -0.324566672516    -2.335624911577     0.774464175878     1.007825032230
         H            2.388906327484     1.792803088423    -0.015212824122     1.007825032230
         H            2.575145327484     0.861156088423     1.461378175878     1.007825032230
         H            4.153885327484    -0.711513911577     0.281064175878     1.007825032230
         H            3.970420327484     0.221600088423    -1.201817824122     1.007825032230
         H            4.741200327484     0.964406088423     0.216594175878     1.007825032230
         H           -2.850143672516     2.102225088423     0.105210175878     1.007825032230

  Basis Set: AUG-CC-PVTZ
    Blend: AUG-CC-PVTZ
  Basis Set: (AUG-CC-PVTZ AUX)
    Blend: AUG-CC-PVTZ-JKFIT
	 Reference Energy          =    -512.8832740280291773 [Eh]
	 Singles Energy            =      -0.0000000000000000 [Eh]
	 Same-Spin Energy          =      -0.5118846318380655 [Eh]
	 Opposite-Spin Energy      =      -1.6159587317025630 [Eh]
	 Correlation Energy        =      -2.1278433635406286 [Eh]
	 Total Energy              =    -515.0111173915697691 [Eh]

	 ================> DF-SCS-MP2 Energies <==================
	-----------------------------------------------------------
	 SCS Same-Spin Scale       =       0.3333333333333333 [-]
	 SCS Opposite-Spin Scale   =       1.2000000000000000 [-]
	 SCS Same-Spin Energy      =      -0.1706282106126885 [Eh]
	 SCS Opposite-Spin Energy  =      -1.9391504780430755 [Eh]
	 SCS Correlation Energy    =      -2.1097786886557639 [Eh]
	 SCS Total Energy          =    -514.9930527166849288 [Eh]
	-----------------------------------------------------------

  Dipole Moment: [D]
     X:    -0.0046      Y:     3.4047      Z:     2.0100     Total:     3.9537

*** Psi4 exiting successfully. Buy a developer a beer!
