                               Psi4 1.4a3.dev225

  ==> Input File <==

--------------------------------------------------------------------------
#psi4
#
memory 32 gb

molecule  {
0 1
  O        2.1858500    -1.4843500     0.4466430
  O       -1.5901990     1.2021140    -0.7742790
  O        3.2899360     0.0893000    -0.7567370
  N       -0.1552130    -0.3501220     0.0655300
  C        0.9973750     0.5138300    -0.1038320
  C        1.1366130     1.5332170     1.0331740
  C       -2.5208420    -0.9251940    -0.0919400
  C       -1.4008270     0.0814870    -0.2899980
  C        2.2713450    -0.2912280    -0.2118740
  C       -3.8280260    -0.2360070     0.2837800
  H        0.8730408     1.0640353    -1.0639049
  H       -0.0274960    -1.2421660     0.5250420
  H        1.2555520     1.0181310     1.9903510
  H        2.0023980     2.1787030     0.8613650
  H        0.2327940     2.1443920     1.0604580
  H       -2.6404080    -1.4674310    -1.0380590
  H       -2.2372030    -1.6677960     0.6628800
  H       -3.7417830     0.2575120     1.2553170
  H       -4.0728600     0.5241080    -0.4590610
  H       -4.6456460    -0.9595500     0.3374610
  H        3.0673500    -1.9023430     0.3513230
units angstrom
no_reorient  #important for SAPT in psi4, default
symmetry c1  #important for SAPT in psi4, default
}

set PROPERTIES_ORIGIN ["COM"]
properties('MP2/aug-cc-pvtz', properties = ['dipole'])
--------------------------------------------------------------------------

    Molecular point group: c1
  Charge       = 0
  Multiplicity = 1
  Basis Set: AUG-CC-PVTZ
    Blend: AUG-CC-PVTZ
  Basis Set: (AUG-CC-PVTZ AUX)
    Blend: AUG-CC-PVTZ-JKFIT

    Orbital Energies [Eh]
    ---------------------

    Doubly Occupied:

       1A    -20.634557     2A    -20.565073     3A    -20.522663
       4A    -15.596081     5A    -11.404071     6A    -11.356912
       7A    -11.298631     8A    -11.247776     9A    -11.233059
      10A    -11.222415    11A     -1.476553    12A     -1.379483
      13A     -1.372661    14A     -1.245875    15A     -1.075744
      16A     -1.037249    17A     -0.927874    18A     -0.886598
      19A     -0.820314    20A     -0.794582    21A     -0.727614
      22A     -0.714455    23A     -0.680315    24A     -0.660029
      25A     -0.642161    26A     -0.634098    27A     -0.610548
      28A     -0.598561    29A     -0.584452    30A     -0.556355
      31A     -0.550814    32A     -0.526763    33A     -0.523656
      34A     -0.513288    35A     -0.498008    36A     -0.486999
      37A     -0.469263    38A     -0.427638    39A     -0.400292

  @DF-RHF Final Energy:  -512.88563754818722

   => Energetics <=

    Nuclear Repulsion Energy =            547.7804732012826889
    One-Electron Energy =               -1787.5252593762645574
    Two-Electron Energy =                 726.8591486267947630
    Total Energy =                       -512.8856375481872192
  Basis Set: (AUG-CC-PVTZ AUX)
    Blend: AUG-CC-PVTZ-RI
    Molecular point group: c1

    Geometry (in Angstrom), charge = 0, multiplicity = 1:

       Center              X                  Y                   Z               Mass
    ------------   -----------------  -----------------  -----------------  -----------------
         O            2.118078798343    -1.484843997275     0.477502163877    15.994914619570
         O           -1.657970201657     1.201620002725    -0.743419836123    15.994914619570
         O            3.222164798343     0.088806002725    -0.725877836123    15.994914619570
         N           -0.222984201657    -0.350615997275     0.096389163877    14.003074004430
         C            0.929603798343     0.513336002725    -0.072972836123    12.000000000000
         C            1.068841798343     1.532723002725     1.064033163877    12.000000000000
         C           -2.588613201657    -0.925687997275    -0.061080836123    12.000000000000
         C           -1.468598201657     0.080993002725    -0.259138836123    12.000000000000
         C            2.203573798343    -0.291721997275    -0.181014836123    12.000000000000
         C           -3.895797201657    -0.236500997275     0.314639163877    12.000000000000
         H            0.805269598343     1.063541302725    -1.033045736123     1.007825032230
         H           -0.095267201657    -1.242659997275     0.555901163877     1.007825032230
         H            1.187780798343     1.017637002725     2.021210163877     1.007825032230
         H            1.934626798343     2.178209002725     0.892224163877     1.007825032230
         H            0.165022798343     2.143898002725     1.091317163877     1.007825032230
         H           -2.708179201657    -1.467924997275    -1.007199836123     1.007825032230
         H           -2.304974201657    -1.668289997275     0.693739163877     1.007825032230
         H           -3.809554201657     0.257018002725     1.286176163877     1.007825032230
         H           -4.140631201657     0.523614002725    -0.428201836123     1.007825032230
         H           -4.713417201657    -0.960043997275     0.368320163877     1.007825032230
         H            2.999578798343    -1.902836997275     0.382182163877     1.007825032230

  Basis Set: AUG-CC-PVTZ
    Blend: AUG-CC-PVTZ
  Basis Set: (AUG-CC-PVTZ AUX)
    Blend: AUG-CC-PVTZ-JKFIT
	 Reference Energy          =    -512.8856375481872192 [Eh]
	 Singles Energy            =      -0.0000000000000000 [Eh]
	 Same-Spin Energy          =      -0.5112646074293560 [Eh]
	 Opposite-Spin Energy      =      -1.6153198281292729 [Eh]
	 Correlation Energy        =      -2.1265844355586290 [Eh]
	 Total Energy              =    -515.0122219837458033 [Eh]

	 ================> DF-SCS-MP2 Energies <==================
	-----------------------------------------------------------
	 SCS Same-Spin Scale       =       0.3333333333333333 [-]
	 SCS Opposite-Spin Scale   =       1.2000000000000000 [-]
	 SCS Same-Spin Energy      =      -0.1704215358097853 [Eh]
	 SCS Opposite-Spin Energy  =      -1.9383837937551274 [Eh]
	 SCS Correlation Energy    =      -2.1088053295649125 [Eh]
	 SCS Total Energy          =    -514.9944428777521352 [Eh]
	-----------------------------------------------------------

  Dipole Moment: [D]
     X:     0.1314      Y:    -3.2869      Z:     2.2911     Total:     4.0088

*** Psi4 exiting successfully. Buy a developer a beer!
