                               Psi4 1.3.2 release

  ==> Input File <==

--------------------------------------------------------------------------
#psi4
#
memory 32 gb

molecule  {
0 1
  O       -1.9756670     1.6664010     0.1857370
  O        1.6511300    -1.1930600    -0.6768240
  O       -3.2820610    -0.0444860    -0.5140140
  N        0.2152580     0.2772540     0.2951010
  C       -0.9464590    -0.4858680    -0.1100250
  C       -1.2010820    -1.6869190     0.8036840
  C        2.5941300     0.7851170     0.3678910
  C        1.4365310    -0.1978911    -0.0877393
  C       -2.1892550     0.3702600    -0.1810000
  C        3.9493650     0.2879730    -0.1118860
  H       -0.7666830    -0.8628490    -1.1247510
  H        0.0256108     1.1851155     0.7011954
  H       -1.3680630    -1.3508140     1.8303240
  H       -2.0758160    -2.2433210     0.4601180
  H       -0.3237180    -2.3338760     0.7750620
  H        2.3897550     1.7945520    -0.0146150
  H        2.5759940     0.8629050     1.4619760
  H        4.1547340    -0.7097650     0.2816620
  H        3.9712690     0.2233490    -1.2012200
  H        4.7420490     0.9661550     0.2171920
  H       -2.8492950     2.1039740     0.1058080
units angstrom
no_reorient  #important for SAPT in psi4, default
symmetry c1  #important for SAPT in psi4, default
}

set PROPERTIES_ORIGIN ["COM"]
properties('MP2/aug-cc-pvtz', properties = ['dipole'])
--------------------------------------------------------------------------

    Molecular point group: c1
  Charge       = 0
  Multiplicity = 1
  Basis Set: AUG-CC-PVTZ
    Blend: AUG-CC-PVTZ
  Basis Set: (AUG-CC-PVTZ AUX)
    Blend: AUG-CC-PVTZ-JKFIT

    Orbital Energies [Eh]
    ---------------------

    Doubly Occupied:

       1A    -20.636836     2A    -20.563893     3A    -20.533656
       4A    -15.588430     5A    -11.404582     6A    -11.353114
       7A    -11.293994     8A    -11.242122     9A    -11.227500
      10A    -11.215854    11A     -1.479122    12A     -1.419124
      13A     -1.373989    14A     -1.250775    15A     -1.065913
      16A     -1.029442    17A     -0.927542    18A     -0.874552
      19A     -0.817646    20A     -0.797054    21A     -0.728607
      22A     -0.715333    23A     -0.684956    24A     -0.665940
      25A     -0.639098    26A     -0.638427    27A     -0.611887
      28A     -0.610035    29A     -0.584581    30A     -0.548413
      31A     -0.546347    32A     -0.525104    33A     -0.523973
      34A     -0.516283    35A     -0.495981    36A     -0.494095
      37A     -0.468957    38A     -0.420579    39A     -0.404273

  @DF-RHF Final Energy:  -512.88223127271806

   => Energetics <=

    Nuclear Repulsion Energy =            548.8253023544400548
    One-Electron Energy =               -1789.5790527714189011
    Two-Electron Energy =                 727.8715191442607875
    Total Energy =                       -512.8822312727180588
  Basis Set: (AUG-CC-PVTZ AUX)
    Blend: AUG-CC-PVTZ-RI
    Molecular point group: c1

    Geometry (in Angstrom), charge = 0, multiplicity = 1:

       Center              X                  Y                   Z               Mass
    ------------   -----------------  -----------------  -----------------  -----------------
         O           -1.972934717825     1.671594609279     0.187480972257    15.994914619570
         O            1.653862282175    -1.187866390721    -0.675080027743    15.994914619570
         O           -3.279328717825    -0.039292390721    -0.512270027743    15.994914619570
         N            0.217990282175     0.282447609279     0.296844972257    14.003074004430
         C           -0.943726717825    -0.480674390721    -0.108281027743    12.000000000000
         C           -1.198349717825    -1.681725390721     0.805427972257    12.000000000000
         C            2.596862282175     0.790310609279     0.369634972257    12.000000000000
         C            1.439263282175    -0.192697490721    -0.085995327743    12.000000000000
         C           -2.186522717825     0.375453609279    -0.179256027743    12.000000000000
         C            3.952097282175     0.293166609279    -0.110142027743    12.000000000000
         H           -0.763950717825    -0.857655390721    -1.123007027743     1.007825032230
         H            0.028343082175     1.190309109279     0.702939372257     1.007825032230
         H           -1.365330717825    -1.345620390721     1.832067972257     1.007825032230
         H           -2.073083717825    -2.238127390721     0.461861972257     1.007825032230
         H           -0.320985717825    -2.328682390721     0.776805972257     1.007825032230
         H            2.392487282175     1.799745609279    -0.012871027743     1.007825032230
         H            2.578726282175     0.868098609279     1.463719972257     1.007825032230
         H            4.157466282175    -0.704571390721     0.283405972257     1.007825032230
         H            3.974001282175     0.228542609279    -1.199476027743     1.007825032230
         H            4.744781282175     0.971348609279     0.218935972257     1.007825032230
         H           -2.846562717825     2.109167609279     0.107551972257     1.007825032230

  Basis Set: AUG-CC-PVTZ
    Blend: AUG-CC-PVTZ
  Basis Set: (AUG-CC-PVTZ AUX)
    Blend: AUG-CC-PVTZ-JKFIT
	 Reference Energy          =    -512.8822312727180588 [Eh]
	 Singles Energy            =      -0.0000000000000000 [Eh]
	 Same-Spin Energy          =      -0.5102222537089111 [Eh]
	 Opposite-Spin Energy      =      -1.6127166199513379 [Eh]
	 Correlation Energy        =      -2.1229388736602490 [Eh]
	 Total Energy              =    -515.0051701463783047 [Eh]

	 ================> DF-SCS-MP2 Energies <==================
	-----------------------------------------------------------
	 SCS Same-Spin Scale       =       0.3333333333333333 [-]
	 SCS Opposite-Spin Scale   =       1.2000000000000000 [-]
	 SCS Same-Spin Energy      =      -0.1700740845696370 [Eh]
	 SCS Opposite-Spin Energy  =      -1.9352599439416054 [Eh]
	 SCS Correlation Energy    =      -2.1053340285112423 [Eh]
	 SCS Total Energy          =    -514.9875653012293242 [Eh]
	-----------------------------------------------------------

  Dipole Moment: [D]
     X:    -0.1986      Y:     3.0188      Z:     1.8046     Total:     3.5227

*** Psi4 exiting successfully. Buy a developer a beer!
