                               Psi4 1.4a3.dev225

  ==> Input File <==

--------------------------------------------------------------------------
#psi4
#
memory 32 gb

molecule  {
0 1
  O        2.1858500    -1.4843500     0.4466430
  O       -1.5901990     1.2021140    -0.7742790
  O        3.2899360     0.0893000    -0.7567370
  N       -0.1552130    -0.3501220     0.0655300
  C        0.9576406     0.4840460    -0.0979934
  C        1.1366130     1.5332170     1.0331740
  C       -2.5208420    -0.9251940    -0.0919400
  C       -1.4008270     0.0814870    -0.2899980
  C        2.2713450    -0.2912280    -0.2118740
  C       -3.8280260    -0.2360070     0.2837800
  H        0.8752740     1.0541530    -1.0466610
  H       -0.0274960    -1.2421660     0.5250420
  H        1.2555520     1.0181310     1.9903510
  H        2.0023980     2.1787030     0.8613650
  H        0.2327940     2.1443920     1.0604580
  H       -2.6404080    -1.4674310    -1.0380590
  H       -2.2372030    -1.6677960     0.6628800
  H       -3.7417830     0.2575120     1.2553170
  H       -4.0728600     0.5241080    -0.4590610
  H       -4.6456460    -0.9595500     0.3374610
  H        3.0673500    -1.9023430     0.3513230
units angstrom
no_reorient  #important for SAPT in psi4, default
symmetry c1  #important for SAPT in psi4, default
}

set PROPERTIES_ORIGIN ["COM"]
properties('MP2/aug-cc-pvtz', properties = ['dipole'])
--------------------------------------------------------------------------

    Molecular point group: c1
  Charge       = 0
  Multiplicity = 1
  Basis Set: AUG-CC-PVTZ
    Blend: AUG-CC-PVTZ
  Basis Set: (AUG-CC-PVTZ AUX)
    Blend: AUG-CC-PVTZ-JKFIT

    Orbital Energies [Eh]
    ---------------------

    Doubly Occupied:

       1A    -20.632937     2A    -20.564557     3A    -20.525108
       4A    -15.597731     5A    -11.403480     6A    -11.359106
       7A    -11.295695     8A    -11.249204     9A    -11.231936
      10A    -11.223436    11A     -1.475217    12A     -1.383147
      13A     -1.371373    14A     -1.258001    15A     -1.074979
      16A     -1.034426    17A     -0.926728    18A     -0.887830
      19A     -0.822344    20A     -0.799514    21A     -0.730755
      22A     -0.713854    23A     -0.684298    24A     -0.659063
      25A     -0.642836    26A     -0.634929    27A     -0.608912
      28A     -0.597996    29A     -0.589168    30A     -0.557138
      31A     -0.546178    32A     -0.528805    33A     -0.524252
      34A     -0.513954    35A     -0.498312    36A     -0.485798
      37A     -0.467232    38A     -0.430213    39A     -0.398527

  @DF-RHF Final Energy:  -512.88332232955190

   => Energetics <=

    Nuclear Repulsion Energy =            548.3253315145668694
    One-Electron Energy =               -1788.5593750568675659
    Two-Electron Energy =                 727.3507212127487946
    Total Energy =                       -512.8833223295519019
  Basis Set: (AUG-CC-PVTZ AUX)
    Blend: AUG-CC-PVTZ-RI
    Molecular point group: c1

    Geometry (in Angstrom), charge = 0, multiplicity = 1:

       Center              X                  Y                   Z               Mass
    ------------   -----------------  -----------------  -----------------  -----------------
         O            2.121349973567    -1.482311717888     0.476899422528    15.994914619570
         O           -1.654699026433     1.204152282112    -0.744022577472    15.994914619570
         O            3.225435973567     0.091338282112    -0.726480577472    15.994914619570
         N           -0.219713026433    -0.348083717888     0.095786422528    14.003074004430
         C            0.893140573567     0.486084282112    -0.067736977472    12.000000000000
         C            1.072112973567     1.535255282112     1.063430422528    12.000000000000
         C           -2.585342026433    -0.923155717888    -0.061683577472    12.000000000000
         C           -1.465327026433     0.083525282112    -0.259741577472    12.000000000000
         C            2.206844973567    -0.289189717888    -0.181617577472    12.000000000000
         C           -3.892526026433    -0.233968717888     0.314036422528    12.000000000000
         H            0.810773973567     1.056191282112    -1.016404577472     1.007825032230
         H           -0.091996026433    -1.240127717888     0.555298422528     1.007825032230
         H            1.191051973567     1.020169282112     2.020607422528     1.007825032230
         H            1.937897973567     2.180741282112     0.891621422528     1.007825032230
         H            0.168293973567     2.146430282112     1.090714422528     1.007825032230
         H           -2.704908026433    -1.465392717888    -1.007802577472     1.007825032230
         H           -2.301703026433    -1.665757717888     0.693136422528     1.007825032230
         H           -3.806283026433     0.259550282112     1.285573422528     1.007825032230
         H           -4.137360026433     0.526146282112    -0.428804577472     1.007825032230
         H           -4.710146026433    -0.957511717888     0.367717422528     1.007825032230
         H            3.002849973567    -1.900304717888     0.381579422528     1.007825032230

  Basis Set: AUG-CC-PVTZ
    Blend: AUG-CC-PVTZ
  Basis Set: (AUG-CC-PVTZ AUX)
    Blend: AUG-CC-PVTZ-JKFIT
	 Reference Energy          =    -512.8833223295519019 [Eh]
	 Singles Energy            =      -0.0000000000000000 [Eh]
	 Same-Spin Energy          =      -0.5115777921373904 [Eh]
	 Opposite-Spin Energy      =      -1.6153874457817960 [Eh]
	 Correlation Energy        =      -2.1269652379191863 [Eh]
	 Total Energy              =    -515.0102875674710958 [Eh]

	 ================> DF-SCS-MP2 Energies <==================
	-----------------------------------------------------------
	 SCS Same-Spin Scale       =       0.3333333333333333 [-]
	 SCS Opposite-Spin Scale   =       1.2000000000000000 [-]
	 SCS Same-Spin Energy      =      -0.1705259307124635 [Eh]
	 SCS Opposite-Spin Energy  =      -1.9384649349381551 [Eh]
	 SCS Correlation Energy    =      -2.1089908656506187 [Eh]
	 SCS Total Energy          =    -514.9923131952025415 [Eh]
	-----------------------------------------------------------

  Dipole Moment: [D]
     X:    -0.0092      Y:    -3.3519      Z:     2.2622     Total:     4.0439

*** Psi4 exiting successfully. Buy a developer a beer!
