                               Psi4 1.3.2 release

  ==> Input File <==

--------------------------------------------------------------------------
#psi4
#
memory 32 gb

molecule  {
0 1
  O       -1.9756670     1.6664010     0.1857370
  O        1.6511300    -1.1930600    -0.6768240
  O       -3.2820610    -0.0444860    -0.5140140
  N        0.2081000     0.2876362     0.2958735
  C       -0.9464590    -0.4858680    -0.1100250
  C       -1.2010820    -1.6869190     0.8036840
  C        2.5941300     0.7851170     0.3678910
  C        1.4652130    -0.1360080    -0.0663740
  C       -2.1821788     0.3807399    -0.1772686
  C        3.9493650     0.2879730    -0.1118860
  H       -0.7666830    -0.8628490    -1.1247510
  H        0.0773990     1.1958980     0.6978160
  H       -1.3680630    -1.3508140     1.8303240
  H       -2.0758160    -2.2433210     0.4601180
  H       -0.3237180    -2.3338760     0.7750620
  H        2.3897550     1.7945520    -0.0146150
  H        2.5759940     0.8629050     1.4619760
  H        4.1547340    -0.7097650     0.2816620
  H        3.9712690     0.2233490    -1.2012200
  H        4.7420490     0.9661550     0.2171920
  H       -2.8492950     2.1039740     0.1058080
units angstrom
no_reorient  #important for SAPT in psi4, default
symmetry c1  #important for SAPT in psi4, default
}

set PROPERTIES_ORIGIN ["COM"]
properties('MP2/aug-cc-pvtz', properties = ['dipole'])
--------------------------------------------------------------------------

    Molecular point group: c1
  Charge       = 0
  Multiplicity = 1
  Basis Set: AUG-CC-PVTZ
    Blend: AUG-CC-PVTZ
  Basis Set: (AUG-CC-PVTZ AUX)
    Blend: AUG-CC-PVTZ-JKFIT

    Orbital Energies [Eh]
    ---------------------

    Doubly Occupied:

       1A    -20.638957     2A    -20.560627     3A    -20.526734
       4A    -15.591278     5A    -11.404607     6A    -11.357851
       7A    -11.296136     8A    -11.247975     9A    -11.226583
      10A    -11.219896    11A     -1.481154    12A     -1.380883
      13A     -1.368169    14A     -1.245198    15A     -1.074462
      16A     -1.035259    17A     -0.928587    18A     -0.886049
      19A     -0.819814    20A     -0.792745    21A     -0.730718
      22A     -0.714997    23A     -0.683120    24A     -0.665740
      25A     -0.641490    26A     -0.633339    27A     -0.608237
      28A     -0.603959    29A     -0.581494    30A     -0.546240
      31A     -0.543110    32A     -0.524861    33A     -0.520517
      34A     -0.519308    35A     -0.495887    36A     -0.486429
      37A     -0.466576    38A     -0.429462    39A     -0.400364

  @DF-RHF Final Energy:  -512.88496170353892

   => Energetics <=

    Nuclear Repulsion Energy =            548.1116237090371897
    One-Electron Energy =               -1788.2355451935316069
    Two-Electron Energy =                 727.2389597809556108
    Total Energy =                       -512.8849617035389201
  Basis Set: (AUG-CC-PVTZ AUX)
    Blend: AUG-CC-PVTZ-RI
    Molecular point group: c1

    Geometry (in Angstrom), charge = 0, multiplicity = 1:

       Center              X                  Y                   Z               Mass
    ------------   -----------------  -----------------  -----------------  -----------------
         O           -1.975561364372     1.664531963026     0.185353973912    15.994914619570
         O            1.651235635628    -1.194929036974    -0.677207026088    15.994914619570
         O           -3.281955364372    -0.046355036974    -0.514397026088    15.994914619570
         N            0.208205635628     0.285767163026     0.295490473912    14.003074004430
         C           -0.946353364372    -0.487737036974    -0.110408026088    12.000000000000
         C           -1.200976364372    -1.688788036974     0.803300973912    12.000000000000
         C            2.594235635628     0.783247963026     0.367507973912    12.000000000000
         C            1.465318635628    -0.137877036974    -0.066757026088    12.000000000000
         C           -2.182073164372     0.378870863026    -0.177651626088    12.000000000000
         C            3.949470635628     0.286103963026    -0.112269026088    12.000000000000
         H           -0.766577364372    -0.864718036974    -1.125134026088     1.007825032230
         H            0.077504635628     1.194028963026     0.697432973912     1.007825032230
         H           -1.367957364372    -1.352683036974     1.829940973912     1.007825032230
         H           -2.075710364372    -2.245190036974     0.459734973912     1.007825032230
         H           -0.323612364372    -2.335745036974     0.774678973912     1.007825032230
         H            2.389860635628     1.792682963026    -0.014998026088     1.007825032230
         H            2.576099635628     0.861035963026     1.461592973912     1.007825032230
         H            4.154839635628    -0.711634036974     0.281278973912     1.007825032230
         H            3.971374635628     0.221479963026    -1.201603026088     1.007825032230
         H            4.742154635628     0.964285963026     0.216808973912     1.007825032230
         H           -2.849189364372     2.102104963026     0.105424973912     1.007825032230

  Basis Set: AUG-CC-PVTZ
    Blend: AUG-CC-PVTZ
  Basis Set: (AUG-CC-PVTZ AUX)
    Blend: AUG-CC-PVTZ-JKFIT
	 Reference Energy          =    -512.8849617035389201 [Eh]
	 Singles Energy            =      -0.0000000000000000 [Eh]
	 Same-Spin Energy          =      -0.5114727248003543 [Eh]
	 Opposite-Spin Energy      =      -1.6151768755975082 [Eh]
	 Correlation Energy        =      -2.1266496003978625 [Eh]
	 Total Energy              =    -515.0116113039367747 [Eh]

	 ================> DF-SCS-MP2 Energies <==================
	-----------------------------------------------------------
	 SCS Same-Spin Scale       =       0.3333333333333333 [-]
	 SCS Opposite-Spin Scale   =       1.2000000000000000 [-]
	 SCS Same-Spin Energy      =      -0.1704909082667848 [Eh]
	 SCS Opposite-Spin Energy  =      -1.9382122507170099 [Eh]
	 SCS Correlation Energy    =      -2.1087031589837948 [Eh]
	 SCS Total Energy          =    -514.9936648625226780 [Eh]
	-----------------------------------------------------------

  Dipole Moment: [D]
     X:     0.0614      Y:     3.3700      Z:     1.9810     Total:     3.9096

*** Psi4 exiting successfully. Buy a developer a beer!
