                               Psi4 1.3.2 release

  ==> Input File <==

--------------------------------------------------------------------------
#psi4
#
memory 32 gb

molecule  {
0 1
  O       -1.9756670     1.6664010     0.1857370
  O        1.6511300    -1.1930600    -0.6768240
  O       -3.2820610    -0.0444860    -0.5140140
  N        0.2152580     0.2772540     0.2951010
  C       -0.9464590    -0.4858680    -0.1100250
  C       -1.1678073    -1.5299631     0.6842786
  C        2.5941300     0.7851170     0.3678910
  C        1.4652130    -0.1360080    -0.0663740
  C       -2.1892550     0.3702600    -0.1810000
  C        3.9493650     0.2879730    -0.1118860
  H       -0.7666830    -0.8628490    -1.1247510
  H        0.0773990     1.1958980     0.6978160
  H       -1.3680630    -1.3508140     1.8303240
  H       -2.0758160    -2.2433210     0.4601180
  H       -0.3237180    -2.3338760     0.7750620
  H        2.3897550     1.7945520    -0.0146150
  H        2.5759940     0.8629050     1.4619760
  H        4.1547340    -0.7097650     0.2816620
  H        3.9712690     0.2233490    -1.2012200
  H        4.7420490     0.9661550     0.2171920
  H       -2.8492950     2.1039740     0.1058080
units angstrom
no_reorient  #important for SAPT in psi4, default
symmetry c1  #important for SAPT in psi4, default
}

set PROPERTIES_ORIGIN ["COM"]
properties('MP2/aug-cc-pvtz', properties = ['dipole'])
--------------------------------------------------------------------------

    Molecular point group: c1
  Charge       = 0
  Multiplicity = 1
  Basis Set: AUG-CC-PVTZ
    Blend: AUG-CC-PVTZ
  Basis Set: (AUG-CC-PVTZ AUX)
    Blend: AUG-CC-PVTZ-JKFIT

    Orbital Energies [Eh]
    ---------------------

    Doubly Occupied:

       1A    -20.637410     2A    -20.565771     3A    -20.524529
       4A    -15.591865     5A    -11.406471     6A    -11.356443
       7A    -11.288515     8A    -11.247591     9A    -11.235478
      10A    -11.219491    11A     -1.480219    12A     -1.381256
      13A     -1.375384    14A     -1.253819    15A     -1.100090
      16A     -1.046610    17A     -0.921603    18A     -0.886603
      19A     -0.811517    20A     -0.793409    21A     -0.737740
      22A     -0.716202    23A     -0.690129    24A     -0.669445
      25A     -0.646393    26A     -0.641530    27A     -0.615549
      28A     -0.612212    29A     -0.598645    30A     -0.547518
      31A     -0.533414    32A     -0.519495    33A     -0.509176
      34A     -0.500196    35A     -0.489090    36A     -0.484345
      37A     -0.455602    38A     -0.426668    39A     -0.406905

  @DF-RHF Final Energy:  -512.83643421841316

   => Energetics <=

    Nuclear Repulsion Energy =            552.2863514617523606
    One-Electron Energy =               -1796.3969153111725063
    Two-Electron Energy =                 731.2741296310068719
    Total Energy =                       -512.8364342184131601
  Basis Set: (AUG-CC-PVTZ AUX)
    Blend: AUG-CC-PVTZ-RI
    Molecular point group: c1

    Geometry (in Angstrom), charge = 0, multiplicity = 1:

       Center              X                  Y                   Z               Mass
    ------------   -----------------  -----------------  -----------------  -----------------
         O           -1.978419328644     1.653418114426     0.195613979635    15.994914619570
         O            1.648377671356    -1.206042885574    -0.666947020365    15.994914619570
         O           -3.284813328644    -0.057468885574    -0.504137020365    15.994914619570
         N            0.212505671356     0.264271114426     0.304977979635    14.003074004430
         C           -0.949211328644    -0.498850885574    -0.100148020365    12.000000000000
         C           -1.170559628644    -1.542945985574     0.694155579635    12.000000000000
         C            2.591377671356     0.772134114426     0.377767979635    12.000000000000
         C            1.462460671356    -0.148990885574    -0.056497020365    12.000000000000
         C           -2.192007328644     0.357277114426    -0.171123020365    12.000000000000
         C            3.946612671356     0.274990114426    -0.102009020365    12.000000000000
         H           -0.769435328644    -0.875831885574    -1.114874020365     1.007825032230
         H            0.074646671356     1.182915114426     0.707692979635     1.007825032230
         H           -1.370815328644    -1.363796885574     1.840200979635     1.007825032230
         H           -2.078568328644    -2.256303885574     0.469994979635     1.007825032230
         H           -0.326470328644    -2.346858885574     0.784938979635     1.007825032230
         H            2.387002671356     1.781569114426    -0.004738020365     1.007825032230
         H            2.573241671356     0.849922114426     1.471852979635     1.007825032230
         H            4.151981671356    -0.722747885574     0.291538979635     1.007825032230
         H            3.968516671356     0.210366114426    -1.191343020365     1.007825032230
         H            4.739296671356     0.953172114426     0.227068979635     1.007825032230
         H           -2.852047328644     2.090991114426     0.115684979635     1.007825032230

  Basis Set: AUG-CC-PVTZ
    Blend: AUG-CC-PVTZ
  Basis Set: (AUG-CC-PVTZ AUX)
    Blend: AUG-CC-PVTZ-JKFIT
	 Reference Energy          =    -512.8364342184131601 [Eh]
	 Singles Energy            =      -0.0000000000000000 [Eh]
	 Same-Spin Energy          =      -0.5143507987280961 [Eh]
	 Opposite-Spin Energy      =      -1.6191639272562246 [Eh]
	 Correlation Energy        =      -2.1335147259843206 [Eh]
	 Total Energy              =    -514.9699489443975153 [Eh]

	 ================> DF-SCS-MP2 Energies <==================
	-----------------------------------------------------------
	 SCS Same-Spin Scale       =       0.3333333333333333 [-]
	 SCS Opposite-Spin Scale   =       1.2000000000000000 [-]
	 SCS Same-Spin Energy      =      -0.1714502662426987 [Eh]
	 SCS Opposite-Spin Energy  =      -1.9429967127074694 [Eh]
	 SCS Correlation Energy    =      -2.1144469789501681 [Eh]
	 SCS Total Energy          =    -514.9508811973632874 [Eh]
	-----------------------------------------------------------

  Dipole Moment: [D]
     X:    -0.1019      Y:     3.2974      Z:     1.9212     Total:     3.8176

*** Psi4 exiting successfully. Buy a developer a beer!
