                               Psi4 1.3.2 release

  ==> Input File <==

--------------------------------------------------------------------------
#psi4
#
memory 32 gb

molecule  {
0 1
  O       -1.9756670     1.6664010     0.1857370
  O        1.6617514    -1.1912595    -0.6766119
  O       -3.2820610    -0.0444860    -0.5140140
  N        0.2152580     0.2772540     0.2951010
  C       -0.9464590    -0.4858680    -0.1100250
  C       -1.2010820    -1.6869190     0.8036840
  C        2.6029308     0.7767696     0.3625155
  C        1.4652130    -0.1360080    -0.0663740
  C       -2.1892550     0.3702600    -0.1810000
  C        3.9493650     0.2879730    -0.1118860
  H       -0.7666830    -0.8628490    -1.1247510
  H        0.0773990     1.1958980     0.6978160
  H       -1.3680630    -1.3508140     1.8303240
  H       -2.0758160    -2.2433210     0.4601180
  H       -0.3237180    -2.3338760     0.7750620
  H        2.3897550     1.7945520    -0.0146150
  H        2.5759940     0.8629050     1.4619760
  H        4.1547340    -0.7097650     0.2816620
  H        3.9712690     0.2233490    -1.2012200
  H        4.7420490     0.9661550     0.2171920
  H       -2.8492950     2.1039740     0.1058080
units angstrom
no_reorient  #important for SAPT in psi4, default
symmetry c1  #important for SAPT in psi4, default
}

set PROPERTIES_ORIGIN ["COM"]
properties('MP2/aug-cc-pvtz', properties = ['dipole'])
--------------------------------------------------------------------------

    Molecular point group: c1
  Charge       = 0
  Multiplicity = 1
  Basis Set: AUG-CC-PVTZ
    Blend: AUG-CC-PVTZ
  Basis Set: (AUG-CC-PVTZ AUX)
    Blend: AUG-CC-PVTZ-JKFIT

    Orbital Energies [Eh]
    ---------------------

    Doubly Occupied:

       1A    -20.636227     2A    -20.564074     3A    -20.524383
       4A    -15.593064     5A    -11.405078     6A    -11.356058
       7A    -11.296930     8A    -11.247718     9A    -11.227213
      10A    -11.218598    11A     -1.478694    12A     -1.380460
      13A     -1.373800    14A     -1.245988    15A     -1.075198
      16A     -1.036939    17A     -0.928124    18A     -0.885128
      19A     -0.816989    20A     -0.792210    21A     -0.730684
      22A     -0.714827    23A     -0.683111    24A     -0.665838
      25A     -0.640255    26A     -0.633437    27A     -0.610684
      28A     -0.602757    29A     -0.581202    30A     -0.547409
      31A     -0.544357    32A     -0.526689    33A     -0.520379
      34A     -0.518653    35A     -0.496442    36A     -0.486914
      37A     -0.468193    38A     -0.428174    39A     -0.400662

  @DF-RHF Final Energy:  -512.88565786161757

   => Energetics <=

    Nuclear Repulsion Energy =            548.1783491483125772
    One-Electron Energy =               -1788.3609353153560733
    Two-Electron Energy =                 727.2969283054260359
    Total Energy =                       -512.8856578616175739
  Basis Set: (AUG-CC-PVTZ AUX)
    Blend: AUG-CC-PVTZ-RI
    Molecular point group: c1

    Geometry (in Angstrom), charge = 0, multiplicity = 1:

       Center              X                  Y                   Z               Mass
    ------------   -----------------  -----------------  -----------------  -----------------
         O           -1.977565981353     1.666892907946     0.186158444315    15.994914619570
         O            1.659852418647    -1.190767592054    -0.676190455685    15.994914619570
         O           -3.283959981353    -0.043994092054    -0.513592555685    15.994914619570
         N            0.213359018647     0.277745907946     0.295522444315    14.003074004430
         C           -0.948357981353    -0.485376092054    -0.109603555685    12.000000000000
         C           -1.202980981353    -1.686427092054     0.804105444315    12.000000000000
         C            2.601031818647     0.777261507946     0.362936944315    12.000000000000
         C            1.463314018647    -0.135516092054    -0.065952555685    12.000000000000
         C           -2.191153981353     0.370751907946    -0.180578555685    12.000000000000
         C            3.947466018647     0.288464907946    -0.111464555685    12.000000000000
         H           -0.768581981353    -0.862357092054    -1.124329555685     1.007825032230
         H            0.075500018647     1.196389907946     0.698237444315     1.007825032230
         H           -1.369961981353    -1.350322092054     1.830745444315     1.007825032230
         H           -2.077714981353    -2.242829092054     0.460539444315     1.007825032230
         H           -0.325616981353    -2.333384092054     0.775483444315     1.007825032230
         H            2.387856018647     1.795043907946    -0.014193555685     1.007825032230
         H            2.574095018647     0.863396907946     1.462397444315     1.007825032230
         H            4.152835018647    -0.709273092054     0.282083444315     1.007825032230
         H            3.969370018647     0.223840907946    -1.200798555685     1.007825032230
         H            4.740150018647     0.966646907946     0.217613444315     1.007825032230
         H           -2.851193981353     2.104465907946     0.106229444315     1.007825032230

  Basis Set: AUG-CC-PVTZ
    Blend: AUG-CC-PVTZ
  Basis Set: (AUG-CC-PVTZ AUX)
    Blend: AUG-CC-PVTZ-JKFIT
	 Reference Energy          =    -512.8856578616175739 [Eh]
	 Singles Energy            =      -0.0000000000000000 [Eh]
	 Same-Spin Energy          =      -0.5114214023691075 [Eh]
	 Opposite-Spin Energy      =      -1.6149916478992199 [Eh]
	 Correlation Energy        =      -2.1264130502683276 [Eh]
	 Total Energy              =    -515.0120709118858713 [Eh]

	 ================> DF-SCS-MP2 Energies <==================
	-----------------------------------------------------------
	 SCS Same-Spin Scale       =       0.3333333333333333 [-]
	 SCS Opposite-Spin Scale   =       1.2000000000000000 [-]
	 SCS Same-Spin Energy      =      -0.1704738007897025 [Eh]
	 SCS Opposite-Spin Energy  =      -1.9379899774790639 [Eh]
	 SCS Correlation Energy    =      -2.1084637782687663 [Eh]
	 SCS Total Energy          =    -514.9941216398863162 [Eh]
	-----------------------------------------------------------

  Dipole Moment: [D]
     X:    -0.0762      Y:     3.3056      Z:     1.9587     Total:     3.8431

*** Psi4 exiting successfully. Buy a developer a beer!
