                               Psi4 1.3.2 release

  ==> Input File <==

--------------------------------------------------------------------------
#psi4
#
memory 32 gb

molecule  {
0 1
  O       -1.9756670     1.6664010     0.1857370
  O        1.6511300    -1.1930600    -0.6768240
  O       -3.2820610    -0.0444860    -0.5140140
  N        0.2152580     0.2772540     0.2951010
  C       -0.8998108    -0.5413341    -0.1322205
  C       -1.2010820    -1.6869190     0.8036840
  C        2.5941300     0.7851170     0.3678910
  C        1.4652130    -0.1360080    -0.0663740
  C       -2.1892550     0.3702600    -0.1810000
  C        3.9493650     0.2879730    -0.1118860
  H       -0.7666830    -0.8628490    -1.1247510
  H        0.1300148     1.2001553     0.7026278
  H       -1.3680630    -1.3508140     1.8303240
  H       -2.0758160    -2.2433210     0.4601180
  H       -0.3237180    -2.3338760     0.7750620
  H        2.3897550     1.7945520    -0.0146150
  H        2.5759940     0.8629050     1.4619760
  H        4.1547340    -0.7097650     0.2816620
  H        3.9712690     0.2233490    -1.2012200
  H        4.7420490     0.9661550     0.2171920
  H       -2.8492950     2.1039740     0.1058080
units angstrom
no_reorient  #important for SAPT in psi4, default
symmetry c1  #important for SAPT in psi4, default
}

set PROPERTIES_ORIGIN ["COM"]
properties('MP2/aug-cc-pvtz', properties = ['dipole'])
--------------------------------------------------------------------------

    Molecular point group: c1
  Charge       = 0
  Multiplicity = 1
  Basis Set: AUG-CC-PVTZ
    Blend: AUG-CC-PVTZ
  Basis Set: (AUG-CC-PVTZ AUX)
    Blend: AUG-CC-PVTZ-JKFIT

    Orbital Energies [Eh]
    ---------------------

    Doubly Occupied:

       1A    -20.634371     2A    -20.562361     3A    -20.524095
       4A    -15.592304     5A    -11.403015     6A    -11.354127
       7A    -11.298580     8A    -11.247540     9A    -11.225347
      10A    -11.219610    11A     -1.474959    12A     -1.381176
      13A     -1.371089    14A     -1.245220    15A     -1.074534
      16A     -1.035385    17A     -0.921478    18A     -0.881210
      19A     -0.822324    20A     -0.787925    21A     -0.726403
      22A     -0.712856    23A     -0.684499    24A     -0.664204
      25A     -0.641444    26A     -0.636318    27A     -0.606589
      28A     -0.604432    29A     -0.586675    30A     -0.547661
      31A     -0.538726    32A     -0.526040    33A     -0.524381
      34A     -0.519600    35A     -0.496550    36A     -0.490372
      37A     -0.459439    38A     -0.427779    39A     -0.401761

  @DF-RHF Final Energy:  -512.88049054592943

   => Energetics <=

    Nuclear Repulsion Energy =            547.7778147027562454
    One-Electron Energy =               -1787.6118458856908546
    Two-Electron Energy =                 726.9535406370052897
    Total Energy =                       -512.8804905459294332
  Basis Set: (AUG-CC-PVTZ AUX)
    Blend: AUG-CC-PVTZ-RI
    Molecular point group: c1

    Geometry (in Angstrom), charge = 0, multiplicity = 1:

       Center              X                  Y                   Z               Mass
    ------------   -----------------  -----------------  -----------------  -----------------
         O           -1.979891058089     1.670959336558     0.187539692618    15.994914619570
         O            1.646905941911    -1.188501663442    -0.675021307382    15.994914619570
         O           -3.286285058089    -0.039927663442    -0.512211307382    15.994914619570
         N            0.211033941911     0.281812336558     0.296903692618    14.003074004430
         C           -0.904034858089    -0.536775763442    -0.130417807382    12.000000000000
         C           -1.205306058089    -1.682360663442     0.805486692618    12.000000000000
         C            2.589905941911     0.789675336558     0.369693692618    12.000000000000
         C            1.460988941911    -0.131449663442    -0.064571307382    12.000000000000
         C           -2.193479058089     0.374818336558    -0.179197307382    12.000000000000
         C            3.945140941911     0.292531336558    -0.110083307382    12.000000000000
         H           -0.770907058089    -0.858290663442    -1.122948307382     1.007825032230
         H            0.125790741911     1.204713636558     0.704430492618     1.007825032230
         H           -1.372287058089    -1.346255663442     1.832126692618     1.007825032230
         H           -2.080040058089    -2.238762663442     0.461920692618     1.007825032230
         H           -0.327942058089    -2.329317663442     0.776864692618     1.007825032230
         H            2.385530941911     1.799110336558    -0.012812307382     1.007825032230
         H            2.571769941911     0.867463336558     1.463778692618     1.007825032230
         H            4.150509941911    -0.705206663442     0.283464692618     1.007825032230
         H            3.967044941911     0.227907336558    -1.199417307382     1.007825032230
         H            4.737824941911     0.970713336558     0.218994692618     1.007825032230
         H           -2.853519058089     2.108532336558     0.107610692618     1.007825032230

  Basis Set: AUG-CC-PVTZ
    Blend: AUG-CC-PVTZ
  Basis Set: (AUG-CC-PVTZ AUX)
    Blend: AUG-CC-PVTZ-JKFIT
	 Reference Energy          =    -512.8804905459294332 [Eh]
	 Singles Energy            =      -0.0000000000000000 [Eh]
	 Same-Spin Energy          =      -0.5110712240708106 [Eh]
	 Opposite-Spin Energy      =      -1.6146679450375541 [Eh]
	 Correlation Energy        =      -2.1257391691083649 [Eh]
	 Total Energy              =    -515.0062297150377617 [Eh]

	 ================> DF-SCS-MP2 Energies <==================
	-----------------------------------------------------------
	 SCS Same-Spin Scale       =       0.3333333333333333 [-]
	 SCS Opposite-Spin Scale   =       1.2000000000000000 [-]
	 SCS Same-Spin Energy      =      -0.1703570746902702 [Eh]
	 SCS Opposite-Spin Energy  =      -1.9376015340450647 [Eh]
	 SCS Correlation Energy    =      -2.1079586087353350 [Eh]
	 SCS Total Energy          =    -514.9884491546647496 [Eh]
	-----------------------------------------------------------

  Dipole Moment: [D]
     X:    -0.0199      Y:     3.2980      Z:     1.9645     Total:     3.8388

*** Psi4 exiting successfully. Buy a developer a beer!
