                               Psi4 1.3.2 release

  ==> Input File <==

--------------------------------------------------------------------------
#psi4
#
memory 32 gb

molecule  {
0 1
  O       -1.9756670     1.6664010     0.1857370
  O        1.6511300    -1.1930600    -0.6768240
  O       -3.2820610    -0.0444860    -0.5140140
  N        0.2152580     0.2772540     0.2951010
  C       -0.9464590    -0.4858680    -0.1100250
  C       -1.2010820    -1.6869190     0.8036840
  C        2.5941300     0.7851170     0.3678910
  C        1.4652130    -0.1360080    -0.0663740
  C       -2.1431351     0.3613470    -0.1732699
  C        3.9493650     0.2879730    -0.1118860
  H       -0.7666830    -0.8628490    -1.1247510
  H        0.0773990     1.1958980     0.6978160
  H       -1.3680630    -1.3508140     1.8303240
  H       -2.0758160    -2.2433210     0.4601180
  H       -0.3237180    -2.3338760     0.7750620
  H        2.3897550     1.7945520    -0.0146150
  H        2.5759940     0.8629050     1.4619760
  H        4.1547340    -0.7097650     0.2816620
  H        3.9712690     0.2233490    -1.2012200
  H        4.7420490     0.9661550     0.2171920
  H       -2.8349086     2.1332483     0.1161510
units angstrom
no_reorient  #important for SAPT in psi4, default
symmetry c1  #important for SAPT in psi4, default
}

set PROPERTIES_ORIGIN ["COM"]
properties('MP2/aug-cc-pvtz', properties = ['dipole'])
--------------------------------------------------------------------------

    Molecular point group: c1
  Charge       = 0
  Multiplicity = 1
  Basis Set: AUG-CC-PVTZ
    Blend: AUG-CC-PVTZ
  Basis Set: (AUG-CC-PVTZ AUX)
    Blend: AUG-CC-PVTZ-JKFIT

    Orbital Energies [Eh]
    ---------------------

    Doubly Occupied:

       1A    -20.636312     2A    -20.557090     3A    -20.526554
       4A    -15.594652     5A    -11.408971     6A    -11.357984
       7A    -11.298382     8A    -11.248881     9A    -11.229827
      10A    -11.220537    11A     -1.470418    12A     -1.382611
      13A     -1.349264    14A     -1.249468    15A     -1.080640
      16A     -1.040100    17A     -0.935494    18A     -0.888434
      19A     -0.822550    20A     -0.794089    21A     -0.733963
      22A     -0.707451    23A     -0.684601    24A     -0.665350
      25A     -0.641748    26A     -0.628883    27A     -0.605676
      28A     -0.601591    29A     -0.582383    30A     -0.549083
      31A     -0.544215    32A     -0.525385    33A     -0.521730
      34A     -0.520397    35A     -0.495163    36A     -0.478840
      37A     -0.466357    38A     -0.430591    39A     -0.402688

  @DF-RHF Final Energy:  -512.87803738976652

   => Energetics <=

    Nuclear Repulsion Energy =            548.3629096271458820
    One-Electron Energy =               -1788.7251868739579095
    Two-Electron Energy =                 727.4842398570455089
    Total Energy =                       -512.8780373897665186
  Basis Set: (AUG-CC-PVTZ AUX)
    Blend: AUG-CC-PVTZ-RI
    Molecular point group: c1

    Geometry (in Angstrom), charge = 0, multiplicity = 1:

       Center              X                  Y                   Z               Mass
    ------------   -----------------  -----------------  -----------------  -----------------
         O           -1.979581780208     1.666934836037     0.185025927573    15.994914619570
         O            1.647215219792    -1.192526163963    -0.677535072427    15.994914619570
         O           -3.285975780208    -0.043952163963    -0.514725072427    15.994914619570
         N            0.211343219792     0.277787836037     0.294389927573    14.003074004430
         C           -0.950373780208    -0.485334163963    -0.110736072427    12.000000000000
         C           -1.204996780208    -1.686385163963     0.802972927573    12.000000000000
         C            2.590215219792     0.785650836037     0.367179927573    12.000000000000
         C            1.461298219792    -0.135474163963    -0.067085072427    12.000000000000
         C           -2.147049880208     0.361880836037    -0.173980972427    12.000000000000
         C            3.945450219792     0.288506836037    -0.112597072427    12.000000000000
         H           -0.770597780208    -0.862315163963    -1.125462072427     1.007825032230
         H            0.073484219792     1.196431836037     0.697104927573     1.007825032230
         H           -1.371977780208    -1.350280163963     1.829612927573     1.007825032230
         H           -2.079730780208    -2.242787163963     0.459406927573     1.007825032230
         H           -0.327632780208    -2.333342163963     0.774350927573     1.007825032230
         H            2.385840219792     1.795085836037    -0.015326072427     1.007825032230
         H            2.572079219792     0.863438836037     1.461264927573     1.007825032230
         H            4.150819219792    -0.709231163963     0.280950927573     1.007825032230
         H            3.967354219792     0.223882836037    -1.201931072427     1.007825032230
         H            4.738134219792     0.966688836037     0.216480927573     1.007825032230
         H           -2.838823380208     2.133782136037     0.115439927573     1.007825032230

  Basis Set: AUG-CC-PVTZ
    Blend: AUG-CC-PVTZ
  Basis Set: (AUG-CC-PVTZ AUX)
    Blend: AUG-CC-PVTZ-JKFIT
	 Reference Energy          =    -512.8780373897665186 [Eh]
	 Singles Energy            =      -0.0000000000000000 [Eh]
	 Same-Spin Energy          =      -0.5124445230414101 [Eh]
	 Opposite-Spin Energy      =      -1.6170123272691628 [Eh]
	 Correlation Energy        =      -2.1294568503105729 [Eh]
	 Total Energy              =    -515.0074942400771079 [Eh]

	 ================> DF-SCS-MP2 Energies <==================
	-----------------------------------------------------------
	 SCS Same-Spin Scale       =       0.3333333333333333 [-]
	 SCS Opposite-Spin Scale   =       1.2000000000000000 [-]
	 SCS Same-Spin Energy      =      -0.1708148410138033 [Eh]
	 SCS Opposite-Spin Energy  =      -1.9404147927229953 [Eh]
	 SCS Correlation Energy    =      -2.1112296337367988 [Eh]
	 SCS Total Energy          =    -514.9892670235033165 [Eh]
	-----------------------------------------------------------

  Dipole Moment: [D]
     X:     0.2480      Y:     3.3240      Z:     2.0377     Total:     3.9068

*** Psi4 exiting successfully. Buy a developer a beer!
