                               Psi4 1.4a3.dev225

  ==> Input File <==

--------------------------------------------------------------------------
#psi4
#
memory 32 gb

molecule  {
0 1
  O        2.1858500    -1.4843500     0.4466430
  O       -1.5901990     1.2021140    -0.7742790
  O        3.2899360     0.0893000    -0.7567370
  N       -0.1552130    -0.3501220     0.0655300
  C        0.9973750     0.5138300    -0.1038320
  C        1.1366130     1.5332170     1.0331740
  C       -2.5208420    -0.9251940    -0.0919400
  C       -1.4008270     0.0814870    -0.2899980
  C        2.2713450    -0.2912280    -0.2118740
  C       -3.8280260    -0.2360070     0.2837800
  H        0.8752740     1.0541530    -1.0466610
  H       -0.0274960    -1.2421660     0.5250420
  H        1.2555520     1.0181310     1.9903510
  H        2.0023980     2.1787030     0.8613650
  H        0.2327940     2.1443920     1.0604580
  H       -2.6404080    -1.4674310    -1.0380590
  H       -2.2372030    -1.6677960     0.6628800
  H       -3.7417830     0.2575120     1.2553170
  H       -4.0728600     0.5241080    -0.4590610
  H       -4.6456460    -0.9595500     0.3374610
  H        3.0853356    -1.9108715     0.3493781
units angstrom
no_reorient  #important for SAPT in psi4, default
symmetry c1  #important for SAPT in psi4, default
}

set PROPERTIES_ORIGIN ["COM"]
properties('MP2/aug-cc-pvtz', properties = ['dipole'])
--------------------------------------------------------------------------

    Molecular point group: c1
  Charge       = 0
  Multiplicity = 1
  Basis Set: AUG-CC-PVTZ
    Blend: AUG-CC-PVTZ
  Basis Set: (AUG-CC-PVTZ AUX)
    Blend: AUG-CC-PVTZ-JKFIT

    Orbital Energies [Eh]
    ---------------------

    Doubly Occupied:

       1A    -20.635672     2A    -20.564803     3A    -20.522561
       4A    -15.595821     5A    -11.403668     6A    -11.356814
       7A    -11.296502     8A    -11.247681     9A    -11.232855
      10A    -11.222343    11A     -1.473719    12A     -1.379399
      13A     -1.370878    14A     -1.245785    15A     -1.075933
      16A     -1.037336    17A     -0.926923    18A     -0.885934
      19A     -0.819694    20A     -0.794307    21A     -0.727128
      22A     -0.712540    23A     -0.679997    24A     -0.660020
      25A     -0.642614    26A     -0.634152    27A     -0.609733
      28A     -0.598759    29A     -0.584214    30A     -0.556288
      31A     -0.550293    32A     -0.527955    33A     -0.523579
      34A     -0.513222    35A     -0.497723    36A     -0.487311
      37A     -0.469067    38A     -0.427535    39A     -0.400261

  @DF-RHF Final Energy:  -512.88469246272041

   => Energetics <=

    Nuclear Repulsion Energy =            547.7575371856353286
    One-Electron Energy =               -1787.5024219997706041
    Two-Electron Energy =                 726.8601923514148666
    Total Energy =                       -512.8846924627204089
  Basis Set: (AUG-CC-PVTZ AUX)
    Blend: AUG-CC-PVTZ-RI
    Molecular point group: c1

    Geometry (in Angstrom), charge = 0, multiplicity = 1:

       Center              X                  Y                   Z               Mass
    ------------   -----------------  -----------------  -----------------  -----------------
         O            2.117938338800    -1.484716097867     0.477395882072    15.994914619570
         O           -1.658110661200     1.201747902133    -0.743526117928    15.994914619570
         O            3.222024338800     0.088933902133    -0.725984117928    15.994914619570
         N           -0.223124661200    -0.350488097867     0.096282882072    14.003074004430
         C            0.929463338800     0.513463902133    -0.073079117928    12.000000000000
         C            1.068701338800     1.532850902133     1.063926882072    12.000000000000
         C           -2.588753661200    -0.925560097867    -0.061187117928    12.000000000000
         C           -1.468738661200     0.081120902133    -0.259245117928    12.000000000000
         C            2.203433338800    -0.291594097867    -0.181121117928    12.000000000000
         C           -3.895937661200    -0.236373097867     0.314532882072    12.000000000000
         H            0.807362338800     1.053786902133    -1.015908117928     1.007825032230
         H           -0.095407661200    -1.242532097867     0.555794882072     1.007825032230
         H            1.187640338800     1.017764902133     2.021103882072     1.007825032230
         H            1.934486338800     2.178336902133     0.892117882072     1.007825032230
         H            0.164882338800     2.144025902133     1.091210882072     1.007825032230
         H           -2.708319661200    -1.467797097867    -1.007306117928     1.007825032230
         H           -2.305114661200    -1.668162097867     0.693632882072     1.007825032230
         H           -3.809694661200     0.257145902133     1.286069882072     1.007825032230
         H           -4.140771661200     0.523741902133    -0.428308117928     1.007825032230
         H           -4.713557661200    -0.959916097867     0.368213882072     1.007825032230
         H            3.017423938800    -1.911237597867     0.380130982072     1.007825032230

  Basis Set: AUG-CC-PVTZ
    Blend: AUG-CC-PVTZ
  Basis Set: (AUG-CC-PVTZ AUX)
    Blend: AUG-CC-PVTZ-JKFIT
	 Reference Energy          =    -512.8846924627204089 [Eh]
	 Singles Energy            =      -0.0000000000000000 [Eh]
	 Same-Spin Energy          =      -0.5114612261811506 [Eh]
	 Opposite-Spin Energy      =      -1.6157326484137484 [Eh]
	 Correlation Energy        =      -2.1271938745948988 [Eh]
	 Total Energy              =    -515.0118863373153317 [Eh]

	 ================> DF-SCS-MP2 Energies <==================
	-----------------------------------------------------------
	 SCS Same-Spin Scale       =       0.3333333333333333 [-]
	 SCS Opposite-Spin Scale   =       1.2000000000000000 [-]
	 SCS Same-Spin Energy      =      -0.1704870753937169 [Eh]
	 SCS Opposite-Spin Energy  =      -1.9388791780964980 [Eh]
	 SCS Correlation Energy    =      -2.1093662534902147 [Eh]
	 SCS Total Energy          =    -514.9940587162105885 [Eh]
	-----------------------------------------------------------

  Dipole Moment: [D]
     X:     0.1580      Y:    -3.3052      Z:     2.2926     Total:     4.0256

*** Psi4 exiting successfully. Buy a developer a beer!
