                               Psi4 1.3.2 release

  ==> Input File <==

--------------------------------------------------------------------------
#psi4
#
memory 32 gb

molecule  {
0 1
  O       -1.9756670     1.6664010     0.1857370
  O        1.6511300    -1.1930600    -0.6768240
  O       -3.2820610    -0.0444860    -0.5140140
  N        0.2464261     0.2617911     0.2277614
  C       -0.9464590    -0.4858680    -0.1100250
  C       -1.2010820    -1.6869190     0.8036840
  C        2.5941300     0.7851170     0.3678910
  C        1.4652130    -0.1360080    -0.0663740
  C       -2.1892550     0.3702600    -0.1810000
  C        3.9493650     0.2879730    -0.1118860
  H       -0.7154363    -0.8369068    -1.1236833
  H        0.0773990     1.1958980     0.6978160
  H       -1.3680630    -1.3508140     1.8303240
  H       -2.0758160    -2.2433210     0.4601180
  H       -0.3237180    -2.3338760     0.7750620
  H        2.3897550     1.7945520    -0.0146150
  H        2.5759940     0.8629050     1.4619760
  H        4.1547340    -0.7097650     0.2816620
  H        3.9712690     0.2233490    -1.2012200
  H        4.7420490     0.9661550     0.2171920
  H       -2.8492950     2.1039740     0.1058080
units angstrom
no_reorient  #important for SAPT in psi4, default
symmetry c1  #important for SAPT in psi4, default
}

set PROPERTIES_ORIGIN ["COM"]
properties('MP2/aug-cc-pvtz', properties = ['dipole'])
--------------------------------------------------------------------------

    Molecular point group: c1
  Charge       = 0
  Multiplicity = 1
  Basis Set: AUG-CC-PVTZ
    Blend: AUG-CC-PVTZ
  Basis Set: (AUG-CC-PVTZ AUX)
    Blend: AUG-CC-PVTZ-JKFIT

    Orbital Energies [Eh]
    ---------------------

    Doubly Occupied:

       1A    -20.638324     2A    -20.566586     3A    -20.513847
       4A    -15.596876     5A    -11.408160     6A    -11.347456
       7A    -11.298382     8A    -11.245932     9A    -11.229649
      10A    -11.217906    11A     -1.480734    12A     -1.381216
      13A     -1.375905    14A     -1.248305    15A     -1.077508
      16A     -1.036992    17A     -0.931227    18A     -0.884760
      19A     -0.817672    20A     -0.794444    21A     -0.733065
      22A     -0.715361    23A     -0.681437    24A     -0.667587
      25A     -0.642128    26A     -0.632199    27A     -0.613167
      28A     -0.599200    29A     -0.580095    30A     -0.548122
      31A     -0.545292    32A     -0.523883    33A     -0.518354
      34A     -0.516643    35A     -0.498135    36A     -0.487812
      37A     -0.470428    38A     -0.424577    39A     -0.398500

  @DF-RHF Final Energy:  -512.88016736240195

   => Energetics <=

    Nuclear Repulsion Energy =            548.9236695968942286
    One-Electron Energy =               -1789.8319383605305575
    Two-Electron Energy =                 728.0281014012344940
    Total Energy =                       -512.8801673624019486
  Basis Set: (AUG-CC-PVTZ AUX)
    Blend: AUG-CC-PVTZ-RI
    Molecular point group: c1

    Geometry (in Angstrom), charge = 0, multiplicity = 1:

       Center              X                  Y                   Z               Mass
    ------------   -----------------  -----------------  -----------------  -----------------
         O           -1.979031434076     1.667713269043     0.192229639133    15.994914619570
         O            1.647765565924    -1.191747730957    -0.670331360867    15.994914619570
         O           -3.285425434076    -0.043173730957    -0.507521360867    15.994914619570
         N            0.243061665924     0.263103369043     0.234254039133    14.003074004430
         C           -0.949823434076    -0.484555730957    -0.103532360867    12.000000000000
         C           -1.204446434076    -1.685606730957     0.810176639133    12.000000000000
         C            2.590765565924     0.786429269043     0.374383639133    12.000000000000
         C            1.461848565924    -0.134695730957    -0.059881360867    12.000000000000
         C           -2.192619434076     0.371572269043    -0.174507360867    12.000000000000
         C            3.946000565924     0.289285269043    -0.105393360867    12.000000000000
         H           -0.718800734076    -0.835594530957    -1.117190660867     1.007825032230
         H            0.074034565924     1.197210269043     0.704308639133     1.007825032230
         H           -1.371427434076    -1.349501730957     1.836816639133     1.007825032230
         H           -2.079180434076    -2.242008730957     0.466610639133     1.007825032230
         H           -0.327082434076    -2.332563730957     0.781554639133     1.007825032230
         H            2.386390565924     1.795864269043    -0.008122360867     1.007825032230
         H            2.572629565924     0.864217269043     1.468468639133     1.007825032230
         H            4.151369565924    -0.708452730957     0.288154639133     1.007825032230
         H            3.967904565924     0.224661269043    -1.194727360867     1.007825032230
         H            4.738684565924     0.967467269043     0.223684639133     1.007825032230
         H           -2.852659434076     2.105286269043     0.112300639133     1.007825032230

  Basis Set: AUG-CC-PVTZ
    Blend: AUG-CC-PVTZ
  Basis Set: (AUG-CC-PVTZ AUX)
    Blend: AUG-CC-PVTZ-JKFIT
	 Reference Energy          =    -512.8801673624019486 [Eh]
	 Singles Energy            =      -0.0000000000000000 [Eh]
	 Same-Spin Energy          =      -0.5117241951642439 [Eh]
	 Opposite-Spin Energy      =      -1.6152382323674892 [Eh]
	 Correlation Energy        =      -2.1269624275317334 [Eh]
	 Total Energy              =    -515.0071297899336287 [Eh]

	 ================> DF-SCS-MP2 Energies <==================
	-----------------------------------------------------------
	 SCS Same-Spin Scale       =       0.3333333333333333 [-]
	 SCS Opposite-Spin Scale   =       1.2000000000000000 [-]
	 SCS Same-Spin Energy      =      -0.1705747317214146 [Eh]
	 SCS Opposite-Spin Energy  =      -1.9382858788409869 [Eh]
	 SCS Correlation Energy    =      -2.1088606105624015 [Eh]
	 SCS Total Energy          =    -514.9890279729643225 [Eh]
	-----------------------------------------------------------

  Dipole Moment: [D]
     X:    -0.3315      Y:     3.3950      Z:     2.1328     Total:     4.0230

*** Psi4 exiting successfully. Buy a developer a beer!
