                               Psi4 1.3.2 release

  ==> Input File <==

--------------------------------------------------------------------------
#psi4
#
memory 32 gb

molecule  {
0 1
  O       -1.9756670     1.6664010     0.1857370
  O        1.6511300    -1.1930600    -0.6768240
  O       -3.2820610    -0.0444860    -0.5140140
  N        0.2152580     0.2772540     0.2951010
  C       -0.9464590    -0.4858680    -0.1100250
  C       -1.2010820    -1.6869190     0.8036840
  C        2.5941300     0.7851170     0.3678910
  C        1.5193935    -0.1821846    -0.1019813
  C       -2.1892550     0.3702600    -0.1810000
  C        3.9123353     0.2261849    -0.1458499
  H       -0.7666830    -0.8628490    -1.1247510
  H        0.0773990     1.1958980     0.6978160
  H       -1.3680630    -1.3508140     1.8303240
  H       -2.0758160    -2.2433210     0.4601180
  H       -0.3237180    -2.3338760     0.7750620
  H        2.3897550     1.7945520    -0.0146150
  H        2.5759940     0.8629050     1.4619760
  H        4.1547340    -0.7097650     0.2816620
  H        3.9712690     0.2233490    -1.2012200
  H        4.7420490     0.9661550     0.2171920
  H       -2.8492950     2.1039740     0.1058080
units angstrom
no_reorient  #important for SAPT in psi4, default
symmetry c1  #important for SAPT in psi4, default
}

set PROPERTIES_ORIGIN ["COM"]
properties('MP2/aug-cc-pvtz', properties = ['dipole'])
--------------------------------------------------------------------------

    Molecular point group: c1
  Charge       = 0
  Multiplicity = 1
  Basis Set: AUG-CC-PVTZ
    Blend: AUG-CC-PVTZ
  Basis Set: (AUG-CC-PVTZ AUX)
    Blend: AUG-CC-PVTZ-JKFIT

    Orbital Energies [Eh]
    ---------------------

    Doubly Occupied:

       1A    -20.630874     2A    -20.558930     3A    -20.541989
       4A    -15.575615     5A    -11.399272     6A    -11.356689
       7A    -11.288775     8A    -11.248861     9A    -11.222769
      10A    -11.222722    11A     -1.473282    12A     -1.427203
      13A     -1.368729    14A     -1.226431    15A     -1.072839
      16A     -1.028821    17A     -0.921189    18A     -0.883563
      19A     -0.809859    20A     -0.778391    21A     -0.727517
      22A     -0.709921    23A     -0.685745    24A     -0.663186
      25A     -0.649698    26A     -0.640019    27A     -0.611353
      28A     -0.604676    29A     -0.582184    30A     -0.548778
      31A     -0.541897    32A     -0.530368    33A     -0.523797
      34A     -0.510767    35A     -0.505735    36A     -0.490513
      37A     -0.465881    38A     -0.428726    39A     -0.393030

  @DF-RHF Final Energy:  -512.87329470187763

   => Energetics <=

    Nuclear Repulsion Energy =            548.6631471482870666
    One-Electron Energy =               -1789.3716952485769980
    Two-Electron Energy =                 727.8352533984124193
    Total Energy =                       -512.8732947018776258
  Basis Set: (AUG-CC-PVTZ AUX)
    Blend: AUG-CC-PVTZ-RI
    Molecular point group: c1

    Geometry (in Angstrom), charge = 0, multiplicity = 1:

       Center              X                  Y                   Z               Mass
    ------------   -----------------  -----------------  -----------------  -----------------
         O           -1.977085616591     1.675331410675     0.191491870641    15.994914619570
         O            1.649711383409    -1.184129589325    -0.671069129359    15.994914619570
         O           -3.283479616591    -0.035555589325    -0.508259129359    15.994914619570
         N            0.213839383409     0.286184410675     0.300855870641    14.003074004430
         C           -0.947877616591    -0.476937589325    -0.104270129359    12.000000000000
         C           -1.202500616591    -1.677988589325     0.809438870641    12.000000000000
         C            2.592711383409     0.794047410675     0.373645870641    12.000000000000
         C            1.517974883409    -0.173254189325    -0.096226429359    12.000000000000
         C           -2.190673616591     0.379190410675    -0.175245129359    12.000000000000
         C            3.910916683409     0.235115310675    -0.140095029359    12.000000000000
         H           -0.768101616591    -0.853918589325    -1.118996129359     1.007825032230
         H            0.075980383409     1.204828410675     0.703570870641     1.007825032230
         H           -1.369481616591    -1.341883589325     1.836078870641     1.007825032230
         H           -2.077234616591    -2.234390589325     0.465872870641     1.007825032230
         H           -0.325136616591    -2.324945589325     0.780816870641     1.007825032230
         H            2.388336383409     1.803482410675    -0.008860129359     1.007825032230
         H            2.574575383409     0.871835410675     1.467730870641     1.007825032230
         H            4.153315383409    -0.700834589325     0.287416870641     1.007825032230
         H            3.969850383409     0.232279410675    -1.195465129359     1.007825032230
         H            4.740630383409     0.975085410675     0.222946870641     1.007825032230
         H           -2.850713616591     2.112904410675     0.111562870641     1.007825032230

  Basis Set: AUG-CC-PVTZ
    Blend: AUG-CC-PVTZ
  Basis Set: (AUG-CC-PVTZ AUX)
    Blend: AUG-CC-PVTZ-JKFIT
	 Reference Energy          =    -512.8732947018776258 [Eh]
	 Singles Energy            =      -0.0000000000000000 [Eh]
	 Same-Spin Energy          =      -0.5104899734732294 [Eh]
	 Opposite-Spin Energy      =      -1.6134759833428265 [Eh]
	 Correlation Energy        =      -2.1239659568160558 [Eh]
	 Total Energy              =    -514.9972606586936763 [Eh]

	 ================> DF-SCS-MP2 Energies <==================
	-----------------------------------------------------------
	 SCS Same-Spin Scale       =       0.3333333333333333 [-]
	 SCS Opposite-Spin Scale   =       1.2000000000000000 [-]
	 SCS Same-Spin Energy      =      -0.1701633244910765 [Eh]
	 SCS Opposite-Spin Energy  =      -1.9361711800113917 [Eh]
	 SCS Correlation Energy    =      -2.1063345045024682 [Eh]
	 SCS Total Energy          =    -514.9796292063800820 [Eh]
	-----------------------------------------------------------

  Dipole Moment: [D]
     X:     0.5600      Y:     3.0038      Z:     1.6984     Total:     3.4959

*** Psi4 exiting successfully. Buy a developer a beer!
