                               Psi4 1.4a3.dev225

  ==> Input File <==

--------------------------------------------------------------------------
#psi4
#
memory 32 gb

molecule  {
0 1
  O        2.1858500    -1.4843500     0.4466430
  O       -1.5901990     1.2021140    -0.7742790
  O        3.2899360     0.0893000    -0.7567370
  N       -0.1552130    -0.3501220     0.0655300
  C        0.9973750     0.5138300    -0.1038320
  C        1.1320728     1.4999776     0.9960994
  C       -2.5208420    -0.9251940    -0.0919400
  C       -1.4008270     0.0814870    -0.2899980
  C        2.2713450    -0.2912280    -0.2118740
  C       -3.8280260    -0.2360070     0.2837800
  H        0.8752740     1.0541530    -1.0466610
  H       -0.0274960    -1.2421660     0.5250420
  H        1.2555520     1.0181310     1.9903510
  H        2.0023980     2.1787030     0.8613650
  H        0.2327940     2.1443920     1.0604580
  H       -2.6404080    -1.4674310    -1.0380590
  H       -2.2372030    -1.6677960     0.6628800
  H       -3.7417830     0.2575120     1.2553170
  H       -4.0728600     0.5241080    -0.4590610
  H       -4.6456460    -0.9595500     0.3374610
  H        3.0673500    -1.9023430     0.3513230
units angstrom
no_reorient  #important for SAPT in psi4, default
symmetry c1  #important for SAPT in psi4, default
}

set PROPERTIES_ORIGIN ["COM"]
properties('MP2/aug-cc-pvtz', properties = ['dipole'])
--------------------------------------------------------------------------

    Molecular point group: c1
  Charge       = 0
  Multiplicity = 1
  Basis Set: AUG-CC-PVTZ
    Blend: AUG-CC-PVTZ
  Basis Set: (AUG-CC-PVTZ AUX)
    Blend: AUG-CC-PVTZ-JKFIT

    Orbital Energies [Eh]
    ---------------------

    Doubly Occupied:

       1A    -20.634880     2A    -20.565733     3A    -20.522635
       4A    -15.595710     5A    -11.404484     6A    -11.356988
       7A    -11.295047     8A    -11.247764     9A    -11.234248
      10A    -11.222381    11A     -1.477023    12A     -1.379609
      13A     -1.373181    14A     -1.247492    15A     -1.080361
      16A     -1.040647    17A     -0.925627    18A     -0.886800
      19A     -0.821836    20A     -0.794840    21A     -0.728884
      22A     -0.714886    23A     -0.681132    24A     -0.662331
      25A     -0.644244    26A     -0.635001    27A     -0.611452
      28A     -0.598596    29A     -0.590284    30A     -0.556420
      31A     -0.545559    32A     -0.523599    33A     -0.521046
      34A     -0.513164    35A     -0.497389    36A     -0.488333
      37A     -0.468763    38A     -0.427444    39A     -0.402693

  @DF-RHF Final Energy:  -512.88338771140718

   => Energetics <=

    Nuclear Repulsion Energy =            548.8541225639947925
    One-Electron Energy =               -1789.6380059756111223
    Two-Electron Energy =                 727.9004957002092624
    Total Energy =                       -512.8833877114071811
  Basis Set: (AUG-CC-PVTZ AUX)
    Blend: AUG-CC-PVTZ-RI
    Molecular point group: c1

    Geometry (in Angstrom), charge = 0, multiplicity = 1:

       Center              X                  Y                   Z               Mass
    ------------   -----------------  -----------------  -----------------  -----------------
         O            2.118438833660    -1.482025899406     0.480449050849    15.994914619570
         O           -1.657610166340     1.204438100594    -0.740472949151    15.994914619570
         O            3.222524833660     0.091624100594    -0.722930949151    15.994914619570
         N           -0.222624166340    -0.347797899406     0.099336050849    14.003074004430
         C            0.929963833660     0.516154100594    -0.070025949151    12.000000000000
         C            1.064661633660     1.502301700594     1.029905450849    12.000000000000
         C           -2.588253166340    -0.922869899406    -0.058133949151    12.000000000000
         C           -1.468238166340     0.083811100594    -0.256191949151    12.000000000000
         C            2.203933833660    -0.288903899406    -0.178067949151    12.000000000000
         C           -3.895437166340    -0.233682899406     0.317586050849    12.000000000000
         H            0.807862833660     1.056477100594    -1.012854949151     1.007825032230
         H           -0.094907166340    -1.239841899406     0.558848050849     1.007825032230
         H            1.188140833660     1.020455100594     2.024157050849     1.007825032230
         H            1.934986833660     2.181027100594     0.895171050849     1.007825032230
         H            0.165382833660     2.146716100594     1.094264050849     1.007825032230
         H           -2.707819166340    -1.465106899406    -1.004252949151     1.007825032230
         H           -2.304614166340    -1.665471899406     0.696686050849     1.007825032230
         H           -3.809194166340     0.259836100594     1.289123050849     1.007825032230
         H           -4.140271166340     0.526432100594    -0.425254949151     1.007825032230
         H           -4.713057166340    -0.957225899406     0.371267050849     1.007825032230
         H            2.999938833660    -1.900018899406     0.385129050849     1.007825032230

  Basis Set: AUG-CC-PVTZ
    Blend: AUG-CC-PVTZ
  Basis Set: (AUG-CC-PVTZ AUX)
    Blend: AUG-CC-PVTZ-JKFIT
	 Reference Energy          =    -512.8833877114071811 [Eh]
	 Singles Energy            =      -0.0000000000000000 [Eh]
	 Same-Spin Energy          =      -0.5115938223186909 [Eh]
	 Opposite-Spin Energy      =      -1.6155750518122791 [Eh]
	 Correlation Energy        =      -2.1271688741309700 [Eh]
	 Total Energy              =    -515.0105565855380974 [Eh]

	 ================> DF-SCS-MP2 Energies <==================
	-----------------------------------------------------------
	 SCS Same-Spin Scale       =       0.3333333333333333 [-]
	 SCS Opposite-Spin Scale   =       1.2000000000000000 [-]
	 SCS Same-Spin Energy      =      -0.1705312741062303 [Eh]
	 SCS Opposite-Spin Energy  =      -1.9386900621747349 [Eh]
	 SCS Correlation Energy    =      -2.1092213362809651 [Eh]
	 SCS Total Energy          =    -514.9926090476881200 [Eh]
	-----------------------------------------------------------

  Dipole Moment: [D]
     X:     0.1517      Y:    -3.2849      Z:     2.2876     Total:     4.0059

*** Psi4 exiting successfully. Buy a developer a beer!
