                               Psi4 1.3.2 release

  ==> Input File <==

--------------------------------------------------------------------------
#psi4
#
memory 32 gb

molecule  {
0 1
  O       -1.9756670     1.6664010     0.1857370
  O        1.7146181    -1.1810542    -0.6748547
  O       -3.2820610    -0.0444860    -0.5140140
  N        0.2152580     0.2772540     0.2951010
  C       -0.9464590    -0.4858680    -0.1100250
  C       -1.2010820    -1.6869190     0.8036840
  C        2.6456222     0.7340027     0.3351562
  C        1.4652130    -0.1360080    -0.0663740
  C       -2.1892550     0.3702600    -0.1810000
  C        3.9493650     0.2879730    -0.1118860
  H       -0.7666830    -0.8628490    -1.1247510
  H        0.0773990     1.1958980     0.6978160
  H       -1.3680630    -1.3508140     1.8303240
  H       -2.0758160    -2.2433210     0.4601180
  H       -0.3237180    -2.3338760     0.7750620
  H        2.3897550     1.7945520    -0.0146150
  H        2.5759940     0.8629050     1.4619760
  H        4.1547340    -0.7097650     0.2816620
  H        3.9712690     0.2233490    -1.2012200
  H        4.7420490     0.9661550     0.2171920
  H       -2.8492950     2.1039740     0.1058080
units angstrom
no_reorient  #important for SAPT in psi4, default
symmetry c1  #important for SAPT in psi4, default
}

set PROPERTIES_ORIGIN ["COM"]
properties('MP2/aug-cc-pvtz', properties = ['dipole'])
--------------------------------------------------------------------------

    Molecular point group: c1
  Charge       = 0
  Multiplicity = 1
  Basis Set: AUG-CC-PVTZ
    Blend: AUG-CC-PVTZ
  Basis Set: (AUG-CC-PVTZ AUX)
    Blend: AUG-CC-PVTZ-JKFIT

    Orbital Energies [Eh]
    ---------------------

    Doubly Occupied:

       1A    -20.637450     2A    -20.565459     3A    -20.523337
       4A    -15.596518     5A    -11.406637     6A    -11.355984
       7A    -11.299447     8A    -11.249216     9A    -11.228818
      10A    -11.214095    11A     -1.479972    12A     -1.379869
      13A     -1.375080    14A     -1.249262    15A     -1.077492
      16A     -1.043763    17A     -0.929855    18A     -0.883728
      19A     -0.818532    20A     -0.791640    21A     -0.729850
      22A     -0.716016    23A     -0.683888    24A     -0.667253
      25A     -0.637123    26A     -0.633451    27A     -0.612455
      28A     -0.603467    29A     -0.583533    30A     -0.556248
      31A     -0.546287    32A     -0.536700    33A     -0.520547
      34A     -0.513516    35A     -0.494955    36A     -0.474362
      37A     -0.469774    38A     -0.423996    39A     -0.402683

  @DF-RHF Final Energy:  -512.87695739418450

   => Energetics <=

    Nuclear Repulsion Energy =            548.1525575265726502
    One-Electron Energy =               -1788.2345166930369942
    Two-Electron Energy =                 727.2050017722799566
    Total Energy =                       -512.8769573941845010
  Basis Set: (AUG-CC-PVTZ AUX)
    Blend: AUG-CC-PVTZ-RI
    Molecular point group: c1

    Geometry (in Angstrom), charge = 0, multiplicity = 1:

       Center              X                  Y                   Z               Mass
    ------------   -----------------  -----------------  -----------------  -----------------
         O           -1.986926005563     1.669305264091     0.188227771396    15.994914619570
         O            1.703359094437    -1.178149935909    -0.672363928604    15.994914619570
         O           -3.293320005563    -0.041581735909    -0.511523228604    15.994914619570
         N            0.203998994437     0.280158264091     0.297591771396    14.003074004430
         C           -0.957718005563    -0.482963735909    -0.107534228604    12.000000000000
         C           -1.212341005563    -1.684014735909     0.806174771396    12.000000000000
         C            2.634363194437     0.736906964091     0.337646971396    12.000000000000
         C            1.453953994437    -0.133103735909    -0.063883228604    12.000000000000
         C           -2.200514005563     0.373164264091    -0.178509228604    12.000000000000
         C            3.938105994437     0.290877264091    -0.109395228604    12.000000000000
         H           -0.777942005563    -0.859944735909    -1.122260228604     1.007825032230
         H            0.066139994437     1.198802264091     0.700306771396     1.007825032230
         H           -1.379322005563    -1.347909735909     1.832814771396     1.007825032230
         H           -2.087075005563    -2.240416735909     0.462608771396     1.007825032230
         H           -0.334977005563    -2.330971735909     0.777552771396     1.007825032230
         H            2.378495994437     1.797456264091    -0.012124228604     1.007825032230
         H            2.564734994437     0.865809264091     1.464466771396     1.007825032230
         H            4.143474994437    -0.706860735909     0.284152771396     1.007825032230
         H            3.960009994437     0.226253264091    -1.198729228604     1.007825032230
         H            4.730789994437     0.969059264091     0.219682771396     1.007825032230
         H           -2.860554005563     2.106878264091     0.108298771396     1.007825032230

  Basis Set: AUG-CC-PVTZ
    Blend: AUG-CC-PVTZ
  Basis Set: (AUG-CC-PVTZ AUX)
    Blend: AUG-CC-PVTZ-JKFIT
	 Reference Energy          =    -512.8769573941845010 [Eh]
	 Singles Energy            =      -0.0000000000000000 [Eh]
	 Same-Spin Energy          =      -0.5119149110912908 [Eh]
	 Opposite-Spin Energy      =      -1.6156031894916878 [Eh]
	 Correlation Energy        =      -2.1275181005829786 [Eh]
	 Total Energy              =    -515.0044754947674619 [Eh]

	 ================> DF-SCS-MP2 Energies <==================
	-----------------------------------------------------------
	 SCS Same-Spin Scale       =       0.3333333333333333 [-]
	 SCS Opposite-Spin Scale   =       1.2000000000000000 [-]
	 SCS Same-Spin Energy      =      -0.1706383036970969 [Eh]
	 SCS Opposite-Spin Energy  =      -1.9387238273900254 [Eh]
	 SCS Correlation Energy    =      -2.1093621310871224 [Eh]
	 SCS Total Energy          =    -514.9863195252715968 [Eh]
	-----------------------------------------------------------

  Dipole Moment: [D]
     X:    -0.2277      Y:     3.2459      Z:     1.9411     Total:     3.7888

*** Psi4 exiting successfully. Buy a developer a beer!
