                               Psi4 1.3.2 release

  ==> Input File <==

--------------------------------------------------------------------------
#psi4
#
memory 32 gb

molecule  {
0 1
  O       -1.9756670     1.6664010     0.1857370
  O        1.6511300    -1.1930600    -0.6768240
  O       -3.2779276    -0.0541603    -0.5153602
  N        0.2152580     0.2772540     0.2951010
  C       -0.9534906    -0.4963006    -0.1139672
  C       -1.2010820    -1.6869190     0.8036840
  C        2.5941300     0.7851170     0.3678910
  C        1.4652130    -0.1360080    -0.0663740
  C       -2.1892550     0.3702600    -0.1810000
  C        3.9493650     0.2879730    -0.1118860
  H       -0.7666830    -0.8628490    -1.1247510
  H        0.0773990     1.1958980     0.6978160
  H       -1.3680630    -1.3508140     1.8303240
  H       -2.0758160    -2.2433210     0.4601180
  H       -0.3237180    -2.3338760     0.7750620
  H        2.3897550     1.7945520    -0.0146150
  H        2.5759940     0.8629050     1.4619760
  H        4.1547340    -0.7097650     0.2816620
  H        3.9712690     0.2233490    -1.2012200
  H        4.7420490     0.9661550     0.2171920
  H       -2.8492950     2.1039740     0.1058080
units angstrom
no_reorient  #important for SAPT in psi4, default
symmetry c1  #important for SAPT in psi4, default
}

set PROPERTIES_ORIGIN ["COM"]
properties('MP2/aug-cc-pvtz', properties = ['dipole'])
--------------------------------------------------------------------------

    Molecular point group: c1
  Charge       = 0
  Multiplicity = 1
  Basis Set: AUG-CC-PVTZ
    Blend: AUG-CC-PVTZ
  Basis Set: (AUG-CC-PVTZ AUX)
    Blend: AUG-CC-PVTZ-JKFIT

    Orbital Energies [Eh]
    ---------------------

    Doubly Occupied:

       1A    -20.637249     2A    -20.564080     3A    -20.523784
       4A    -15.591530     5A    -11.404950     6A    -11.355320
       7A    -11.296290     8A    -11.247033     9A    -11.226658
      10A    -11.219129    11A     -1.478691    12A     -1.379662
      13A     -1.374608    14A     -1.242294    15A     -1.074960
      16A     -1.036028    17A     -0.927698    18A     -0.884668
      19A     -0.817121    20A     -0.791059    21A     -0.729860
      22A     -0.715081    23A     -0.681872    24A     -0.665979
      25A     -0.640873    26A     -0.633523    27A     -0.611028
      28A     -0.602313    29A     -0.580220    30A     -0.546993
      31A     -0.544157    32A     -0.522812    33A     -0.521203
      34A     -0.518905    35A     -0.497508    36A     -0.488515
      37A     -0.467990    38A     -0.427922    39A     -0.400336

  @DF-RHF Final Energy:  -512.88581348971798

   => Energetics <=

    Nuclear Repulsion Energy =            548.1152655592386509
    One-Electron Energy =               -1788.2623556328276209
    Two-Electron Energy =                 727.2612765838709947
    Total Energy =                       -512.8858134897179752
  Basis Set: (AUG-CC-PVTZ AUX)
    Blend: AUG-CC-PVTZ-RI
    Molecular point group: c1

    Geometry (in Angstrom), charge = 0, multiplicity = 1:

       Center              X                  Y                   Z               Mass
    ------------   -----------------  -----------------  -----------------  -----------------
         O           -1.975541055989     1.668330525988     0.186211694939    15.994914619570
         O            1.651255944011    -1.191130474012    -0.676349305061    15.994914619570
         O           -3.277801655989    -0.052230774012    -0.514885505061    15.994914619570
         N            0.215383944011     0.279183525988     0.295575694939    14.003074004430
         C           -0.953364655989    -0.494371074012    -0.113492505061    12.000000000000
         C           -1.200956055989    -1.684989474012     0.804158694939    12.000000000000
         C            2.594255944011     0.787046525988     0.368365694939    12.000000000000
         C            1.465338944011    -0.134078474012    -0.065899305061    12.000000000000
         C           -2.189129055989     0.372189525988    -0.180525305061    12.000000000000
         C            3.949490944011     0.289902525988    -0.111411305061    12.000000000000
         H           -0.766557055989    -0.860919474012    -1.124276305061     1.007825032230
         H            0.077524944011     1.197827525988     0.698290694939     1.007825032230
         H           -1.367937055989    -1.348884474012     1.830798694939     1.007825032230
         H           -2.075690055989    -2.241391474012     0.460592694939     1.007825032230
         H           -0.323592055989    -2.331946474012     0.775536694939     1.007825032230
         H            2.389880944011     1.796481525988    -0.014140305061     1.007825032230
         H            2.576119944011     0.864834525988     1.462450694939     1.007825032230
         H            4.154859944011    -0.707835474012     0.282136694939     1.007825032230
         H            3.971394944011     0.225278525988    -1.200745305061     1.007825032230
         H            4.742174944011     0.968084525988     0.217666694939     1.007825032230
         H           -2.849169055989     2.105903525988     0.106282694939     1.007825032230

  Basis Set: AUG-CC-PVTZ
    Blend: AUG-CC-PVTZ
  Basis Set: (AUG-CC-PVTZ AUX)
    Blend: AUG-CC-PVTZ-JKFIT
	 Reference Energy          =    -512.8858134897179752 [Eh]
	 Singles Energy            =      -0.0000000000000000 [Eh]
	 Same-Spin Energy          =      -0.5113119724150110 [Eh]
	 Opposite-Spin Energy      =      -1.6149757669724041 [Eh]
	 Correlation Energy        =      -2.1262877393874149 [Eh]
	 Total Energy              =    -515.0121012291053830 [Eh]

	 ================> DF-SCS-MP2 Energies <==================
	-----------------------------------------------------------
	 SCS Same-Spin Scale       =       0.3333333333333333 [-]
	 SCS Opposite-Spin Scale   =       1.2000000000000000 [-]
	 SCS Same-Spin Energy      =      -0.1704373241383370 [Eh]
	 SCS Opposite-Spin Energy  =      -1.9379709203668849 [Eh]
	 SCS Correlation Energy    =      -2.1084082445052221 [Eh]
	 SCS Total Energy          =    -514.9942217342231743 [Eh]
	-----------------------------------------------------------

  Dipole Moment: [D]
     X:    -0.1068      Y:     3.3263      Z:     1.9615     Total:     3.8630

*** Psi4 exiting successfully. Buy a developer a beer!
