                               Psi4 1.4a3.dev225

  ==> Input File <==

--------------------------------------------------------------------------
#psi4
#
memory 32 gb

molecule  {
0 1
  O        2.1858500    -1.4843500     0.4466430
  O       -1.5901990     1.2021140    -0.7742790
  O        3.2899360     0.0893000    -0.7567370
  N       -0.1552130    -0.3501220     0.0655300
  C        0.9973750     0.5138300    -0.1038320
  C        1.1366130     1.5332170     1.0331740
  C       -2.5208420    -0.9251940    -0.0919400
  C       -1.4008270     0.0814870    -0.2899980
  C        2.2882088    -0.3018847    -0.2133042
  C       -3.8280260    -0.2360070     0.2837800
  H        0.8752740     1.0541530    -1.0466610
  H       -0.0274960    -1.2421660     0.5250420
  H        1.2555520     1.0181310     1.9903510
  H        2.0023980     2.1787030     0.8613650
  H        0.2327940     2.1443920     1.0604580
  H       -2.6404080    -1.4674310    -1.0380590
  H       -2.2372030    -1.6677960     0.6628800
  H       -3.7417830     0.2575120     1.2553170
  H       -4.0728600     0.5241080    -0.4590610
  H       -4.6456460    -0.9595500     0.3374610
  H        3.0673500    -1.9023430     0.3513230
units angstrom
no_reorient  #important for SAPT in psi4, default
symmetry c1  #important for SAPT in psi4, default
}

set PROPERTIES_ORIGIN ["COM"]
properties('MP2/aug-cc-pvtz', properties = ['dipole'])
--------------------------------------------------------------------------

    Molecular point group: c1
  Charge       = 0
  Multiplicity = 1
  Basis Set: AUG-CC-PVTZ
    Blend: AUG-CC-PVTZ
  Basis Set: (AUG-CC-PVTZ AUX)
    Blend: AUG-CC-PVTZ-JKFIT

    Orbital Energies [Eh]
    ---------------------

    Doubly Occupied:

       1A    -20.636391     2A    -20.566155     3A    -20.521785
       4A    -15.594832     5A    -11.402535     6A    -11.356051
       7A    -11.295555     8A    -11.247193     9A    -11.231488
      10A    -11.221956    11A     -1.481940    12A     -1.380611
      13A     -1.378342    14A     -1.244321    15A     -1.073782
      16A     -1.035309    17A     -0.925266    18A     -0.885510
      19A     -0.821763    20A     -0.794319    21A     -0.727290
      22A     -0.717108    23A     -0.680024    24A     -0.661737
      25A     -0.643450    26A     -0.635962    27A     -0.610689
      28A     -0.598243    29A     -0.583983    30A     -0.555811
      31A     -0.550690    32A     -0.527271    33A     -0.523140
      34A     -0.512922    35A     -0.500132    36A     -0.488200
      37A     -0.468001    38A     -0.426769    39A     -0.398961

  @DF-RHF Final Energy:  -512.88718813113837

   => Energetics <=

    Nuclear Repulsion Energy =            547.8088595769280573
    One-Electron Energy =               -1787.5811212860637625
    Two-Electron Energy =                 726.8850735779974457
    Total Energy =                       -512.8871881311383731
  Basis Set: (AUG-CC-PVTZ AUX)
    Blend: AUG-CC-PVTZ-RI
    Molecular point group: c1

    Geometry (in Angstrom), charge = 0, multiplicity = 1:

       Center              X                  Y                   Z               Mass
    ------------   -----------------  -----------------  -----------------  -----------------
         O            2.116668370386    -1.483893860581     0.477500671989    15.994914619570
         O           -1.659380629614     1.202570139419    -0.743421328011    15.994914619570
         O            3.220754370386     0.089756139419    -0.725879328011    15.994914619570
         N           -0.224394629614    -0.349665860581     0.096387671989    14.003074004430
         C            0.928193370386     0.514286139419    -0.072974328011    12.000000000000
         C            1.067431370386     1.533673139419     1.064031671989    12.000000000000
         C           -2.590023629614    -0.924737860581    -0.061082328011    12.000000000000
         C           -1.470008629614     0.081943139419    -0.259140328011    12.000000000000
         C            2.219027170386    -0.301428560581    -0.182446528011    12.000000000000
         C           -3.897207629614    -0.235550860581     0.314637671989    12.000000000000
         H            0.806092370386     1.054609139419    -1.015803328011     1.007825032230
         H           -0.096677629614    -1.241709860581     0.555899671989     1.007825032230
         H            1.186370370386     1.018587139419     2.021208671989     1.007825032230
         H            1.933216370386     2.179159139419     0.892222671989     1.007825032230
         H            0.163612370386     2.144848139419     1.091315671989     1.007825032230
         H           -2.709589629614    -1.466974860581    -1.007201328011     1.007825032230
         H           -2.306384629614    -1.667339860581     0.693737671989     1.007825032230
         H           -3.810964629614     0.257968139419     1.286174671989     1.007825032230
         H           -4.142041629614     0.524564139419    -0.428203328011     1.007825032230
         H           -4.714827629614    -0.959093860581     0.368318671989     1.007825032230
         H            2.998168370386    -1.901886860581     0.382180671989     1.007825032230

  Basis Set: AUG-CC-PVTZ
    Blend: AUG-CC-PVTZ
  Basis Set: (AUG-CC-PVTZ AUX)
    Blend: AUG-CC-PVTZ-JKFIT
	 Reference Energy          =    -512.8871881311383731 [Eh]
	 Singles Energy            =      -0.0000000000000000 [Eh]
	 Same-Spin Energy          =      -0.5108381597545661 [Eh]
	 Opposite-Spin Energy      =      -1.6144012996316337 [Eh]
	 Correlation Energy        =      -2.1252394593861998 [Eh]
	 Total Energy              =    -515.0124275905245668 [Eh]

	 ================> DF-SCS-MP2 Energies <==================
	-----------------------------------------------------------
	 SCS Same-Spin Scale       =       0.3333333333333333 [-]
	 SCS Opposite-Spin Scale   =       1.2000000000000000 [-]
	 SCS Same-Spin Energy      =      -0.1702793865848554 [Eh]
	 SCS Opposite-Spin Energy  =      -1.9372815595579604 [Eh]
	 SCS Correlation Energy    =      -2.1075609461428160 [Eh]
	 SCS Total Energy          =    -514.9947490772811989 [Eh]
	-----------------------------------------------------------

  Dipole Moment: [D]
     X:     0.2451      Y:    -3.3556      Z:     2.2791     Total:     4.0638

*** Psi4 exiting successfully. Buy a developer a beer!
