                               Psi4 1.3.2 release

  ==> Input File <==

--------------------------------------------------------------------------
#psi4
#
memory 32 gb

molecule  {
0 1
  O       -1.9756670     1.6664010     0.1857370
  O        1.6511300    -1.1930600    -0.6768240
  O       -3.2820610    -0.0444860    -0.5140140
  N        0.2152580     0.2772540     0.2951010
  C       -0.9464590    -0.4858680    -0.1100250
  C       -1.2507425    -1.6690018     0.8118353
  C        2.5941300     0.7851170     0.3678910
  C        1.4652130    -0.1360080    -0.0663740
  C       -2.2132789     0.3364626    -0.1484192
  C        3.9493650     0.2879730    -0.1118860
  H       -0.7666830    -0.8628490    -1.1247510
  H        0.0773990     1.1958980     0.6978160
  H       -1.3680630    -1.3508140     1.8303240
  H       -2.0758160    -2.2433210     0.4601180
  H       -0.3237180    -2.3338760     0.7750620
  H        2.3897550     1.7945520    -0.0146150
  H        2.5759940     0.8629050     1.4619760
  H        4.1547340    -0.7097650     0.2816620
  H        3.9712690     0.2233490    -1.2012200
  H        4.7420490     0.9661550     0.2171920
  H       -2.8492950     2.1039740     0.1058080
units angstrom
no_reorient  #important for SAPT in psi4, default
symmetry c1  #important for SAPT in psi4, default
}

set PROPERTIES_ORIGIN ["COM"]
properties('MP2/aug-cc-pvtz', properties = ['dipole'])
--------------------------------------------------------------------------

    Molecular point group: c1
  Charge       = 0
  Multiplicity = 1
  Basis Set: AUG-CC-PVTZ
    Blend: AUG-CC-PVTZ
  Basis Set: (AUG-CC-PVTZ AUX)
    Blend: AUG-CC-PVTZ-JKFIT

    Orbital Energies [Eh]
    ---------------------

    Doubly Occupied:

       1A    -20.627147     2A    -20.568873     3A    -20.524525
       4A    -15.593035     5A    -11.402543     6A    -11.356303
       7A    -11.297094     8A    -11.247470     9A    -11.227379
      10A    -11.219387    11A     -1.474611    12A     -1.381602
      13A     -1.378653    14A     -1.244895    15A     -1.075886
      16A     -1.037330    17A     -0.924096    18A     -0.883929
      19A     -0.812166    20A     -0.790420    21A     -0.729922
      22A     -0.713490    23A     -0.682790    24A     -0.665020
      25A     -0.640618    26A     -0.634548    27A     -0.612017
      28A     -0.604579    29A     -0.582564    30A     -0.554822
      31A     -0.534195    32A     -0.525854    33A     -0.519503
      34A     -0.518150    35A     -0.500970    36A     -0.490634
      37A     -0.467430    38A     -0.428696    39A     -0.400196

  @DF-RHF Final Energy:  -512.88134110207261

   => Energetics <=

    Nuclear Repulsion Energy =            548.1556301222361753
    One-Electron Energy =               -1788.3272489730638881
    Two-Electron Energy =                 727.2902777487549884
    Total Energy =                       -512.8813411020726107
  Basis Set: (AUG-CC-PVTZ AUX)
    Blend: AUG-CC-PVTZ-RI
    Molecular point group: c1

    Geometry (in Angstrom), charge = 0, multiplicity = 1:

       Center              X                  Y                   Z               Mass
    ------------   -----------------  -----------------  -----------------  -----------------
         O           -1.969572049706     1.667714506106     0.182367971292    15.994914619570
         O            1.657224950294    -1.191746493894    -0.680193028708    15.994914619570
         O           -3.275966049706    -0.043172493894    -0.517383028708    15.994914619570
         N            0.221352950294     0.278567506106     0.291731971292    14.003074004430
         C           -0.940364049706    -0.484554493894    -0.113394028708    12.000000000000
         C           -1.244647549706    -1.667688293894     0.808466271292    12.000000000000
         C            2.600224950294     0.786430506106     0.364521971292    12.000000000000
         C            1.471307950294    -0.134694493894    -0.069743028708    12.000000000000
         C           -2.207183949706     0.337776106106    -0.151788228708    12.000000000000
         C            3.955459950294     0.289286506106    -0.115255028708    12.000000000000
         H           -0.760588049706    -0.861535493894    -1.128120028708     1.007825032230
         H            0.083493950294     1.197211506106     0.694446971292     1.007825032230
         H           -1.361968049706    -1.349500493894     1.826954971292     1.007825032230
         H           -2.069721049706    -2.242007493894     0.456748971292     1.007825032230
         H           -0.317623049706    -2.332562493894     0.771692971292     1.007825032230
         H            2.395849950294     1.795865506106    -0.017984028708     1.007825032230
         H            2.582088950294     0.864218506106     1.458606971292     1.007825032230
         H            4.160828950294    -0.708451493894     0.278292971292     1.007825032230
         H            3.977363950294     0.224662506106    -1.204589028708     1.007825032230
         H            4.748143950294     0.967468506106     0.213822971292     1.007825032230
         H           -2.843200049706     2.105287506106     0.102438971292     1.007825032230

  Basis Set: AUG-CC-PVTZ
    Blend: AUG-CC-PVTZ
  Basis Set: (AUG-CC-PVTZ AUX)
    Blend: AUG-CC-PVTZ-JKFIT
	 Reference Energy          =    -512.8813411020726107 [Eh]
	 Singles Energy            =      -0.0000000000000000 [Eh]
	 Same-Spin Energy          =      -0.5112996316705453 [Eh]
	 Opposite-Spin Energy      =      -1.6149502679435981 [Eh]
	 Correlation Energy        =      -2.1262498996141432 [Eh]
	 Total Energy              =    -515.0075910016867056 [Eh]

	 ================> DF-SCS-MP2 Energies <==================
	-----------------------------------------------------------
	 SCS Same-Spin Scale       =       0.3333333333333333 [-]
	 SCS Opposite-Spin Scale   =       1.2000000000000000 [-]
	 SCS Same-Spin Energy      =      -0.1704332105568484 [Eh]
	 SCS Opposite-Spin Energy  =      -1.9379403215323177 [Eh]
	 SCS Correlation Energy    =      -2.1083735320891659 [Eh]
	 SCS Total Energy          =    -514.9897146341618281 [Eh]
	-----------------------------------------------------------

  Dipole Moment: [D]
     X:    -0.1436      Y:     3.1075      Z:     1.9372     Total:     3.6647

*** Psi4 exiting successfully. Buy a developer a beer!
