                               Psi4 1.3.2 release

  ==> Input File <==

--------------------------------------------------------------------------
#psi4
#
memory 32 gb

molecule  {
0 1
  O       -1.9756670     1.6664010     0.1857370
  O        1.6511300    -1.1930600    -0.6768240
  O       -3.2820610    -0.0444860    -0.5140140
  N        0.1710020     0.3386478     0.2992710
  C       -0.9464590    -0.4858680    -0.1100250
  C       -1.2010820    -1.6869190     0.8036840
  C        2.5941300     0.7851170     0.3678910
  C        1.4652130    -0.1360080    -0.0663740
  C       -2.1453975     0.4321338    -0.1585407
  C        3.9493650     0.2879730    -0.1118860
  H       -0.7666830    -0.8628490    -1.1247510
  H        0.0773990     1.1958980     0.6978160
  H       -1.3680630    -1.3508140     1.8303240
  H       -2.0758160    -2.2433210     0.4601180
  H       -0.3237180    -2.3338760     0.7750620
  H        2.3897550     1.7945520    -0.0146150
  H        2.5759940     0.8629050     1.4619760
  H        4.1547340    -0.7097650     0.2816620
  H        3.9712690     0.2233490    -1.2012200
  H        4.7420490     0.9661550     0.2171920
  H       -2.8492950     2.1039740     0.1058080
units angstrom
no_reorient  #important for SAPT in psi4, default
symmetry c1  #important for SAPT in psi4, default
}

set PROPERTIES_ORIGIN ["COM"]
properties('MP2/aug-cc-pvtz', properties = ['dipole'])
--------------------------------------------------------------------------

    Molecular point group: c1
  Charge       = 0
  Multiplicity = 1
  Basis Set: AUG-CC-PVTZ
    Blend: AUG-CC-PVTZ
  Basis Set: (AUG-CC-PVTZ AUX)
    Blend: AUG-CC-PVTZ-JKFIT

    Orbital Energies [Eh]
    ---------------------

    Doubly Occupied:

       1A    -20.653108     2A    -20.544304     3A    -20.537402
       4A    -15.585694     5A    -11.403585     6A    -11.366185
       7A    -11.295678     8A    -11.250216     9A    -11.225308
      10A    -11.221911    11A     -1.505473    12A     -1.383345
      13A     -1.332791    14A     -1.244985    15A     -1.073104
      16A     -1.033588    17A     -0.934172    18A     -0.890154
      19A     -0.835845    20A     -0.796661    21A     -0.730319
      22A     -0.719482    23A     -0.685183    24A     -0.667627
      25A     -0.643541    26A     -0.637163    27A     -0.612465
      28A     -0.591171    29A     -0.584222    30A     -0.544533
      31A     -0.539529    32A     -0.527546    33A     -0.521801
      34A     -0.518477    35A     -0.494873    36A     -0.468571
      37A     -0.457119    38A     -0.431309    39A     -0.400401

  @DF-RHF Final Energy:  -512.86509228181490

   => Energetics <=

    Nuclear Repulsion Energy =            547.7915221946232123
    One-Electron Energy =               -1787.5355503327973565
    Two-Electron Energy =                 726.8789358563592486
    Total Energy =                       -512.8650922818148956
  Basis Set: (AUG-CC-PVTZ AUX)
    Blend: AUG-CC-PVTZ-RI
    Molecular point group: c1

    Geometry (in Angstrom), charge = 0, multiplicity = 1:

       Center              X                  Y                   Z               Mass
    ------------   -----------------  -----------------  -----------------  -----------------
         O           -1.975022946069     1.655357011005     0.183476928788    15.994914619570
         O            1.651774053931    -1.204103988995    -0.679084071212    15.994914619570
         O           -3.281416946069    -0.055529988995    -0.516274071212    15.994914619570
         N            0.171646053931     0.327603811005     0.297010928788    14.003074004430
         C           -0.945814946069    -0.496911988995    -0.112285071212    12.000000000000
         C           -1.200437946069    -1.697962988995     0.801423928788    12.000000000000
         C            2.594774053931     0.774073011005     0.365630928788    12.000000000000
         C            1.465857053931    -0.147051988995    -0.068634071212    12.000000000000
         C           -2.144753446069     0.421089811005    -0.160800771212    12.000000000000
         C            3.950009053931     0.276929011005    -0.114146071212    12.000000000000
         H           -0.766038946069    -0.873892988995    -1.127011071212     1.007825032230
         H            0.078043053931     1.184854011005     0.695555928788     1.007825032230
         H           -1.367418946069    -1.361857988995     1.828063928788     1.007825032230
         H           -2.075171946069    -2.254364988995     0.457857928788     1.007825032230
         H           -0.323073946069    -2.344919988995     0.772801928788     1.007825032230
         H            2.390399053931     1.783508011005    -0.016875071212     1.007825032230
         H            2.576638053931     0.851861011005     1.459715928788     1.007825032230
         H            4.155378053931    -0.720808988995     0.279401928788     1.007825032230
         H            3.971913053931     0.212305011005    -1.203480071212     1.007825032230
         H            4.742693053931     0.955111011005     0.214931928788     1.007825032230
         H           -2.848650946069     2.092930011005     0.103547928788     1.007825032230

  Basis Set: AUG-CC-PVTZ
    Blend: AUG-CC-PVTZ
  Basis Set: (AUG-CC-PVTZ AUX)
    Blend: AUG-CC-PVTZ-JKFIT
	 Reference Energy          =    -512.8650922818148956 [Eh]
	 Singles Energy            =      -0.0000000000000000 [Eh]
	 Same-Spin Energy          =      -0.5122353675005358 [Eh]
	 Opposite-Spin Energy      =      -1.6168081426715672 [Eh]
	 Correlation Energy        =      -2.1290435101721030 [Eh]
	 Total Energy              =    -514.9941357919869915 [Eh]

	 ================> DF-SCS-MP2 Energies <==================
	-----------------------------------------------------------
	 SCS Same-Spin Scale       =       0.3333333333333333 [-]
	 SCS Opposite-Spin Scale   =       1.2000000000000000 [-]
	 SCS Same-Spin Energy      =      -0.1707451225001786 [Eh]
	 SCS Opposite-Spin Energy  =      -1.9401697712058805 [Eh]
	 SCS Correlation Energy    =      -2.1109148937060591 [Eh]
	 SCS Total Energy          =    -514.9760071755209765 [Eh]
	-----------------------------------------------------------

  Dipole Moment: [D]
     X:     0.6090      Y:     3.6164      Z:     2.0809     Total:     4.2165

*** Psi4 exiting successfully. Buy a developer a beer!
