                               Psi4 1.3.2 release

  ==> Input File <==

--------------------------------------------------------------------------
#psi4
#
memory 32 gb

molecule  {
0 1
  O       -1.9756670     1.6664010     0.1857370
  O        1.6511300    -1.1930600    -0.6768240
  O       -3.2820610    -0.0444860    -0.5140140
  N        0.2152580     0.2772540     0.2951010
  C       -0.9464590    -0.4858680    -0.1100250
  C       -1.2101931    -1.6358561     0.8647530
  C        2.5941300     0.7851170     0.3678910
  C        1.4652130    -0.1360080    -0.0663740
  C       -2.1892550     0.3702600    -0.1810000
  C        3.9493650     0.2879730    -0.1118860
  H       -0.7599455    -0.8085050    -1.1421205
  H        0.0773990     1.1958980     0.6978160
  H       -1.3680630    -1.3508140     1.8303240
  H       -2.0758160    -2.2433210     0.4601180
  H       -0.3237180    -2.3338760     0.7750620
  H        2.3897550     1.7945520    -0.0146150
  H        2.5759940     0.8629050     1.4619760
  H        4.1547340    -0.7097650     0.2816620
  H        3.9712690     0.2233490    -1.2012200
  H        4.7420490     0.9661550     0.2171920
  H       -2.8492950     2.1039740     0.1058080
units angstrom
no_reorient  #important for SAPT in psi4, default
symmetry c1  #important for SAPT in psi4, default
}

set PROPERTIES_ORIGIN ["COM"]
properties('MP2/aug-cc-pvtz', properties = ['dipole'])
--------------------------------------------------------------------------

    Molecular point group: c1
  Charge       = 0
  Multiplicity = 1
  Basis Set: AUG-CC-PVTZ
    Blend: AUG-CC-PVTZ
  Basis Set: (AUG-CC-PVTZ AUX)
    Blend: AUG-CC-PVTZ-JKFIT

    Orbital Energies [Eh]
    ---------------------

    Doubly Occupied:

       1A    -20.635547     2A    -20.563395     3A    -20.524041
       4A    -15.591012     5A    -11.403731     6A    -11.355627
       7A    -11.297446     8A    -11.247249     9A    -11.228029
      10A    -11.219280    11A     -1.478120    12A     -1.380200
      13A     -1.373190    14A     -1.245485    15A     -1.074927
      16A     -1.035464    17A     -0.928316    18A     -0.885203
      19A     -0.818884    20A     -0.791839    21A     -0.730189
      22A     -0.714172    23A     -0.682439    24A     -0.665286
      25A     -0.641045    26A     -0.635194    27A     -0.612062
      28A     -0.601394    29A     -0.587240    30A     -0.546723
      31A     -0.536344    32A     -0.524868    33A     -0.519184
      34A     -0.517102    35A     -0.494830    36A     -0.489937
      37A     -0.467076    38A     -0.427881    39A     -0.399853

  @DF-RHF Final Energy:  -512.87716975305636

   => Energetics <=

    Nuclear Repulsion Energy =            548.4170103284305924
    One-Electron Energy =               -1788.8487555441893164
    Two-Electron Energy =                 727.5545754627024735
    Total Energy =                       -512.8771697530563642
  Basis Set: (AUG-CC-PVTZ AUX)
    Blend: AUG-CC-PVTZ-RI
    Molecular point group: c1

    Geometry (in Angstrom), charge = 0, multiplicity = 1:

       Center              X                  Y                   Z               Mass
    ------------   -----------------  -----------------  -----------------  -----------------
         O           -1.974960130248     1.661799682808     0.180806440281    15.994914619570
         O            1.651836869752    -1.197661317192    -0.681754559719    15.994914619570
         O           -3.281354130248    -0.049087317192    -0.518944559719    15.994914619570
         N            0.215964869752     0.272652682808     0.290170440281    14.003074004430
         C           -0.945752130248    -0.490469317192    -0.114955559719    12.000000000000
         C           -1.209486230248    -1.640457417192     0.859822440281    12.000000000000
         C            2.594836869752     0.780515682808     0.362960440281    12.000000000000
         C            1.465919869752    -0.140609317192    -0.071304559719    12.000000000000
         C           -2.188548130248     0.365658682808    -0.185930559719    12.000000000000
         C            3.950071869752     0.283371682808    -0.116816559719    12.000000000000
         H           -0.759238630248    -0.813106317192    -1.147051059719     1.007825032230
         H            0.078105869752     1.191296682808     0.692885440281     1.007825032230
         H           -1.367356130248    -1.355415317192     1.825393440281     1.007825032230
         H           -2.075109130248    -2.247922317192     0.455187440281     1.007825032230
         H           -0.323011130248    -2.338477317192     0.770131440281     1.007825032230
         H            2.390461869752     1.789950682808    -0.019545559719     1.007825032230
         H            2.576700869752     0.858303682808     1.457045440281     1.007825032230
         H            4.155440869752    -0.714366317192     0.276731440281     1.007825032230
         H            3.971975869752     0.218747682808    -1.206150559719     1.007825032230
         H            4.742755869752     0.961553682808     0.212261440281     1.007825032230
         H           -2.848588130248     2.099372682808     0.100877440281     1.007825032230

  Basis Set: AUG-CC-PVTZ
    Blend: AUG-CC-PVTZ
  Basis Set: (AUG-CC-PVTZ AUX)
    Blend: AUG-CC-PVTZ-JKFIT
	 Reference Energy          =    -512.8771697530563642 [Eh]
	 Singles Energy            =      -0.0000000000000000 [Eh]
	 Same-Spin Energy          =      -0.5116330424469799 [Eh]
	 Opposite-Spin Energy      =      -1.6155353088312725 [Eh]
	 Correlation Energy        =      -2.1271683512782524 [Eh]
	 Total Energy              =    -515.0043381043345789 [Eh]

	 ================> DF-SCS-MP2 Energies <==================
	-----------------------------------------------------------
	 SCS Same-Spin Scale       =       0.3333333333333333 [-]
	 SCS Opposite-Spin Scale   =       1.2000000000000000 [-]
	 SCS Same-Spin Energy      =      -0.1705443474823266 [Eh]
	 SCS Opposite-Spin Energy  =      -1.9386423705975269 [Eh]
	 SCS Correlation Energy    =      -2.1091867180798536 [Eh]
	 SCS Total Energy          =    -514.9863564711362187 [Eh]
	-----------------------------------------------------------

  Dipole Moment: [D]
     X:    -0.0680      Y:     3.3410      Z:     1.9846     Total:     3.8866

*** Psi4 exiting successfully. Buy a developer a beer!
