                               Psi4 1.3.2 release

  ==> Input File <==

--------------------------------------------------------------------------
#psi4
#
memory 32 gb

molecule  {
0 1
  O       -1.9756670     1.6664010     0.1857370
  O        1.6511300    -1.1930600    -0.6768240
  O       -3.2820610    -0.0444860    -0.5140140
  N        0.2152580     0.2772540     0.2951010
  C       -0.9464590    -0.4858680    -0.1100250
  C       -1.2010820    -1.6869190     0.8036840
  C        2.5941300     0.7851170     0.3678910
  C        1.4953275    -0.3072271    -0.1652534
  C       -2.1892550     0.3702600    -0.1810000
  C        3.9493650     0.2879730    -0.1118860
  H       -0.7666830    -0.8628490    -1.1247510
  H        0.0773990     1.1958980     0.6978160
  H       -1.3680630    -1.3508140     1.8303240
  H       -2.0758160    -2.2433210     0.4601180
  H       -0.3237180    -2.3338760     0.7750620
  H        2.3897550     1.7945520    -0.0146150
  H        2.5759940     0.8629050     1.4619760
  H        4.1547340    -0.7097650     0.2816620
  H        3.9712690     0.2233490    -1.2012200
  H        4.7420490     0.9661550     0.2171920
  H       -2.8492950     2.1039740     0.1058080
units angstrom
no_reorient  #important for SAPT in psi4, default
symmetry c1  #important for SAPT in psi4, default
}

set PROPERTIES_ORIGIN ["COM"]
properties('MP2/aug-cc-pvtz', properties = ['dipole'])
--------------------------------------------------------------------------

    Molecular point group: c1
  Charge       = 0
  Multiplicity = 1
  Basis Set: AUG-CC-PVTZ
    Blend: AUG-CC-PVTZ
  Basis Set: (AUG-CC-PVTZ AUX)
    Blend: AUG-CC-PVTZ-JKFIT

    Orbital Energies [Eh]
    ---------------------

    Doubly Occupied:

       1A    -20.627883     2A    -20.565885     3A    -20.555979
       4A    -15.560619     5A    -11.395595     6A    -11.349347
       7A    -11.283304     8A    -11.237908     9A    -11.222399
      10A    -11.216649    11A     -1.543557    12A     -1.470108
      13A     -1.365818    14A     -1.216867    15A     -1.051621
      16A     -1.019351    17A     -0.916236    18A     -0.863378
      19A     -0.807393    20A     -0.778520    21A     -0.739089
      22A     -0.710219    23A     -0.695260    24A     -0.678810
      25A     -0.671496    26A     -0.649012    27A     -0.611854
      28A     -0.602956    29A     -0.598341    30A     -0.558208
      31A     -0.544791    32A     -0.540450    33A     -0.525894
      34A     -0.515121    35A     -0.499569    36A     -0.488485
      37A     -0.464570    38A     -0.399157    39A     -0.387840

  @DF-RHF Final Energy:  -512.81062639625986

   => Energetics <=

    Nuclear Repulsion Energy =            549.4649728970680371
    One-Electron Energy =               -1790.6921136040612055
    Two-Electron Energy =                 728.4165143107333051
    Total Energy =                       -512.8106263962598632
  Basis Set: (AUG-CC-PVTZ AUX)
    Blend: AUG-CC-PVTZ-RI
    Molecular point group: c1

    Geometry (in Angstrom), charge = 0, multiplicity = 1:

       Center              X                  Y                   Z               Mass
    ------------   -----------------  -----------------  -----------------  -----------------
         O           -1.978157928063     1.680563591208     0.193916141419    15.994914619570
         O            1.648639071937    -1.178897408792    -0.668644858581    15.994914619570
         O           -3.284551928063    -0.030323408792    -0.505834858581    15.994914619570
         N            0.212767071937     0.291416591208     0.303280141419    14.003074004430
         C           -0.948949928063    -0.471705408792    -0.101845858581    12.000000000000
         C           -1.203572928063    -1.672756408792     0.811863141419    12.000000000000
         C            2.591639071937     0.799279591208     0.376070141419    12.000000000000
         C            1.492836571937    -0.293064508792    -0.157074258581    12.000000000000
         C           -2.191745928063     0.384422591208    -0.172820858581    12.000000000000
         C            3.946874071937     0.302135591208    -0.103706858581    12.000000000000
         H           -0.769173928063    -0.848686408792    -1.116571858581     1.007825032230
         H            0.074908071937     1.210060591208     0.705995141419     1.007825032230
         H           -1.370553928063    -1.336651408792     1.838503141419     1.007825032230
         H           -2.078306928063    -2.229158408792     0.468297141419     1.007825032230
         H           -0.326208928063    -2.319713408792     0.783241141419     1.007825032230
         H            2.387264071937     1.808714591208    -0.006435858581     1.007825032230
         H            2.573503071937     0.877067591208     1.470155141419     1.007825032230
         H            4.152243071937    -0.695602408792     0.289841141419     1.007825032230
         H            3.968778071937     0.237511591208    -1.193040858581     1.007825032230
         H            4.739558071937     0.980317591208     0.225371141419     1.007825032230
         H           -2.851785928063     2.118136591208     0.113987141419     1.007825032230

  Basis Set: AUG-CC-PVTZ
    Blend: AUG-CC-PVTZ
  Basis Set: (AUG-CC-PVTZ AUX)
    Blend: AUG-CC-PVTZ-JKFIT
	 Reference Energy          =    -512.8106263962598632 [Eh]
	 Singles Energy            =      -0.0000000000000000 [Eh]
	 Same-Spin Energy          =      -0.5077825321246474 [Eh]
	 Opposite-Spin Energy      =      -1.6082609406071038 [Eh]
	 Correlation Energy        =      -2.1160434727317510 [Eh]
	 Total Energy              =    -514.9266698689916666 [Eh]

	 ================> DF-SCS-MP2 Energies <==================
	-----------------------------------------------------------
	 SCS Same-Spin Scale       =       0.3333333333333333 [-]
	 SCS Opposite-Spin Scale   =       1.2000000000000000 [-]
	 SCS Same-Spin Energy      =      -0.1692608440415491 [Eh]
	 SCS Opposite-Spin Energy  =      -1.9299131287285245 [Eh]
	 SCS Correlation Energy    =      -2.0991739727700738 [Eh]
	 SCS Total Energy          =    -514.9098003690298810 [Eh]
	-----------------------------------------------------------

  Dipole Moment: [D]
     X:     0.7408      Y:     2.2595      Z:     1.2473     Total:     2.6852

*** Psi4 exiting successfully. Buy a developer a beer!
