                               Psi4 1.3.2 release

  ==> Input File <==

--------------------------------------------------------------------------
#psi4
#
memory 32 gb

molecule  {
0 1
  O       -1.9756670     1.6664010     0.1857370
  O        1.6511300    -1.1930600    -0.6768240
  O       -3.3051029     0.0141973    -0.5054077
  N        0.2152580     0.2772540     0.2951010
  C       -0.9062754    -0.4219312    -0.0864957
  C       -1.2010820    -1.6869190     0.8036840
  C        2.5941300     0.7851170     0.3678910
  C        1.4652130    -0.1360080    -0.0663740
  C       -2.1892550     0.3702600    -0.1810000
  C        3.9493650     0.2879730    -0.1118860
  H       -0.7666830    -0.8628490    -1.1247510
  H        0.0773990     1.1958980     0.6978160
  H       -1.3680630    -1.3508140     1.8303240
  H       -2.0758160    -2.2433210     0.4601180
  H       -0.3237180    -2.3338760     0.7750620
  H        2.3897550     1.7945520    -0.0146150
  H        2.5759940     0.8629050     1.4619760
  H        4.1547340    -0.7097650     0.2816620
  H        3.9712690     0.2233490    -1.2012200
  H        4.7420490     0.9661550     0.2171920
  H       -2.8492950     2.1039740     0.1058080
units angstrom
no_reorient  #important for SAPT in psi4, default
symmetry c1  #important for SAPT in psi4, default
}

set PROPERTIES_ORIGIN ["COM"]
properties('MP2/aug-cc-pvtz', properties = ['dipole'])
--------------------------------------------------------------------------

    Molecular point group: c1
  Charge       = 0
  Multiplicity = 1
  Basis Set: AUG-CC-PVTZ
    Blend: AUG-CC-PVTZ
  Basis Set: (AUG-CC-PVTZ AUX)
    Blend: AUG-CC-PVTZ-JKFIT

    Orbital Energies [Eh]
    ---------------------

    Doubly Occupied:

       1A    -20.628251     2A    -20.562195     3A    -20.529445
       4A    -15.596622     5A    -11.404123     6A    -11.360978
       7A    -11.298355     8A    -11.250645     9A    -11.228419
      10A    -11.221696    11A     -1.477297    12A     -1.387016
      13A     -1.367307    14A     -1.264932    15A     -1.075462
      16A     -1.032911    17A     -0.928622    18A     -0.890113
      19A     -0.815434    20A     -0.800892    21A     -0.737193
      22A     -0.711739    23A     -0.689031    24A     -0.664022
      25A     -0.643236    26A     -0.632660    27A     -0.608153
      28A     -0.602611    29A     -0.584907    30A     -0.547358
      31A     -0.539142    32A     -0.530672    33A     -0.522101
      34A     -0.515223    35A     -0.497671    36A     -0.486243
      37A     -0.465772    38A     -0.433780    39A     -0.397144

  @DF-RHF Final Energy:  -512.87723288356369

   => Energetics <=

    Nuclear Repulsion Energy =            548.7599548322563123
    One-Electron Energy =               -1789.4156280115682875
    Two-Electron Energy =                 727.7784402957483962
    Total Energy =                       -512.8772328835636927
  Basis Set: (AUG-CC-PVTZ AUX)
    Blend: AUG-CC-PVTZ-RI
    Molecular point group: c1

    Geometry (in Angstrom), charge = 0, multiplicity = 1:

       Center              X                  Y                   Z               Mass
    ------------   -----------------  -----------------  -----------------  -----------------
         O           -1.976450356717     1.654642282490     0.182842050844    15.994914619570
         O            1.650346643283    -1.204818717510    -0.679718949156    15.994914619570
         O           -3.305886256717     0.002438582490    -0.508302649156    15.994914619570
         N            0.214474643283     0.265495282490     0.292206050844    14.003074004430
         C           -0.907058756717    -0.433689917510    -0.089390649156    12.000000000000
         C           -1.201865356717    -1.698677717510     0.800789050844    12.000000000000
         C            2.593346643283     0.773358282490     0.364996050844    12.000000000000
         C            1.464429643283    -0.147766717510    -0.069268949156    12.000000000000
         C           -2.190038356717     0.358501282490    -0.183894949156    12.000000000000
         C            3.948581643283     0.276214282490    -0.114780949156    12.000000000000
         H           -0.767466356717    -0.874607717510    -1.127645949156     1.007825032230
         H            0.076615643283     1.184139282490     0.694921050844     1.007825032230
         H           -1.368846356717    -1.362572717510     1.827429050844     1.007825032230
         H           -2.076599356717    -2.255079717510     0.457223050844     1.007825032230
         H           -0.324501356717    -2.345634717510     0.772167050844     1.007825032230
         H            2.388971643283     1.782793282490    -0.017509949156     1.007825032230
         H            2.575210643283     0.851146282490     1.459081050844     1.007825032230
         H            4.153950643283    -0.721523717510     0.278767050844     1.007825032230
         H            3.970485643283     0.211590282490    -1.204114949156     1.007825032230
         H            4.741265643283     0.954396282490     0.214297050844     1.007825032230
         H           -2.850078356717     2.092215282490     0.102913050844     1.007825032230

  Basis Set: AUG-CC-PVTZ
    Blend: AUG-CC-PVTZ
  Basis Set: (AUG-CC-PVTZ AUX)
    Blend: AUG-CC-PVTZ-JKFIT
	 Reference Energy          =    -512.8772328835636927 [Eh]
	 Singles Energy            =      -0.0000000000000000 [Eh]
	 Same-Spin Energy          =      -0.5121632295234020 [Eh]
	 Opposite-Spin Energy      =      -1.6156608135050714 [Eh]
	 Correlation Energy        =      -2.1278240430284736 [Eh]
	 Total Energy              =    -515.0050569265921467 [Eh]

	 ================> DF-SCS-MP2 Energies <==================
	-----------------------------------------------------------
	 SCS Same-Spin Scale       =       0.3333333333333333 [-]
	 SCS Opposite-Spin Scale   =       1.2000000000000000 [-]
	 SCS Same-Spin Energy      =      -0.1707210765078007 [Eh]
	 SCS Opposite-Spin Energy  =      -1.9387929762060856 [Eh]
	 SCS Correlation Energy    =      -2.1095140527138865 [Eh]
	 SCS Total Energy          =    -514.9867469362775410 [Eh]
	-----------------------------------------------------------

  Dipole Moment: [D]
     X:     0.3237      Y:     3.2424      Z:     1.9574     Total:     3.8013

*** Psi4 exiting successfully. Buy a developer a beer!
