                               Psi4 1.3.2 release

  ==> Input File <==

--------------------------------------------------------------------------
#psi4
#
memory 32 gb

molecule  {
0 1
  O       -1.9756670     1.6664010     0.1857370
  O        1.6298454    -1.1964195    -0.6771087
  O       -3.2820610    -0.0444860    -0.5140140
  N        0.2152580     0.2772540     0.2951010
  C       -0.9464590    -0.4858680    -0.1100250
  C       -1.2010820    -1.6869190     0.8036840
  C        2.5762711     0.8016008     0.3785424
  C        1.4652130    -0.1360080    -0.0663740
  C       -2.1892550     0.3702600    -0.1810000
  C        3.9493650     0.2879730    -0.1118860
  H       -0.7666830    -0.8628490    -1.1247510
  H        0.0773990     1.1958980     0.6978160
  H       -1.3680630    -1.3508140     1.8303240
  H       -2.0758160    -2.2433210     0.4601180
  H       -0.3237180    -2.3338760     0.7750620
  H        2.3897550     1.7945520    -0.0146150
  H        2.5759940     0.8629050     1.4619760
  H        4.1547340    -0.7097650     0.2816620
  H        3.9712690     0.2233490    -1.2012200
  H        4.7420490     0.9661550     0.2171920
  H       -2.8492950     2.1039740     0.1058080
units angstrom
no_reorient  #important for SAPT in psi4, default
symmetry c1  #important for SAPT in psi4, default
}

set PROPERTIES_ORIGIN ["COM"]
properties('MP2/aug-cc-pvtz', properties = ['dipole'])
--------------------------------------------------------------------------

    Molecular point group: c1
  Charge       = 0
  Multiplicity = 1
  Basis Set: AUG-CC-PVTZ
    Blend: AUG-CC-PVTZ
  Basis Set: (AUG-CC-PVTZ AUX)
    Blend: AUG-CC-PVTZ-JKFIT

    Orbital Energies [Eh]
    ---------------------

    Doubly Occupied:

       1A    -20.635476     2A    -20.563233     3A    -20.525001
       4A    -15.590991     5A    -11.404130     6A    -11.356378
       7A    -11.295406     8A    -11.247395     9A    -11.226260
      10A    -11.221322    11A     -1.477913    12A     -1.381142
      13A     -1.373017    14A     -1.244071    15A     -1.074463
      16A     -1.033240    17A     -0.927077    18A     -0.885982
      19A     -0.816116    20A     -0.792649    21A     -0.731235
      22A     -0.714070    23A     -0.682521    24A     -0.665080
      25A     -0.643547    26A     -0.633281    27A     -0.609649
      28A     -0.602555    29A     -0.580269    30A     -0.545326
      31A     -0.543083    32A     -0.522955    33A     -0.520631
      34A     -0.516020    35A     -0.500490    36A     -0.489447
      37A     -0.467180    38A     -0.429812    39A     -0.399456

  @DF-RHF Final Energy:  -512.88521701186005

   => Energetics <=

    Nuclear Repulsion Energy =            548.2527764674546233
    One-Electron Energy =               -1788.5402488190932218
    Two-Electron Energy =                 727.4022553397785487
    Total Energy =                       -512.8852170118600498
  Basis Set: (AUG-CC-PVTZ AUX)
    Blend: AUG-CC-PVTZ-RI
    Molecular point group: c1

    Geometry (in Angstrom), charge = 0, multiplicity = 1:

       Center              X                  Y                   Z               Mass
    ------------   -----------------  -----------------  -----------------  -----------------
         O           -1.971843034740     1.665407867214     0.184887529732    15.994914619570
         O            1.633669365260    -1.197412632786    -0.677958170268    15.994914619570
         O           -3.278237034740    -0.045479132786    -0.514863470268    15.994914619570
         N            0.219081965260     0.276260867214     0.294251529732    14.003074004430
         C           -0.942635034740    -0.486861132786    -0.110874470268    12.000000000000
         C           -1.197258034740    -1.687912132786     0.802834529732    12.000000000000
         C            2.580095065260     0.800607667214     0.377692929732    12.000000000000
         C            1.469036965260    -0.137001132786    -0.067223470268    12.000000000000
         C           -2.185431034740     0.369266867214    -0.181849470268    12.000000000000
         C            3.953188965260     0.286979867214    -0.112735470268    12.000000000000
         H           -0.762859034740    -0.863842132786    -1.125600470268     1.007825032230
         H            0.081222965260     1.194904867214     0.696966529732     1.007825032230
         H           -1.364239034740    -1.351807132786     1.829474529732     1.007825032230
         H           -2.071992034740    -2.244314132786     0.459268529732     1.007825032230
         H           -0.319894034740    -2.334869132786     0.774212529732     1.007825032230
         H            2.393578965260     1.793558867214    -0.015464470268     1.007825032230
         H            2.579817965260     0.861911867214     1.461126529732     1.007825032230
         H            4.158557965260    -0.710758132786     0.280812529732     1.007825032230
         H            3.975092965260     0.222355867214    -1.202069470268     1.007825032230
         H            4.745872965260     0.965161867214     0.216342529732     1.007825032230
         H           -2.845471034740     2.102980867214     0.104958529732     1.007825032230

  Basis Set: AUG-CC-PVTZ
    Blend: AUG-CC-PVTZ
  Basis Set: (AUG-CC-PVTZ AUX)
    Blend: AUG-CC-PVTZ-JKFIT
	 Reference Energy          =    -512.8852170118600498 [Eh]
	 Singles Energy            =      -0.0000000000000000 [Eh]
	 Same-Spin Energy          =      -0.5113257192165022 [Eh]
	 Opposite-Spin Energy      =      -1.6150194974022871 [Eh]
	 Correlation Energy        =      -2.1263452166187893 [Eh]
	 Total Energy              =    -515.0115622284788515 [Eh]

	 ================> DF-SCS-MP2 Energies <==================
	-----------------------------------------------------------
	 SCS Same-Spin Scale       =       0.3333333333333333 [-]
	 SCS Opposite-Spin Scale   =       1.2000000000000000 [-]
	 SCS Same-Spin Energy      =      -0.1704419064055007 [Eh]
	 SCS Opposite-Spin Energy  =      -1.9380233968827445 [Eh]
	 SCS Correlation Energy    =      -2.1084653032882450 [Eh]
	 SCS Total Energy          =    -514.9936823151482486 [Eh]
	-----------------------------------------------------------

  Dipole Moment: [D]
     X:     0.0202      Y:     3.3317      Z:     1.9637     Total:     3.8674

*** Psi4 exiting successfully. Buy a developer a beer!
