                               Psi4 1.3.2 release

  ==> Input File <==

--------------------------------------------------------------------------
#psi4
#
memory 32 gb

molecule  {
0 1
  O       -1.9756670     1.6664010     0.1857370
  O        1.6511300    -1.1930600    -0.6768240
  O       -3.2820610    -0.0444860    -0.5140140
  N        0.2152580     0.2772540     0.2951010
  C       -0.9157690    -0.5184941    -0.1334216
  C       -1.2010820    -1.6869190     0.8036840
  C        2.5941300     0.7851170     0.3678910
  C        1.4455297    -0.1731245    -0.0888625
  C       -2.1892550     0.3702600    -0.1810000
  C        3.9493650     0.2879730    -0.1118860
  H       -0.7666830    -0.8628490    -1.1247510
  H        0.0773990     1.1958980     0.6978160
  H       -1.3680630    -1.3508140     1.8303240
  H       -2.0758160    -2.2433210     0.4601180
  H       -0.3237180    -2.3338760     0.7750620
  H        2.3897550     1.7945520    -0.0146150
  H        2.5759940     0.8629050     1.4619760
  H        4.1547340    -0.7097650     0.2816620
  H        3.9712690     0.2233490    -1.2012200
  H        4.7420490     0.9661550     0.2171920
  H       -2.8492950     2.1039740     0.1058080
units angstrom
no_reorient  #important for SAPT in psi4, default
symmetry c1  #important for SAPT in psi4, default
}

set PROPERTIES_ORIGIN ["COM"]
properties('MP2/aug-cc-pvtz', properties = ['dipole'])
--------------------------------------------------------------------------

    Molecular point group: c1
  Charge       = 0
  Multiplicity = 1
  Basis Set: AUG-CC-PVTZ
    Blend: AUG-CC-PVTZ
  Basis Set: (AUG-CC-PVTZ AUX)
    Blend: AUG-CC-PVTZ-JKFIT

    Orbital Energies [Eh]
    ---------------------

    Doubly Occupied:

       1A    -20.635608     2A    -20.563025     3A    -20.530350
       4A    -15.589580     5A    -11.403735     6A    -11.352602
       7A    -11.295661     8A    -11.244034     9A    -11.226389
      10A    -11.217098    11A     -1.476732    12A     -1.406100
      13A     -1.372360    14A     -1.249137    15A     -1.067589
      16A     -1.030799    17A     -0.922428    18A     -0.875760
      19A     -0.821847    20A     -0.792754    21A     -0.726276
      22A     -0.714034    23A     -0.684397    24A     -0.665148
      25A     -0.639017    26A     -0.637740    27A     -0.612354
      28A     -0.607613    29A     -0.586136    30A     -0.547296
      31A     -0.542281    32A     -0.527132    33A     -0.524039
      34A     -0.518127    35A     -0.496327    36A     -0.493327
      37A     -0.464317    38A     -0.423414    39A     -0.404132

  @DF-RHF Final Energy:  -512.88362019093154

   => Energetics <=

    Nuclear Repulsion Energy =            548.3049237032507790
    One-Electron Energy =               -1788.6036969218457671
    Two-Electron Energy =                 727.4151530276634503
    Total Energy =                       -512.8836201909315378
  Basis Set: (AUG-CC-PVTZ AUX)
    Blend: AUG-CC-PVTZ-RI
    Molecular point group: c1

    Geometry (in Angstrom), charge = 0, multiplicity = 1:

       Center              X                  Y                   Z               Mass
    ------------   -----------------  -----------------  -----------------  -----------------
         O           -1.976577398342     1.672169813575     0.189532640116    15.994914619570
         O            1.650219601658    -1.187291186425    -0.673028359884    15.994914619570
         O           -3.282971398342    -0.038717186425    -0.510218359884    15.994914619570
         N            0.214347601658     0.283022813575     0.298896640116    14.003074004430
         C           -0.916679398342    -0.512725286425    -0.129625959884    12.000000000000
         C           -1.201992398342    -1.681150186425     0.807479640116    12.000000000000
         C            2.593219601658     0.790885813575     0.371686640116    12.000000000000
         C            1.444619301658    -0.167355686425    -0.085066859884    12.000000000000
         C           -2.190165398342     0.376028813575    -0.177204359884    12.000000000000
         C            3.948454601658     0.293741813575    -0.108090359884    12.000000000000
         H           -0.767593398342    -0.857080186425    -1.120955359884     1.007825032230
         H            0.076488601658     1.201666813575     0.701611640116     1.007825032230
         H           -1.368973398342    -1.345045186425     1.834119640116     1.007825032230
         H           -2.076726398342    -2.237552186425     0.463913640116     1.007825032230
         H           -0.324628398342    -2.328107186425     0.778857640116     1.007825032230
         H            2.388844601658     1.800320813575    -0.010819359884     1.007825032230
         H            2.575083601658     0.868673813575     1.465771640116     1.007825032230
         H            4.153823601658    -0.703996186425     0.285457640116     1.007825032230
         H            3.970358601658     0.229117813575    -1.197424359884     1.007825032230
         H            4.741138601658     0.971923813575     0.220987640116     1.007825032230
         H           -2.850205398342     2.109742813575     0.109603640116     1.007825032230

  Basis Set: AUG-CC-PVTZ
    Blend: AUG-CC-PVTZ
  Basis Set: (AUG-CC-PVTZ AUX)
    Blend: AUG-CC-PVTZ-JKFIT
	 Reference Energy          =    -512.8836201909315378 [Eh]
	 Singles Energy            =      -0.0000000000000000 [Eh]
	 Same-Spin Energy          =      -0.5101977347913362 [Eh]
	 Opposite-Spin Energy      =      -1.6129398264914925 [Eh]
	 Correlation Energy        =      -2.1231375612828289 [Eh]
	 Total Energy              =    -515.0067577522144120 [Eh]

	 ================> DF-SCS-MP2 Energies <==================
	-----------------------------------------------------------
	 SCS Same-Spin Scale       =       0.3333333333333333 [-]
	 SCS Opposite-Spin Scale   =       1.2000000000000000 [-]
	 SCS Same-Spin Energy      =      -0.1700659115971121 [Eh]
	 SCS Opposite-Spin Energy  =      -1.9355277917897908 [Eh]
	 SCS Correlation Energy    =      -2.1055937033869028 [Eh]
	 SCS Total Energy          =    -514.9892138943184818 [Eh]
	-----------------------------------------------------------

  Dipole Moment: [D]
     X:    -0.1303      Y:     3.1259      Z:     1.8368     Total:     3.6279

*** Psi4 exiting successfully. Buy a developer a beer!
