                               Psi4 1.4a3.dev225

  ==> Input File <==

--------------------------------------------------------------------------
#psi4
#
memory 32 gb

molecule  {
0 1
  O        2.1858500    -1.4843500     0.4466430
  O       -1.5901990     1.2021140    -0.7742790
  O        3.2899360     0.0893000    -0.7567370
  N       -0.1552130    -0.3501220     0.0655300
  C        0.9973750     0.5138300    -0.1038320
  C        1.1384291     1.5465128     1.0480039
  C       -2.5208420    -0.9251940    -0.0919400
  C       -1.4008270     0.0814870    -0.2899980
  C        2.2713450    -0.2912280    -0.2118740
  C       -3.8280260    -0.2360070     0.2837800
  H        0.8752740     1.0541530    -1.0466610
  H       -0.0274960    -1.2421660     0.5250420
  H        1.2555520     1.0181310     1.9903510
  H        2.0023980     2.1787030     0.8613650
  H        0.2327940     2.1443920     1.0604580
  H       -2.6404080    -1.4674310    -1.0380590
  H       -2.2372030    -1.6677960     0.6628800
  H       -3.7417830     0.2575120     1.2553170
  H       -4.0728600     0.5241080    -0.4590610
  H       -4.6456460    -0.9595500     0.3374610
  H        3.0673500    -1.9023430     0.3513230
units angstrom
no_reorient  #important for SAPT in psi4, default
symmetry c1  #important for SAPT in psi4, default
}

set PROPERTIES_ORIGIN ["COM"]
properties('MP2/aug-cc-pvtz', properties = ['dipole'])
--------------------------------------------------------------------------

    Molecular point group: c1
  Charge       = 0
  Multiplicity = 1
  Basis Set: AUG-CC-PVTZ
    Blend: AUG-CC-PVTZ
  Basis Set: (AUG-CC-PVTZ AUX)
    Blend: AUG-CC-PVTZ-JKFIT

    Orbital Energies [Eh]
    ---------------------

    Doubly Occupied:

       1A    -20.634394     2A    -20.564977     3A    -20.522668
       4A    -15.596053     5A    -11.403896     6A    -11.356887
       7A    -11.297128     8A    -11.247757     9A    -11.232692
      10A    -11.222414    11A     -1.476400    12A     -1.379463
      13A     -1.372566    14A     -1.245493    15A     -1.074818
      16A     -1.036263    17A     -0.928909    18A     -0.886509
      19A     -0.822236    20A     -0.794544    21A     -0.727156
      22A     -0.714339    23A     -0.680136    24A     -0.659901
      25A     -0.642343    26A     -0.634328    27A     -0.610800
      28A     -0.599193    29A     -0.582541    30A     -0.557947
      31A     -0.551457    32A     -0.530539    33A     -0.523620
      34A     -0.513243    35A     -0.498206    36A     -0.486997
      37A     -0.469479    38A     -0.427694    39A     -0.399312

  @DF-RHF Final Energy:  -512.88612950563231

   => Energetics <=

    Nuclear Repulsion Energy =            547.5072621023650754
    One-Electron Energy =               -1786.9761856457732847
    Two-Electron Energy =                 726.5827940377758978
    Total Energy =                       -512.8861295056323115
  Basis Set: (AUG-CC-PVTZ AUX)
    Blend: AUG-CC-PVTZ-RI
    Molecular point group: c1

    Geometry (in Angstrom), charge = 0, multiplicity = 1:

       Center              X                  Y                   Z               Mass
    ------------   -----------------  -----------------  -----------------  -----------------
         O            2.117913062977    -1.485875126773     0.476155693952    15.994914619570
         O           -1.658135937023     1.200588873227    -0.744766306048    15.994914619570
         O            3.221999062977     0.087774873227    -0.727224306048    15.994914619570
         N           -0.223149937023    -0.351647126773     0.095042693952    14.003074004430
         C            0.929438062977     0.512304873227    -0.074319306048    12.000000000000
         C            1.070492162977     1.544987673227     1.077516593952    12.000000000000
         C           -2.588778937023    -0.926719126773    -0.062427306048    12.000000000000
         C           -1.468763937023     0.079961873227    -0.260485306048    12.000000000000
         C            2.203408062977    -0.292753126773    -0.182361306048    12.000000000000
         C           -3.895962937023    -0.237532126773     0.313292693952    12.000000000000
         H            0.807337062977     1.052627873227    -1.017148306048     1.007825032230
         H           -0.095432937023    -1.243691126773     0.554554693952     1.007825032230
         H            1.187615062977     1.016605873227     2.019863693952     1.007825032230
         H            1.934461062977     2.177177873227     0.890877693952     1.007825032230
         H            0.164857062977     2.142866873227     1.089970693952     1.007825032230
         H           -2.708344937023    -1.468956126773    -1.008546306048     1.007825032230
         H           -2.305139937023    -1.669321126773     0.692392693952     1.007825032230
         H           -3.809719937023     0.255986873227     1.284829693952     1.007825032230
         H           -4.140796937023     0.522582873227    -0.429548306048     1.007825032230
         H           -4.713582937023    -0.961075126773     0.366973693952     1.007825032230
         H            2.999413062977    -1.903868126773     0.380835693952     1.007825032230

  Basis Set: AUG-CC-PVTZ
    Blend: AUG-CC-PVTZ
  Basis Set: (AUG-CC-PVTZ AUX)
    Blend: AUG-CC-PVTZ-JKFIT
	 Reference Energy          =    -512.8861295056323115 [Eh]
	 Singles Energy            =      -0.0000000000000000 [Eh]
	 Same-Spin Energy          =      -0.5110965753399548 [Eh]
	 Opposite-Spin Energy      =      -1.6150448361670517 [Eh]
	 Correlation Energy        =      -2.1261414115070068 [Eh]
	 Total Energy              =    -515.0122709171392898 [Eh]

	 ================> DF-SCS-MP2 Energies <==================
	-----------------------------------------------------------
	 SCS Same-Spin Scale       =       0.3333333333333333 [-]
	 SCS Opposite-Spin Scale   =       1.2000000000000000 [-]
	 SCS Same-Spin Energy      =      -0.1703655251133183 [Eh]
	 SCS Opposite-Spin Energy  =      -1.9380538034004620 [Eh]
	 SCS Correlation Energy    =      -2.1084193285137802 [Eh]
	 SCS Total Energy          =    -514.9945488341461441 [Eh]
	-----------------------------------------------------------

  Dipole Moment: [D]
     X:     0.1299      Y:    -3.2900      Z:     2.2928     Total:     4.0122

*** Psi4 exiting successfully. Buy a developer a beer!
