                               Psi4 1.3.2 release

  ==> Input File <==

--------------------------------------------------------------------------
#psi4
#
memory 32 gb

molecule  {
0 1
  O       -1.9756670     1.6664010     0.1857370
  O        1.6511300    -1.1930600    -0.6768240
  O       -3.2820610    -0.0444860    -0.5140140
  N        0.2152580     0.2772540     0.2951010
  C       -0.9539118    -0.4775646    -0.1040976
  C       -1.2010820    -1.6869190     0.8036840
  C        2.5941300     0.7851170     0.3678910
  C        1.4698968    -0.1266484    -0.0606820
  C       -2.1892550     0.3702600    -0.1810000
  C        3.9493650     0.2879730    -0.1118860
  H       -0.7666830    -0.8628490    -1.1247510
  H        0.0773990     1.1958980     0.6978160
  H       -1.3680630    -1.3508140     1.8303240
  H       -2.0758160    -2.2433210     0.4601180
  H       -0.3237180    -2.3338760     0.7750620
  H        2.3897550     1.7945520    -0.0146150
  H        2.5759940     0.8629050     1.4619760
  H        4.1547340    -0.7097650     0.2816620
  H        3.9712690     0.2233490    -1.2012200
  H        4.7420490     0.9661550     0.2171920
  H       -2.8492950     2.1039740     0.1058080
units angstrom
no_reorient  #important for SAPT in psi4, default
symmetry c1  #important for SAPT in psi4, default
}

set PROPERTIES_ORIGIN ["COM"]
properties('MP2/aug-cc-pvtz', properties = ['dipole'])
--------------------------------------------------------------------------

    Molecular point group: c1
  Charge       = 0
  Multiplicity = 1
  Basis Set: AUG-CC-PVTZ
    Blend: AUG-CC-PVTZ
  Basis Set: (AUG-CC-PVTZ AUX)
    Blend: AUG-CC-PVTZ-JKFIT

    Orbital Energies [Eh]
    ---------------------

    Doubly Occupied:

       1A    -20.636025     2A    -20.563930     3A    -20.523198
       4A    -15.593207     5A    -11.404932     6A    -11.357124
       7A    -11.296758     8A    -11.248302     9A    -11.227145
      10A    -11.220098    11A     -1.478840    12A     -1.375122
      13A     -1.373450    14A     -1.244299    15A     -1.076901
      16A     -1.036959    17A     -0.929109    18A     -0.887899
      19A     -0.815639    20A     -0.792228    21A     -0.732056
      22A     -0.714690    23A     -0.683046    24A     -0.665850
      25A     -0.642076    26A     -0.632174    27A     -0.610746
      28A     -0.600535    29A     -0.579298    30A     -0.546938
      31A     -0.544033    32A     -0.524663    33A     -0.519763
      34A     -0.518716    35A     -0.497799    36A     -0.486203
      37A     -0.468649    38A     -0.429381    39A     -0.399150

  @DF-RHF Final Energy:  -512.88442710053482

   => Energetics <=

    Nuclear Repulsion Energy =            548.1809237300880113
    One-Electron Energy =               -1788.3768398457330022
    Two-Electron Energy =                 727.3114890151102827
    Total Energy =                       -512.8844271005348219
  Basis Set: (AUG-CC-PVTZ AUX)
    Blend: AUG-CC-PVTZ-RI
    Molecular point group: c1

    Geometry (in Angstrom), charge = 0, multiplicity = 1:

       Center              X                  Y                   Z               Mass
    ------------   -----------------  -----------------  -----------------  -----------------
         O           -1.975437921098     1.664939931087     0.184776071000    15.994914619570
         O            1.651359078902    -1.194521068913    -0.677784929000    15.994914619570
         O           -3.281831921098    -0.045947068913    -0.514974929000    15.994914619570
         N            0.215487078902     0.275792931087     0.294140071000    14.003074004430
         C           -0.953682721098    -0.479025668913    -0.105058529000    12.000000000000
         C           -1.200852921098    -1.688380068913     0.802723071000    12.000000000000
         C            2.594359078902     0.783655931087     0.366930071000    12.000000000000
         C            1.470125878902    -0.128109468913    -0.061642929000    12.000000000000
         C           -2.189025921098     0.368798931087    -0.181960929000    12.000000000000
         C            3.949594078902     0.286511931087    -0.112846929000    12.000000000000
         H           -0.766453921098    -0.864310068913    -1.125711929000     1.007825032230
         H            0.077628078902     1.194436931087     0.696855071000     1.007825032230
         H           -1.367833921098    -1.352275068913     1.829363071000     1.007825032230
         H           -2.075586921098    -2.244782068913     0.459157071000     1.007825032230
         H           -0.323488921098    -2.335337068913     0.774101071000     1.007825032230
         H            2.389984078902     1.793090931087    -0.015575929000     1.007825032230
         H            2.576223078902     0.861443931087     1.461015071000     1.007825032230
         H            4.154963078902    -0.711226068913     0.280701071000     1.007825032230
         H            3.971498078902     0.221887931087    -1.202180929000     1.007825032230
         H            4.742278078902     0.964693931087     0.216231071000     1.007825032230
         H           -2.849065921098     2.102512931087     0.104847071000     1.007825032230

  Basis Set: AUG-CC-PVTZ
    Blend: AUG-CC-PVTZ
  Basis Set: (AUG-CC-PVTZ AUX)
    Blend: AUG-CC-PVTZ-JKFIT
	 Reference Energy          =    -512.8844271005348219 [Eh]
	 Singles Energy            =      -0.0000000000000000 [Eh]
	 Same-Spin Energy          =      -0.5117408344295044 [Eh]
	 Opposite-Spin Energy      =      -1.6156172209561621 [Eh]
	 Correlation Energy        =      -2.1273580553856664 [Eh]
	 Total Energy              =    -515.0117851559205064 [Eh]

	 ================> DF-SCS-MP2 Energies <==================
	-----------------------------------------------------------
	 SCS Same-Spin Scale       =       0.3333333333333333 [-]
	 SCS Opposite-Spin Scale   =       1.2000000000000000 [-]
	 SCS Same-Spin Energy      =      -0.1705802781431681 [Eh]
	 SCS Opposite-Spin Energy  =      -1.9387406651473944 [Eh]
	 SCS Correlation Energy    =      -2.1093209432905624 [Eh]
	 SCS Total Energy          =    -514.9937480438253488 [Eh]
	-----------------------------------------------------------

  Dipole Moment: [D]
     X:    -0.0239      Y:     3.3580      Z:     1.9910     Total:     3.9039

*** Psi4 exiting successfully. Buy a developer a beer!
