                               Psi4 1.3.2 release

  ==> Input File <==

--------------------------------------------------------------------------
#psi4
#
memory 32 gb

molecule  {
0 1
  O       -1.9756670     1.6664010     0.1857370
  O        1.6511300    -1.1930600    -0.6768240
  O       -3.2820610    -0.0444860    -0.5140140
  N        0.2152580     0.2772540     0.2951010
  C       -0.9464590    -0.4858680    -0.1100250
  C       -1.2010820    -1.6869190     0.8036840
  C        2.5941300     0.7851170     0.3678910
  C        1.4478334    -0.1200483    -0.0542355
  C       -2.1892550     0.3702600    -0.1810000
  C        3.9608875     0.3088803    -0.1002678
  H       -0.7666830    -0.8628490    -1.1247510
  H        0.0773990     1.1958980     0.6978160
  H       -1.3680630    -1.3508140     1.8303240
  H       -2.0758160    -2.2433210     0.4601180
  H       -0.3237180    -2.3338760     0.7750620
  H        2.3897550     1.7945520    -0.0146150
  H        2.5759940     0.8629050     1.4619760
  H        4.1547340    -0.7097650     0.2816620
  H        3.9712690     0.2233490    -1.2012200
  H        4.7420490     0.9661550     0.2171920
  H       -2.8492950     2.1039740     0.1058080
units angstrom
no_reorient  #important for SAPT in psi4, default
symmetry c1  #important for SAPT in psi4, default
}

set PROPERTIES_ORIGIN ["COM"]
properties('MP2/aug-cc-pvtz', properties = ['dipole'])
--------------------------------------------------------------------------

    Molecular point group: c1
  Charge       = 0
  Multiplicity = 1
  Basis Set: AUG-CC-PVTZ
    Blend: AUG-CC-PVTZ
  Basis Set: (AUG-CC-PVTZ AUX)
    Blend: AUG-CC-PVTZ-JKFIT

    Orbital Energies [Eh]
    ---------------------

    Doubly Occupied:

       1A    -20.637656     2A    -20.565404     3A    -20.518740
       4A    -15.597667     5A    -11.406574     6A    -11.355874
       7A    -11.298981     8A    -11.247699     9A    -11.228304
      10A    -11.219034    11A     -1.480139    12A     -1.375316
      13A     -1.368453    14A     -1.249604    15A     -1.076847
      16A     -1.037341    17A     -0.930057    18A     -0.886540
      19A     -0.819049    20A     -0.797737    21A     -0.733134
      22A     -0.716125    23A     -0.681990    24A     -0.666768
      25A     -0.639955    26A     -0.633433    27A     -0.612110
      28A     -0.598424    29A     -0.581010    30A     -0.549629
      31A     -0.544563    32A     -0.528185    33A     -0.517926
      34A     -0.515491    35A     -0.496363    36A     -0.483810
      37A     -0.469086    38A     -0.425816    39A     -0.400928

  @DF-RHF Final Energy:  -512.88265779041240

   => Energetics <=

    Nuclear Repulsion Energy =            548.0810379882926782
    One-Electron Energy =               -1788.1438626096082771
    Two-Electron Energy =                 727.1801668309030902
    Total Energy =                       -512.8826577904123951
  Basis Set: (AUG-CC-PVTZ AUX)
    Blend: AUG-CC-PVTZ-RI
    Molecular point group: c1

    Geometry (in Angstrom), charge = 0, multiplicity = 1:

       Center              X                  Y                   Z               Mass
    ------------   -----------------  -----------------  -----------------  -----------------
         O           -1.975182484374     1.663351444042     0.183772116417    15.994914619570
         O            1.651614515626    -1.196109555958    -0.678788883583    15.994914619570
         O           -3.281576484374    -0.047535555958    -0.515978883583    15.994914619570
         N            0.215742515626     0.274204444042     0.293136116417    14.003074004430
         C           -0.945974484374    -0.488917555958    -0.111989883583    12.000000000000
         C           -1.200597484374    -1.689968555958     0.801719116417    12.000000000000
         C            2.594614515626     0.782067444042     0.365926116417    12.000000000000
         C            1.448317915626    -0.123097855958    -0.056200383583    12.000000000000
         C           -2.188770484374     0.367210444042    -0.182964883583    12.000000000000
         C            3.961372015626     0.305830744042    -0.102232683583    12.000000000000
         H           -0.766198484374    -0.865898555958    -1.126715883583     1.007825032230
         H            0.077883515626     1.192848444042     0.695851116417     1.007825032230
         H           -1.367578484374    -1.353863555958     1.828359116417     1.007825032230
         H           -2.075331484374    -2.246370555958     0.458153116417     1.007825032230
         H           -0.323233484374    -2.336925555958     0.773097116417     1.007825032230
         H            2.390239515626     1.791502444042    -0.016579883583     1.007825032230
         H            2.576478515626     0.859855444042     1.460011116417     1.007825032230
         H            4.155218515626    -0.712814555958     0.279697116417     1.007825032230
         H            3.971753515626     0.220299444042    -1.203184883583     1.007825032230
         H            4.742533515626     0.963105444042     0.215227116417     1.007825032230
         H           -2.848810484374     2.100924444042     0.103843116417     1.007825032230

  Basis Set: AUG-CC-PVTZ
    Blend: AUG-CC-PVTZ
  Basis Set: (AUG-CC-PVTZ AUX)
    Blend: AUG-CC-PVTZ-JKFIT
	 Reference Energy          =    -512.8826577904123951 [Eh]
	 Singles Energy            =      -0.0000000000000000 [Eh]
	 Same-Spin Energy          =      -0.5117797277398937 [Eh]
	 Opposite-Spin Energy      =      -1.6157308021333603 [Eh]
	 Correlation Energy        =      -2.1275105298732537 [Eh]
	 Total Energy              =    -515.0101683202856293 [Eh]

	 ================> DF-SCS-MP2 Energies <==================
	-----------------------------------------------------------
	 SCS Same-Spin Scale       =       0.3333333333333333 [-]
	 SCS Opposite-Spin Scale   =       1.2000000000000000 [-]
	 SCS Same-Spin Energy      =      -0.1705932425799646 [Eh]
	 SCS Opposite-Spin Energy  =      -1.9388769625600322 [Eh]
	 SCS Correlation Energy    =      -2.1094702051399965 [Eh]
	 SCS Total Energy          =    -514.9921279955524369 [Eh]
	-----------------------------------------------------------

  Dipole Moment: [D]
     X:    -0.2369      Y:     3.4159      Z:     2.0459     Total:     3.9887

*** Psi4 exiting successfully. Buy a developer a beer!
