                               Psi4 1.3.2 release

  ==> Input File <==

--------------------------------------------------------------------------
#psi4
#
memory 32 gb

molecule  {
0 1
  O       -1.9756670     1.6664010     0.1857370
  O        1.6511300    -1.1930600    -0.6768240
  O       -3.2820610    -0.0444860    -0.5140140
  N        0.2152580     0.2772540     0.2951010
  C       -0.9464590    -0.4858680    -0.1100250
  C       -1.2041979    -1.6702571     0.8243270
  C        2.5941300     0.7851170     0.3678910
  C        1.4652130    -0.1360080    -0.0663740
  C       -2.1892550     0.3702600    -0.1810000
  C        3.9493650     0.2879730    -0.1118860
  H       -0.7643815    -0.8448418    -1.1308524
  H        0.0773990     1.1958980     0.6978160
  H       -1.3680630    -1.3508140     1.8303240
  H       -2.0758160    -2.2433210     0.4601180
  H       -0.3237180    -2.3338760     0.7750620
  H        2.3897550     1.7945520    -0.0146150
  H        2.5759940     0.8629050     1.4619760
  H        4.1547340    -0.7097650     0.2816620
  H        3.9712690     0.2233490    -1.2012200
  H        4.7420490     0.9661550     0.2171920
  H       -2.8492950     2.1039740     0.1058080
units angstrom
no_reorient  #important for SAPT in psi4, default
symmetry c1  #important for SAPT in psi4, default
}

set PROPERTIES_ORIGIN ["COM"]
properties('MP2/aug-cc-pvtz', properties = ['dipole'])
--------------------------------------------------------------------------

    Molecular point group: c1
  Charge       = 0
  Multiplicity = 1
  Basis Set: AUG-CC-PVTZ
    Blend: AUG-CC-PVTZ
  Basis Set: (AUG-CC-PVTZ AUX)
    Blend: AUG-CC-PVTZ-JKFIT

    Orbital Energies [Eh]
    ---------------------

    Doubly Occupied:

       1A    -20.635817     2A    -20.563650     3A    -20.524386
       4A    -15.591892     5A    -11.404394     6A    -11.355951
       7A    -11.296639     8A    -11.247446     9A    -11.227012
      10A    -11.219422    11A     -1.478312    12A     -1.380484
      13A     -1.373408    14A     -1.245346    15A     -1.074853
      16A     -1.035525    17A     -0.927725    18A     -0.885321
      19A     -0.817267    20A     -0.792160    21A     -0.730591
      22A     -0.714426    23A     -0.682778    24A     -0.665490
      25A     -0.641140    26A     -0.633601    27A     -0.610582
      28A     -0.602277    29A     -0.581962    30A     -0.546028
      31A     -0.540937    32A     -0.524434    33A     -0.521432
      34A     -0.519303    35A     -0.496910    36A     -0.488942
      37A     -0.467741    38A     -0.428483    39A     -0.400162

  @DF-RHF Final Energy:  -512.88498529670085

   => Energetics <=

    Nuclear Repulsion Energy =            548.2663994502996729
    One-Electron Energy =               -1788.5543090316739381
    Two-Electron Energy =                 727.4029242846733041
    Total Energy =                       -512.8849852967008474
  Basis Set: (AUG-CC-PVTZ AUX)
    Blend: AUG-CC-PVTZ-RI
    Molecular point group: c1

    Geometry (in Angstrom), charge = 0, multiplicity = 1:

       Center              X                  Y                   Z               Mass
    ------------   -----------------  -----------------  -----------------  -----------------
         O           -1.975425215224     1.664897642935     0.184072056969    15.994914619570
         O            1.651371784776    -1.194563357065    -0.678488943031    15.994914619570
         O           -3.281819215224    -0.045989357065    -0.515678943031    15.994914619570
         N            0.215499784776     0.275750642935     0.293436056969    14.003074004430
         C           -0.946217215224    -0.487371357065    -0.111689943031    12.000000000000
         C           -1.203956115224    -1.671760457065     0.822662056969    12.000000000000
         C            2.594371784776     0.783613642935     0.366226056969    12.000000000000
         C            1.465454784776    -0.137511357065    -0.068038943031    12.000000000000
         C           -2.189013215224     0.368756642935    -0.182664943031    12.000000000000
         C            3.949606784776     0.286469642935    -0.113550943031    12.000000000000
         H           -0.764139715224    -0.846345157065    -1.132517343031     1.007825032230
         H            0.077640784776     1.194394642935     0.696151056969     1.007825032230
         H           -1.367821215224    -1.352317357065     1.828659056969     1.007825032230
         H           -2.075574215224    -2.244824357065     0.458453056969     1.007825032230
         H           -0.323476215224    -2.335379357065     0.773397056969     1.007825032230
         H            2.389996784776     1.793048642935    -0.016279943031     1.007825032230
         H            2.576235784776     0.861401642935     1.460311056969     1.007825032230
         H            4.154975784776    -0.711268357065     0.279997056969     1.007825032230
         H            3.971510784776     0.221845642935    -1.202884943031     1.007825032230
         H            4.742290784776     0.964651642935     0.215527056969     1.007825032230
         H           -2.849053215224     2.102470642935     0.104143056969     1.007825032230

  Basis Set: AUG-CC-PVTZ
    Blend: AUG-CC-PVTZ
  Basis Set: (AUG-CC-PVTZ AUX)
    Blend: AUG-CC-PVTZ-JKFIT
	 Reference Energy          =    -512.8849852967008474 [Eh]
	 Singles Energy            =      -0.0000000000000000 [Eh]
	 Same-Spin Energy          =      -0.5114229566192513 [Eh]
	 Opposite-Spin Energy      =      -1.6150622661007987 [Eh]
	 Correlation Energy        =      -2.1264852227200501 [Eh]
	 Total Energy              =    -515.0114705194208682 [Eh]

	 ================> DF-SCS-MP2 Energies <==================
	-----------------------------------------------------------
	 SCS Same-Spin Scale       =       0.3333333333333333 [-]
	 SCS Opposite-Spin Scale   =       1.2000000000000000 [-]
	 SCS Same-Spin Energy      =      -0.1704743188730838 [Eh]
	 SCS Opposite-Spin Energy  =      -1.9380747193209584 [Eh]
	 SCS Correlation Energy    =      -2.1085490381940422 [Eh]
	 SCS Total Energy          =    -514.9935343348948891 [Eh]
	-----------------------------------------------------------

  Dipole Moment: [D]
     X:    -0.0535      Y:     3.3229      Z:     1.9716     Total:     3.8642

*** Psi4 exiting successfully. Buy a developer a beer!
