                               Psi4 1.3.2 release

  ==> Input File <==

--------------------------------------------------------------------------
#psi4
#
memory 32 gb

molecule  {
0 1
  O       -1.9756670     1.6664010     0.1857370
  O        1.6511300    -1.1930600    -0.6768240
  O       -3.2820610    -0.0444860    -0.5140140
  N        0.2152580     0.2772540     0.2951010
  C       -0.9464590    -0.4858680    -0.1100250
  C       -1.2010820    -1.6869190     0.8036840
  C        2.5941300     0.7851170     0.3678910
  C        1.4422210    -0.0948301    -0.0907044
  C       -2.1892550     0.3702600    -0.1810000
  C        3.9493650     0.2879730    -0.1118860
  H       -0.7666830    -0.8628490    -1.1247510
  H        0.0773990     1.1958980     0.6978160
  H       -1.3680630    -1.3508140     1.8303240
  H       -2.0758160    -2.2433210     0.4601180
  H       -0.3237180    -2.3338760     0.7750620
  H        2.3574373     1.7812867    -0.0304324
  H        2.5759940     0.8629050     1.4619760
  H        4.1547340    -0.7097650     0.2816620
  H        3.9712690     0.2233490    -1.2012200
  H        4.7420490     0.9661550     0.2171920
  H       -2.8492950     2.1039740     0.1058080
units angstrom
no_reorient  #important for SAPT in psi4, default
symmetry c1  #important for SAPT in psi4, default
}

set PROPERTIES_ORIGIN ["COM"]
properties('MP2/aug-cc-pvtz', properties = ['dipole'])
--------------------------------------------------------------------------

    Molecular point group: c1
  Charge       = 0
  Multiplicity = 1
  Basis Set: AUG-CC-PVTZ
    Blend: AUG-CC-PVTZ
  Basis Set: (AUG-CC-PVTZ AUX)
    Blend: AUG-CC-PVTZ-JKFIT

    Orbital Energies [Eh]
    ---------------------

    Doubly Occupied:

       1A    -20.637815     2A    -20.565487     3A    -20.517589
       4A    -15.598261     5A    -11.406574     6A    -11.355007
       7A    -11.299175     8A    -11.248097     9A    -11.228150
      10A    -11.219180    11A     -1.480286    12A     -1.375404
      13A     -1.365892    14A     -1.249515    15A     -1.077302
      16A     -1.037412    17A     -0.929896    18A     -0.886897
      19A     -0.819369    20A     -0.797906    21A     -0.733184
      22A     -0.716264    23A     -0.680846    24A     -0.666292
      25A     -0.641575    26A     -0.632995    27A     -0.611923
      28A     -0.598348    29A     -0.579028    30A     -0.548034
      31A     -0.543999    32A     -0.524999    33A     -0.520031
      34A     -0.515693    35A     -0.498515    36A     -0.484790
      37A     -0.469265    38A     -0.424268    39A     -0.400749

  @DF-RHF Final Energy:  -512.88119963004226

   => Energetics <=

    Nuclear Repulsion Energy =            548.2778914033657429
    One-Electron Energy =               -1788.5461601651591081
    Two-Electron Energy =                 727.3870691317512183
    Total Energy =                       -512.8811996300422607
  Basis Set: (AUG-CC-PVTZ AUX)
    Blend: AUG-CC-PVTZ-RI
    Molecular point group: c1

    Geometry (in Angstrom), charge = 0, multiplicity = 1:

       Center              X                  Y                   Z               Mass
    ------------   -----------------  -----------------  -----------------  -----------------
         O           -1.973540635646     1.663087015359     0.187859594588    15.994914619570
         O            1.653256364354    -1.196373984641    -0.674701405412    15.994914619570
         O           -3.279934635646    -0.047799984641    -0.511891405412    15.994914619570
         N            0.217384364354     0.273940015359     0.297223594588    14.003074004430
         C           -0.944332635646    -0.489181984641    -0.107902405412    12.000000000000
         C           -1.198955635646    -1.690232984641     0.805806594588    12.000000000000
         C            2.596256364354     0.781803015359     0.370013594588    12.000000000000
         C            1.444347364354    -0.098144084641    -0.088581805412    12.000000000000
         C           -2.187128635646     0.366946015359    -0.178877405412    12.000000000000
         C            3.951491364354     0.284659015359    -0.109763405412    12.000000000000
         H           -0.764556635646    -0.866162984641    -1.122628405412     1.007825032230
         H            0.079525364354     1.192584015359     0.699938594588     1.007825032230
         H           -1.365936635646    -1.354127984641     1.832446594588     1.007825032230
         H           -2.073689635646    -2.246634984641     0.462240594588     1.007825032230
         H           -0.321591635646    -2.337189984641     0.777184594588     1.007825032230
         H            2.359563664354     1.777972715359    -0.028309805412     1.007825032230
         H            2.578120364354     0.859591015359     1.464098594588     1.007825032230
         H            4.156860364354    -0.713078984641     0.283784594588     1.007825032230
         H            3.973395364354     0.220035015359    -1.199097405412     1.007825032230
         H            4.744175364354     0.962841015359     0.219314594588     1.007825032230
         H           -2.847168635646     2.100660015359     0.107930594588     1.007825032230

  Basis Set: AUG-CC-PVTZ
    Blend: AUG-CC-PVTZ
  Basis Set: (AUG-CC-PVTZ AUX)
    Blend: AUG-CC-PVTZ-JKFIT
	 Reference Energy          =    -512.8811996300422607 [Eh]
	 Singles Energy            =      -0.0000000000000000 [Eh]
	 Same-Spin Energy          =      -0.5119345695863462 [Eh]
	 Opposite-Spin Energy      =      -1.6160892674222043 [Eh]
	 Correlation Energy        =      -2.1280238370085502 [Eh]
	 Total Energy              =    -515.0092234670507878 [Eh]

	 ================> DF-SCS-MP2 Energies <==================
	-----------------------------------------------------------
	 SCS Same-Spin Scale       =       0.3333333333333333 [-]
	 SCS Opposite-Spin Scale   =       1.2000000000000000 [-]
	 SCS Same-Spin Energy      =      -0.1706448565287821 [Eh]
	 SCS Opposite-Spin Energy  =      -1.9393071209066450 [Eh]
	 SCS Correlation Energy    =      -2.1099519774354270 [Eh]
	 SCS Total Energy          =    -514.9911516074777182 [Eh]
	-----------------------------------------------------------

  Dipole Moment: [D]
     X:    -0.2597      Y:     3.4253      Z:     2.0290     Total:     3.9897

*** Psi4 exiting successfully. Buy a developer a beer!
