                               Psi4 1.3.2 release

  ==> Input File <==

--------------------------------------------------------------------------
#psi4
#
memory 32 gb

molecule  {
0 1
  O       -1.9756670     1.6664010     0.1857370
  O        1.6085960    -1.1999878    -0.6762605
  O       -3.2820610    -0.0444860    -0.5140140
  N        0.1973515     0.2379403     0.2749866
  C       -0.9464590    -0.4858680    -0.1100250
  C       -1.2010820    -1.6869190     0.8036840
  C        2.5941300     0.7851170     0.3678910
  C        1.4652130    -0.1360080    -0.0663740
  C       -2.1892550     0.3702600    -0.1810000
  C        3.9493650     0.2879730    -0.1118860
  H       -0.7666830    -0.8628490    -1.1247510
  H        0.0773990     1.1958980     0.6978160
  H       -1.3680630    -1.3508140     1.8303240
  H       -2.0758160    -2.2433210     0.4601180
  H       -0.3237180    -2.3338760     0.7750620
  H        2.3897550     1.7945520    -0.0146150
  H        2.5759940     0.8629050     1.4619760
  H        4.1547340    -0.7097650     0.2816620
  H        3.9712690     0.2233490    -1.2012200
  H        4.7420490     0.9661550     0.2171920
  H       -2.8492950     2.1039740     0.1058080
units angstrom
no_reorient  #important for SAPT in psi4, default
symmetry c1  #important for SAPT in psi4, default
}

set PROPERTIES_ORIGIN ["COM"]
properties('MP2/aug-cc-pvtz', properties = ['dipole'])
--------------------------------------------------------------------------

    Molecular point group: c1
  Charge       = 0
  Multiplicity = 1
  Basis Set: AUG-CC-PVTZ
    Blend: AUG-CC-PVTZ
  Basis Set: (AUG-CC-PVTZ AUX)
    Blend: AUG-CC-PVTZ-JKFIT

    Orbital Energies [Eh]
    ---------------------

    Doubly Occupied:

       1A    -20.634909     2A    -20.562481     3A    -20.522191
       4A    -15.591497     5A    -11.403533     6A    -11.356014
       7A    -11.291615     8A    -11.252331     9A    -11.223977
      10A    -11.222559    11A     -1.477338    12A     -1.382496
      13A     -1.372299    14A     -1.246091    15A     -1.075988
      16A     -1.035051    17A     -0.927366    18A     -0.888004
      19A     -0.815870    20A     -0.785579    21A     -0.734278
      22A     -0.711825    23A     -0.686316    24A     -0.664220
      25A     -0.642758    26A     -0.632291    27A     -0.609542
      28A     -0.599859    29A     -0.580221    30A     -0.545676
      31A     -0.542864    32A     -0.527434    33A     -0.522061
      34A     -0.519274    35A     -0.498150    36A     -0.487539
      37A     -0.466346    38A     -0.429482    39A     -0.394274

  @DF-RHF Final Energy:  -512.88092534293855

   => Energetics <=

    Nuclear Repulsion Energy =            549.0854390186457294
    One-Electron Energy =               -1790.2095338298738625
    Two-Electron Energy =                 728.2431694682895795
    Total Energy =                       -512.8809253429385535
  Basis Set: (AUG-CC-PVTZ AUX)
    Blend: AUG-CC-PVTZ-RI
    Molecular point group: c1

    Geometry (in Angstrom), charge = 0, multiplicity = 1:

       Center              X                  Y                   Z               Mass
    ------------   -----------------  -----------------  -----------------  -----------------
         O           -1.969249035399     1.670959471893     0.187616575851    15.994914619570
         O            1.615013964601    -1.195429328107    -0.674380924149    15.994914619570
         O           -3.275643035399    -0.039927528107    -0.512134424149    15.994914619570
         N            0.203769464601     0.242498771893     0.276866175851    14.003074004430
         C           -0.940041035399    -0.481309528107    -0.108145424149    12.000000000000
         C           -1.194664035399    -1.682360528107     0.805563575851    12.000000000000
         C            2.600547964601     0.789675471893     0.369770575851    12.000000000000
         C            1.471630964601    -0.131449528107    -0.064494424149    12.000000000000
         C           -2.182837035399     0.374818471893    -0.179120424149    12.000000000000
         C            3.955782964601     0.292531471893    -0.110006424149    12.000000000000
         H           -0.760265035399    -0.858290528107    -1.122871424149     1.007825032230
         H            0.083816964601     1.200456471893     0.699695575851     1.007825032230
         H           -1.361645035399    -1.346255528107     1.832203575851     1.007825032230
         H           -2.069398035399    -2.238762528107     0.461997575851     1.007825032230
         H           -0.317300035399    -2.329317528107     0.776941575851     1.007825032230
         H            2.396172964601     1.799110471893    -0.012735424149     1.007825032230
         H            2.582411964601     0.867463471893     1.463855575851     1.007825032230
         H            4.161151964601    -0.705206528107     0.283541575851     1.007825032230
         H            3.977686964601     0.227907471893    -1.199340424149     1.007825032230
         H            4.748466964601     0.970713471893     0.219071575851     1.007825032230
         H           -2.842877035399     2.108532471893     0.107687575851     1.007825032230

  Basis Set: AUG-CC-PVTZ
    Blend: AUG-CC-PVTZ
  Basis Set: (AUG-CC-PVTZ AUX)
    Blend: AUG-CC-PVTZ-JKFIT
	 Reference Energy          =    -512.8809253429385535 [Eh]
	 Singles Energy            =      -0.0000000000000000 [Eh]
	 Same-Spin Energy          =      -0.5120245176884831 [Eh]
	 Opposite-Spin Energy      =      -1.6157435897263996 [Eh]
	 Correlation Energy        =      -2.1277681074148829 [Eh]
	 Total Energy              =    -515.0086934503534621 [Eh]

	 ================> DF-SCS-MP2 Energies <==================
	-----------------------------------------------------------
	 SCS Same-Spin Scale       =       0.3333333333333333 [-]
	 SCS Opposite-Spin Scale   =       1.2000000000000000 [-]
	 SCS Same-Spin Energy      =      -0.1706748392294944 [Eh]
	 SCS Opposite-Spin Energy  =      -1.9388923076716795 [Eh]
	 SCS Correlation Energy    =      -2.1095671469011741 [Eh]
	 SCS Total Energy          =    -514.9904924898397667 [Eh]
	-----------------------------------------------------------

  Dipole Moment: [D]
     X:     0.1969      Y:     3.4353      Z:     1.9889     Total:     3.9744

*** Psi4 exiting successfully. Buy a developer a beer!
