                               Psi4 1.3.2 release

  ==> Input File <==

--------------------------------------------------------------------------
#psi4
#
memory 32 gb

molecule  {
0 1
  O       -1.9756670     1.6664010     0.1857370
  O        1.6511300    -1.1930600    -0.6768240
  O       -3.2820610    -0.0444860    -0.5140140
  N        0.2152580     0.2772540     0.2951010
  C       -0.9358885    -0.4825196    -0.1025804
  C       -1.2010820    -1.6869190     0.8036840
  C        2.5941300     0.7851170     0.3678910
  C        1.4652130    -0.1360080    -0.0663740
  C       -2.1892550     0.3702600    -0.1810000
  C        3.9493650     0.2879730    -0.1118860
  H       -0.7666830    -0.8628490    -1.1247510
  H        0.0773990     1.1958980     0.6978160
  H       -1.3680630    -1.3508140     1.8303240
  H       -2.0746641    -2.2494831     0.4672969
  H       -0.3237180    -2.3338760     0.7750620
  H        2.3897550     1.7945520    -0.0146150
  H        2.5759940     0.8629050     1.4619760
  H        4.1547340    -0.7097650     0.2816620
  H        3.9712690     0.2233490    -1.2012200
  H        4.7420490     0.9661550     0.2171920
  H       -2.8492950     2.1039740     0.1058080
units angstrom
no_reorient  #important for SAPT in psi4, default
symmetry c1  #important for SAPT in psi4, default
}

set PROPERTIES_ORIGIN ["COM"]
properties('MP2/aug-cc-pvtz', properties = ['dipole'])
--------------------------------------------------------------------------

    Molecular point group: c1
  Charge       = 0
  Multiplicity = 1
  Basis Set: AUG-CC-PVTZ
    Blend: AUG-CC-PVTZ
  Basis Set: (AUG-CC-PVTZ AUX)
    Blend: AUG-CC-PVTZ-JKFIT

    Orbital Energies [Eh]
    ---------------------

    Doubly Occupied:

       1A    -20.635529     2A    -20.563599     3A    -20.525236
       4A    -15.592950     5A    -11.404601     6A    -11.356715
       7A    -11.296435     8A    -11.247950     9A    -11.226369
      10A    -11.219782    11A     -1.477978    12A     -1.381562
      13A     -1.373089    14A     -1.248276    15A     -1.074697
      16A     -1.035154    17A     -0.927400    18A     -0.885671
      19A     -0.816477    20A     -0.793489    21A     -0.731396
      22A     -0.714311    23A     -0.683913    24A     -0.664952
      25A     -0.641544    26A     -0.633492    27A     -0.609304
      28A     -0.603176    29A     -0.582470    30A     -0.545737
      31A     -0.543159    32A     -0.525353    33A     -0.520246
      34A     -0.518940    35A     -0.497608    36A     -0.488006
      37A     -0.466678    38A     -0.429420    39A     -0.400356

  @DF-RHF Final Energy:  -512.88564437841603

   => Energetics <=

    Nuclear Repulsion Energy =            548.2864098623076643
    One-Electron Energy =               -1788.5780654631457764
    Two-Electron Energy =                 727.4060112224220802
    Total Energy =                       -512.8856443784160319
  Basis Set: (AUG-CC-PVTZ AUX)
    Blend: AUG-CC-PVTZ-RI
    Molecular point group: c1

    Geometry (in Angstrom), charge = 0, multiplicity = 1:

       Center              X                  Y                   Z               Mass
    ------------   -----------------  -----------------  -----------------  -----------------
         O           -1.976549319642     1.666166792204     0.185071524055    15.994914619570
         O            1.650247680358    -1.193294207796    -0.677489475945    15.994914619570
         O           -3.282943319642    -0.044720207796    -0.514679475945    15.994914619570
         N            0.214375680358     0.277019792204     0.294435524055    14.003074004430
         C           -0.936770819642    -0.482753807796    -0.103245875945    12.000000000000
         C           -1.201964319642    -1.687153207796     0.803018524055    12.000000000000
         C            2.593247680358     0.784882792204     0.367225524055    12.000000000000
         C            1.464330680358    -0.136242207796    -0.067039475945    12.000000000000
         C           -2.190137319642     0.370025792204    -0.181665475945    12.000000000000
         C            3.948482680358     0.287738792204    -0.112551475945    12.000000000000
         H           -0.767565319642    -0.863083207796    -1.125416475945     1.007825032230
         H            0.076516680358     1.195663792204     0.697150524055     1.007825032230
         H           -1.368945319642    -1.351048207796     1.829658524055     1.007825032230
         H           -2.075546419642    -2.249717307796     0.466631424055     1.007825032230
         H           -0.324600319642    -2.334110207796     0.774396524055     1.007825032230
         H            2.388872680358     1.794317792204    -0.015280475945     1.007825032230
         H            2.575111680358     0.862670792204     1.461310524055     1.007825032230
         H            4.153851680358    -0.709999207796     0.280996524055     1.007825032230
         H            3.970386680358     0.223114792204    -1.201885475945     1.007825032230
         H            4.741166680358     0.965920792204     0.216526524055     1.007825032230
         H           -2.850177319642     2.103739792204     0.105142524055     1.007825032230

  Basis Set: AUG-CC-PVTZ
    Blend: AUG-CC-PVTZ
  Basis Set: (AUG-CC-PVTZ AUX)
    Blend: AUG-CC-PVTZ-JKFIT
	 Reference Energy          =    -512.8856443784160319 [Eh]
	 Singles Energy            =      -0.0000000000000000 [Eh]
	 Same-Spin Energy          =      -0.5114541583360144 [Eh]
	 Opposite-Spin Energy      =      -1.6149985183883364 [Eh]
	 Correlation Energy        =      -2.1264526767243508 [Eh]
	 Total Energy              =    -515.0120970551404298 [Eh]

	 ================> DF-SCS-MP2 Energies <==================
	-----------------------------------------------------------
	 SCS Same-Spin Scale       =       0.3333333333333333 [-]
	 SCS Opposite-Spin Scale   =       1.2000000000000000 [-]
	 SCS Same-Spin Energy      =      -0.1704847194453381 [Eh]
	 SCS Opposite-Spin Energy  =      -1.9379982220660037 [Eh]
	 SCS Correlation Energy    =      -2.1084829415113417 [Eh]
	 SCS Total Energy          =    -514.9941273199274292 [Eh]
	-----------------------------------------------------------

  Dipole Moment: [D]
     X:    -0.0075      Y:     3.3243      Z:     1.9665     Total:     3.8624

*** Psi4 exiting successfully. Buy a developer a beer!
