                               Psi4 1.3.2 release

  ==> Input File <==

--------------------------------------------------------------------------
#psi4
#
memory 32 gb

molecule  {
0 1
  O       -1.9756670     1.6664010     0.1857370
  O        1.6511300    -1.1930600    -0.6768240
  O       -3.2820610    -0.0444860    -0.5140140
  N        0.2152580     0.2772540     0.2951010
  C       -0.8833551    -0.4671585    -0.0643335
  C       -1.2010820    -1.6869190     0.8036840
  C        2.5941300     0.7851170     0.3678910
  C        1.4652130    -0.1360080    -0.0663740
  C       -2.1892550     0.3702600    -0.1810000
  C        3.9493650     0.2879730    -0.1118860
  H       -0.7666830    -0.8628490    -1.1247510
  H        0.0773990     1.1958980     0.6978160
  H       -1.3680630    -1.3508140     1.8303240
  H       -2.0679086    -2.2796418     0.5035645
  H       -0.3237180    -2.3338760     0.7750620
  H        2.3897550     1.7945520    -0.0146150
  H        2.5759940     0.8629050     1.4619760
  H        4.1547340    -0.7097650     0.2816620
  H        3.9712690     0.2233490    -1.2012200
  H        4.7420490     0.9661550     0.2171920
  H       -2.8492950     2.1039740     0.1058080
units angstrom
no_reorient  #important for SAPT in psi4, default
symmetry c1  #important for SAPT in psi4, default
}

set PROPERTIES_ORIGIN ["COM"]
properties('MP2/aug-cc-pvtz', properties = ['dipole'])
--------------------------------------------------------------------------

    Molecular point group: c1
  Charge       = 0
  Multiplicity = 1
  Basis Set: AUG-CC-PVTZ
    Blend: AUG-CC-PVTZ
  Basis Set: (AUG-CC-PVTZ AUX)
    Blend: AUG-CC-PVTZ-JKFIT

    Orbital Energies [Eh]
    ---------------------

    Doubly Occupied:

       1A    -20.633341     2A    -20.562683     3A    -20.528555
       4A    -15.595421     5A    -11.403763     6A    -11.359541
       7A    -11.297287     8A    -11.249879     9A    -11.224027
      10A    -11.221147    11A     -1.475750    12A     -1.386478
      13A     -1.370962    14A     -1.263965    15A     -1.074362
      16A     -1.032201    17A     -0.926684    18A     -0.886294
      19A     -0.816631    20A     -0.799388    21A     -0.734174
      22A     -0.713048    23A     -0.688659    24A     -0.662612
      25A     -0.642824    26A     -0.634224    27A     -0.607966
      28A     -0.602418    29A     -0.590262    30A     -0.546434
      31A     -0.535343    32A     -0.530016    33A     -0.521578
      34A     -0.514982    35A     -0.497926    36A     -0.486890
      37A     -0.459498    38A     -0.432473    39A     -0.399660

  @DF-RHF Final Energy:  -512.87723660291999

   => Energetics <=

    Nuclear Repulsion Energy =            548.7440311214177200
    One-Electron Energy =               -1789.4238445183289059
    Two-Electron Energy =                 727.8025767939911930
    Total Energy =                       -512.8772366029199929
  Basis Set: (AUG-CC-PVTZ AUX)
    Blend: AUG-CC-PVTZ-RI
    Molecular point group: c1

    Geometry (in Angstrom), charge = 0, multiplicity = 1:

       Center              X                  Y                   Z               Mass
    ------------   -----------------  -----------------  -----------------  -----------------
         O           -1.980941627230     1.665105688074     0.181655925396    15.994914619570
         O            1.645855372770    -1.194355311926    -0.680905074604    15.994914619570
         O           -3.287335627230    -0.045781311926    -0.518095074604    15.994914619570
         N            0.209983372770     0.275958688074     0.291019925396    14.003074004430
         C           -0.888629727230    -0.468453811926    -0.068414574604    12.000000000000
         C           -1.206356627230    -1.688214311926     0.799602925396    12.000000000000
         C            2.588855372770     0.783821688074     0.363809925396    12.000000000000
         C            1.459938372770    -0.137303311926    -0.070455074604    12.000000000000
         C           -2.194529627230     0.368964688074    -0.185081074604    12.000000000000
         C            3.944090372770     0.286677688074    -0.115967074604    12.000000000000
         H           -0.771957627230    -0.864144311926    -1.128832074604     1.007825032230
         H            0.072124372770     1.194602688074     0.693734925396     1.007825032230
         H           -1.373337627230    -1.352109311926     1.826242925396     1.007825032230
         H           -2.073183227230    -2.280937111926     0.499483425396     1.007825032230
         H           -0.328992627230    -2.335171311926     0.770980925396     1.007825032230
         H            2.384480372770     1.793256688074    -0.018696074604     1.007825032230
         H            2.570719372770     0.861609688074     1.457894925396     1.007825032230
         H            4.149459372770    -0.711060311926     0.277580925396     1.007825032230
         H            3.965994372770     0.222053688074    -1.205301074604     1.007825032230
         H            4.736774372770     0.964859688074     0.213110925396     1.007825032230
         H           -2.854569627230     2.102678688074     0.101726925396     1.007825032230

  Basis Set: AUG-CC-PVTZ
    Blend: AUG-CC-PVTZ
  Basis Set: (AUG-CC-PVTZ AUX)
    Blend: AUG-CC-PVTZ-JKFIT
	 Reference Energy          =    -512.8772366029199929 [Eh]
	 Singles Energy            =      -0.0000000000000000 [Eh]
	 Same-Spin Energy          =      -0.5121425415298020 [Eh]
	 Opposite-Spin Energy      =      -1.6156530565769747 [Eh]
	 Correlation Energy        =      -2.1277955981067764 [Eh]
	 Total Energy              =    -515.0050322010267791 [Eh]

	 ================> DF-SCS-MP2 Energies <==================
	-----------------------------------------------------------
	 SCS Same-Spin Scale       =       0.3333333333333333 [-]
	 SCS Opposite-Spin Scale   =       1.2000000000000000 [-]
	 SCS Same-Spin Energy      =      -0.1707141805099340 [Eh]
	 SCS Opposite-Spin Energy  =      -1.9387836678923696 [Eh]
	 SCS Correlation Energy    =      -2.1094978484023037 [Eh]
	 SCS Total Energy          =    -514.9867344513222633 [Eh]
	-----------------------------------------------------------

  Dipole Moment: [D]
     X:     0.1781      Y:     3.3715      Z:     1.9989     Total:     3.9235

*** Psi4 exiting successfully. Buy a developer a beer!
