                               Psi4 1.4a3.dev225

  ==> Input File <==

--------------------------------------------------------------------------
#psi4
#
memory 32 gb

molecule  {
0 1
  O        2.1858500    -1.4843500     0.4466430
  O       -1.5901990     1.2021140    -0.7742790
  O        3.2899360     0.0893000    -0.7567370
  N       -0.1552130    -0.3501220     0.0655300
  C        0.9973750     0.5138300    -0.1038320
  C        1.1366130     1.5332170     1.0331740
  C       -2.5208420    -0.9251940    -0.0919400
  C       -1.4008270     0.0814870    -0.2899980
  C        2.2713450    -0.2912280    -0.2118740
  C       -3.8280260    -0.2360070     0.2837800
  H        0.8752740     1.0541530    -1.0466610
  H       -0.0338090    -1.1980725     0.5023284
  H        1.2555520     1.0181310     1.9903510
  H        2.0023980     2.1787030     0.8613650
  H        0.2327940     2.1443920     1.0604580
  H       -2.6404080    -1.4674310    -1.0380590
  H       -2.2372030    -1.6677960     0.6628800
  H       -3.7417830     0.2575120     1.2553170
  H       -4.0728600     0.5241080    -0.4590610
  H       -4.6456460    -0.9595500     0.3374610
  H        3.0673500    -1.9023430     0.3513230
units angstrom
no_reorient  #important for SAPT in psi4, default
symmetry c1  #important for SAPT in psi4, default
}

set PROPERTIES_ORIGIN ["COM"]
properties('MP2/aug-cc-pvtz', properties = ['dipole'])
--------------------------------------------------------------------------

    Molecular point group: c1
  Charge       = 0
  Multiplicity = 1
  Basis Set: AUG-CC-PVTZ
    Blend: AUG-CC-PVTZ
  Basis Set: (AUG-CC-PVTZ AUX)
    Blend: AUG-CC-PVTZ-JKFIT

    Orbital Energies [Eh]
    ---------------------

    Doubly Occupied:

       1A    -20.634376     2A    -20.565199     3A    -20.523096
       4A    -15.591690     5A    -11.404085     6A    -11.357343
       7A    -11.296683     8A    -11.248121     9A    -11.233170
      10A    -11.222676    11A     -1.476486    12A     -1.380384
      13A     -1.372680    14A     -1.251917    15A     -1.076932
      16A     -1.038925    17A     -0.928265    18A     -0.887366
      19A     -0.826770    20A     -0.800612    21A     -0.729334
      22A     -0.715615    23A     -0.680777    24A     -0.660859
      25A     -0.643357    26A     -0.635213    27A     -0.610886
      28A     -0.600926    29A     -0.585286    30A     -0.556666
      31A     -0.551017    32A     -0.528888    33A     -0.524153
      34A     -0.513704    35A     -0.498217    36A     -0.487710
      37A     -0.469475    38A     -0.428209    39A     -0.401486

  @DF-RHF Final Energy:  -512.88599375343006

   => Energetics <=

    Nuclear Repulsion Energy =            548.1913736891846156
    One-Electron Energy =               -1788.2776245354427829
    Two-Electron Energy =                 727.2002570928282239
    Total Energy =                       -512.8859937534300570
  Basis Set: (AUG-CC-PVTZ AUX)
    Blend: AUG-CC-PVTZ-RI
    Molecular point group: c1

    Geometry (in Angstrom), charge = 0, multiplicity = 1:

       Center              X                  Y                   Z               Mass
    ------------   -----------------  -----------------  -----------------  -----------------
         O            2.118107140621    -1.485081661702     0.477540161758    15.994914619570
         O           -1.657941859379     1.201382338298    -0.743381838242    15.994914619570
         O            3.222193140621     0.088568338298    -0.725839838242    15.994914619570
         N           -0.222955859379    -0.350853661702     0.096427161758    14.003074004430
         C            0.929632140621     0.513098338298    -0.072934838242    12.000000000000
         C            1.068870140621     1.532485338298     1.064071161758    12.000000000000
         C           -2.588584859379    -0.925925661702    -0.061042838242    12.000000000000
         C           -1.468569859379     0.080755338298    -0.259100838242    12.000000000000
         C            2.203602140621    -0.291959661702    -0.180976838242    12.000000000000
         C           -3.895768859379    -0.236738661702     0.314677161758    12.000000000000
         H            0.807531140621     1.053421338298    -1.015763838242     1.007825032230
         H           -0.101551859379    -1.198804161702     0.533225561758     1.007825032230
         H            1.187809140621     1.017399338298     2.021248161758     1.007825032230
         H            1.934655140621     2.177971338298     0.892262161758     1.007825032230
         H            0.165051140621     2.143660338298     1.091355161758     1.007825032230
         H           -2.708150859379    -1.468162661702    -1.007161838242     1.007825032230
         H           -2.304945859379    -1.668527661702     0.693777161758     1.007825032230
         H           -3.809525859379     0.256780338298     1.286214161758     1.007825032230
         H           -4.140602859379     0.523376338298    -0.428163838242     1.007825032230
         H           -4.713388859379    -0.960281661702     0.368358161758     1.007825032230
         H            2.999607140621    -1.903074661702     0.382220161758     1.007825032230

  Basis Set: AUG-CC-PVTZ
    Blend: AUG-CC-PVTZ
  Basis Set: (AUG-CC-PVTZ AUX)
    Blend: AUG-CC-PVTZ-JKFIT
	 Reference Energy          =    -512.8859937534300570 [Eh]
	 Singles Energy            =      -0.0000000000000000 [Eh]
	 Same-Spin Energy          =      -0.5107586811372270 [Eh]
	 Opposite-Spin Energy      =      -1.6142324049971533 [Eh]
	 Correlation Energy        =      -2.1249910861343801 [Eh]
	 Total Energy              =    -515.0109848395644576 [Eh]

	 ================> DF-SCS-MP2 Energies <==================
	-----------------------------------------------------------
	 SCS Same-Spin Scale       =       0.3333333333333333 [-]
	 SCS Opposite-Spin Scale   =       1.2000000000000000 [-]
	 SCS Same-Spin Energy      =      -0.1702528937124090 [Eh]
	 SCS Opposite-Spin Energy  =      -1.9370788859965837 [Eh]
	 SCS Correlation Energy    =      -2.1073317797089928 [Eh]
	 SCS Total Energy          =    -514.9933255331390001 [Eh]
	-----------------------------------------------------------

  Dipole Moment: [D]
     X:     0.1094      Y:    -3.2479      Z:     2.2710     Total:     3.9647

*** Psi4 exiting successfully. Buy a developer a beer!
