                               Psi4 1.3.2 release

  ==> Input File <==

--------------------------------------------------------------------------
#psi4
#
memory 32 gb

molecule  {
0 1
  O       -1.9756670     1.6664010     0.1857370
  O        1.6511300    -1.1930600    -0.6768240
  O       -3.2820610    -0.0444860    -0.5140140
  N        0.2152580     0.2772540     0.2951010
  C       -0.9464590    -0.4858680    -0.1100250
  C       -1.2010820    -1.6869190     0.8036840
  C        2.5941300     0.7851170     0.3678910
  C        1.4652130    -0.1360080    -0.0663740
  C       -2.2715155     0.4269270    -0.1856978
  C        3.9493650     0.2879730    -0.1118860
  H       -0.7666830    -0.8628490    -1.1247510
  H        0.0773990     1.1958980     0.6978160
  H       -1.3680630    -1.3508140     1.8303240
  H       -2.0758160    -2.2433210     0.4601180
  H       -0.3237180    -2.3338760     0.7750620
  H        2.3897550     1.7945520    -0.0146150
  H        2.5759940     0.8629050     1.4619760
  H        4.1547340    -0.7097650     0.2816620
  H        3.9712690     0.2233490    -1.2012200
  H        4.7420490     0.9661550     0.2171920
  H       -2.8492950     2.1039740     0.1058080
units angstrom
no_reorient  #important for SAPT in psi4, default
symmetry c1  #important for SAPT in psi4, default
}

set PROPERTIES_ORIGIN ["COM"]
properties('MP2/aug-cc-pvtz', properties = ['dipole'])
--------------------------------------------------------------------------

    Molecular point group: c1
  Charge       = 0
  Multiplicity = 1
  Basis Set: AUG-CC-PVTZ
    Blend: AUG-CC-PVTZ
  Basis Set: (AUG-CC-PVTZ AUX)
    Blend: AUG-CC-PVTZ-JKFIT

    Orbital Energies [Eh]
    ---------------------

    Doubly Occupied:

       1A    -20.645955     2A    -20.569665     3A    -20.520163
       4A    -15.586773     5A    -11.398867     6A    -11.351705
       7A    -11.289298     8A    -11.244701     9A    -11.219815
      10A    -11.217287    11A     -1.505840    12A     -1.412014
      13A     -1.375961    14A     -1.237157    15A     -1.065200
      16A     -1.023875    17A     -0.915950    18A     -0.880431
      19A     -0.814742    20A     -0.791340    21A     -0.735961
      22A     -0.723252    23A     -0.681089    24A     -0.672525
      25A     -0.648106    26A     -0.637457    27A     -0.611315
      28A     -0.599882    29A     -0.576114    30A     -0.545950
      31A     -0.541544    32A     -0.521695    33A     -0.520240
      34A     -0.516993    35A     -0.507603    36A     -0.487459
      37A     -0.454211    38A     -0.423918    39A     -0.393469

  @DF-RHF Final Energy:  -512.87901778424339

   => Energetics <=

    Nuclear Repulsion Energy =            547.8467096942184753
    One-Electron Energy =               -1787.7204067336892876
    Two-Electron Energy =                 726.9946792552273109
    Total Energy =                       -512.8790177842433877
  Basis Set: (AUG-CC-PVTZ AUX)
    Blend: AUG-CC-PVTZ-RI
    Molecular point group: c1

    Geometry (in Angstrom), charge = 0, multiplicity = 1:

       Center              X                  Y                   Z               Mass
    ------------   -----------------  -----------------  -----------------  -----------------
         O           -1.968862665007     1.661713657982     0.186125772147    15.994914619570
         O            1.657934334993    -1.197747342018    -0.676435227853    15.994914619570
         O           -3.275256665007    -0.049173342018    -0.513625227853    15.994914619570
         N            0.222062334993     0.272566657982     0.295489772147    14.003074004430
         C           -0.939654665007    -0.490555342018    -0.109636227853    12.000000000000
         C           -1.194277665007    -1.691606342018     0.804072772147    12.000000000000
         C            2.600934334993     0.780429657982     0.368279772147    12.000000000000
         C            1.472017334993    -0.140695342018    -0.065985227853    12.000000000000
         C           -2.264711165007     0.422239657982    -0.185309027853    12.000000000000
         C            3.956169334993     0.283285657982    -0.111497227853    12.000000000000
         H           -0.759878665007    -0.867536342018    -1.124362227853     1.007825032230
         H            0.084203334993     1.191210657982     0.698204772147     1.007825032230
         H           -1.361258665007    -1.355501342018     1.830712772147     1.007825032230
         H           -2.069011665007    -2.248008342018     0.460506772147     1.007825032230
         H           -0.316913665007    -2.338563342018     0.775450772147     1.007825032230
         H            2.396559334993     1.789864657982    -0.014226227853     1.007825032230
         H            2.582798334993     0.858217657982     1.462364772147     1.007825032230
         H            4.161538334993    -0.714452342018     0.282050772147     1.007825032230
         H            3.978073334993     0.218661657982    -1.200831227853     1.007825032230
         H            4.748853334993     0.961467657982     0.217580772147     1.007825032230
         H           -2.842490665007     2.099286657982     0.106196772147     1.007825032230

  Basis Set: AUG-CC-PVTZ
    Blend: AUG-CC-PVTZ
  Basis Set: (AUG-CC-PVTZ AUX)
    Blend: AUG-CC-PVTZ-JKFIT
	 Reference Energy          =    -512.8790177842433877 [Eh]
	 Singles Energy            =      -0.0000000000000000 [Eh]
	 Same-Spin Energy          =      -0.5101032869241870 [Eh]
	 Opposite-Spin Energy      =      -1.6123348503859105 [Eh]
	 Correlation Energy        =      -2.1224381373100973 [Eh]
	 Total Energy              =    -515.0014559215534291 [Eh]

	 ================> DF-SCS-MP2 Energies <==================
	-----------------------------------------------------------
	 SCS Same-Spin Scale       =       0.3333333333333333 [-]
	 SCS Opposite-Spin Scale   =       1.2000000000000000 [-]
	 SCS Same-Spin Energy      =      -0.1700344289747290 [Eh]
	 SCS Opposite-Spin Energy  =      -1.9348018204630926 [Eh]
	 SCS Correlation Energy    =      -2.1048362494378217 [Eh]
	 SCS Total Energy          =    -514.9838540336811548 [Eh]
	-----------------------------------------------------------

  Dipole Moment: [D]
     X:    -0.5939      Y:     3.6872      Z:     1.9099     Total:     4.1947

*** Psi4 exiting successfully. Buy a developer a beer!
