                               Psi4 1.3.2 release

  ==> Input File <==

--------------------------------------------------------------------------
#psi4
#
memory 32 gb

molecule  {
0 1
  O       -1.9756670     1.6664010     0.1857370
  O        1.6511300    -1.1930600    -0.6768240
  O       -3.2820610    -0.0444860    -0.5140140
  N        0.2152580     0.2772540     0.2951010
  C       -0.9464590    -0.4858680    -0.1100250
  C       -1.2010820    -1.6869190     0.8036840
  C        2.5941300     0.7851170     0.3678910
  C        1.4652130    -0.1360080    -0.0663740
  C       -2.1892550     0.3702600    -0.1810000
  C        3.9493650     0.2879730    -0.1118860
  H       -0.7666830    -0.8628490    -1.1247510
  H        0.0637829     1.2866311     0.7375916
  H       -1.3680630    -1.3508140     1.8303240
  H       -2.0758160    -2.2433210     0.4601180
  H       -0.3237180    -2.3338760     0.7750620
  H        2.3897550     1.7945520    -0.0146150
  H        2.5759940     0.8629050     1.4619760
  H        4.1547340    -0.7097650     0.2816620
  H        3.9712690     0.2233490    -1.2012200
  H        4.7420490     0.9661550     0.2171920
  H       -2.8492950     2.1039740     0.1058080
units angstrom
no_reorient  #important for SAPT in psi4, default
symmetry c1  #important for SAPT in psi4, default
}

set PROPERTIES_ORIGIN ["COM"]
properties('MP2/aug-cc-pvtz', properties = ['dipole'])
--------------------------------------------------------------------------

    Molecular point group: c1
  Charge       = 0
  Multiplicity = 1
  Basis Set: AUG-CC-PVTZ
    Blend: AUG-CC-PVTZ
  Basis Set: (AUG-CC-PVTZ AUX)
    Blend: AUG-CC-PVTZ-JKFIT

    Orbital Energies [Eh]
    ---------------------

    Doubly Occupied:

       1A    -20.636398     2A    -20.563836     3A    -20.523683
       4A    -15.599386     5A    -11.404765     6A    -11.355249
       7A    -11.296268     8A    -11.246755     9A    -11.226540
      10A    -11.218878    11A     -1.478705    12A     -1.379146
      13A     -1.373726    14A     -1.235917    15A     -1.073500
      16A     -1.033235    17A     -0.927122    18A     -0.884170
      19A     -0.812570    20A     -0.779544    21A     -0.728489
      22A     -0.711014    23A     -0.682090    24A     -0.662636
      25A     -0.640559    26A     -0.632286    27A     -0.610616
      28A     -0.598723    29A     -0.577650    30A     -0.546043
      31A     -0.543584    32A     -0.521707    33A     -0.520003
      34A     -0.518593    35A     -0.497179    36A     -0.487811
      37A     -0.467634    38A     -0.427572    39A     -0.398016

  @DF-RHF Final Energy:  -512.87491216852413

   => Energetics <=

    Nuclear Repulsion Energy =            547.6466248759458040
    One-Electron Energy =               -1787.3998771016035789
    Two-Electron Energy =                 726.8783400571337552
    Total Energy =                       -512.8749121685241334
  Basis Set: (AUG-CC-PVTZ AUX)
    Blend: AUG-CC-PVTZ-RI
    Molecular point group: c1

    Geometry (in Angstrom), charge = 0, multiplicity = 1:

       Center              X                  Y                   Z               Mass
    ------------   -----------------  -----------------  -----------------  -----------------
         O           -1.975572372261     1.665770631277     0.185460866538    15.994914619570
         O            1.651224627739    -1.193690368723    -0.677100133462    15.994914619570
         O           -3.281966372261    -0.045116368723    -0.514290133462    15.994914619570
         N            0.215352627739     0.276623631277     0.294824866538    14.003074004430
         C           -0.946364372261    -0.486498368723    -0.110301133462    12.000000000000
         C           -1.200987372261    -1.687549368723     0.803407866538    12.000000000000
         C            2.594224627739     0.784486631277     0.367614866538    12.000000000000
         C            1.465307627739    -0.136638368723    -0.066650133462    12.000000000000
         C           -2.189160372261     0.369629631277    -0.181276133462    12.000000000000
         C            3.949459627739     0.287342631277    -0.112162133462    12.000000000000
         H           -0.766588372261    -0.863479368723    -1.125027133462     1.007825032230
         H            0.063877527739     1.286000731277     0.737315466538     1.007825032230
         H           -1.367968372261    -1.351444368723     1.830047866538     1.007825032230
         H           -2.075721372261    -2.243951368723     0.459841866538     1.007825032230
         H           -0.323623372261    -2.334506368723     0.774785866538     1.007825032230
         H            2.389849627739     1.793921631277    -0.014891133462     1.007825032230
         H            2.576088627739     0.862274631277     1.461699866538     1.007825032230
         H            4.154828627739    -0.710395368723     0.281385866538     1.007825032230
         H            3.971363627739     0.222718631277    -1.201496133462     1.007825032230
         H            4.742143627739     0.965524631277     0.216915866538     1.007825032230
         H           -2.849200372261     2.103343631277     0.105531866538     1.007825032230

  Basis Set: AUG-CC-PVTZ
    Blend: AUG-CC-PVTZ
  Basis Set: (AUG-CC-PVTZ AUX)
    Blend: AUG-CC-PVTZ-JKFIT
	 Reference Energy          =    -512.8749121685241334 [Eh]
	 Singles Energy            =      -0.0000000000000000 [Eh]
	 Same-Spin Energy          =      -0.5123140041735322 [Eh]
	 Opposite-Spin Energy      =      -1.6170370352208803 [Eh]
	 Correlation Energy        =      -2.1293510393944124 [Eh]
	 Total Energy              =    -515.0042632079185978 [Eh]

	 ================> DF-SCS-MP2 Energies <==================
	-----------------------------------------------------------
	 SCS Same-Spin Scale       =       0.3333333333333333 [-]
	 SCS Opposite-Spin Scale   =       1.2000000000000000 [-]
	 SCS Same-Spin Energy      =      -0.1707713347245107 [Eh]
	 SCS Opposite-Spin Energy  =      -1.9404444422650562 [Eh]
	 SCS Correlation Energy    =      -2.1112157769895670 [Eh]
	 SCS Total Energy          =    -514.9861279455136582 [Eh]
	-----------------------------------------------------------

  Dipole Moment: [D]
     X:    -0.1067      Y:     3.4041      Z:     1.9965     Total:     3.9479

*** Psi4 exiting successfully. Buy a developer a beer!
