                               Psi4 1.3.2 release

  ==> Input File <==

--------------------------------------------------------------------------
#psi4
#
memory 32 gb

molecule  {
0 1
  O       -1.9756670     1.6664010     0.1857370
  O        1.6511300    -1.1930600    -0.6768240
  O       -3.2820610    -0.0444860    -0.5140140
  N        0.2152580     0.2772540     0.2951010
  C       -0.9612755    -0.4692038    -0.0981398
  C       -1.2010820    -1.6869190     0.8036840
  C        2.5941300     0.7851170     0.3678910
  C        1.4744850    -0.1172581    -0.0549629
  C       -2.1892550     0.3702600    -0.1810000
  C        3.9493650     0.2879730    -0.1118860
  H       -0.7666830    -0.8628490    -1.1247510
  H        0.0773990     1.1958980     0.6978160
  H       -1.3680630    -1.3508140     1.8303240
  H       -2.0758160    -2.2433210     0.4601180
  H       -0.3237180    -2.3338760     0.7750620
  H        2.3897550     1.7945520    -0.0146150
  H        2.5759940     0.8629050     1.4619760
  H        4.1547340    -0.7097650     0.2816620
  H        3.9712690     0.2233490    -1.2012200
  H        4.7420490     0.9661550     0.2171920
  H       -2.8492950     2.1039740     0.1058080
units angstrom
no_reorient  #important for SAPT in psi4, default
symmetry c1  #important for SAPT in psi4, default
}

set PROPERTIES_ORIGIN ["COM"]
properties('MP2/aug-cc-pvtz', properties = ['dipole'])
--------------------------------------------------------------------------

    Molecular point group: c1
  Charge       = 0
  Multiplicity = 1
  Basis Set: AUG-CC-PVTZ
    Blend: AUG-CC-PVTZ
  Basis Set: (AUG-CC-PVTZ AUX)
    Blend: AUG-CC-PVTZ-JKFIT

    Orbital Energies [Eh]
    ---------------------

    Doubly Occupied:

       1A    -20.636051     2A    -20.564039     3A    -20.521817
       4A    -15.594090     5A    -11.405062     6A    -11.358134
       7A    -11.297145     8A    -11.248994     9A    -11.227443
      10A    -11.220688    11A     -1.479236    12A     -1.374229
      13A     -1.368908    14A     -1.243191    15A     -1.078949
      16A     -1.038290    17A     -0.930435    18A     -0.890412
      19A     -0.814681    20A     -0.792098    21A     -0.733241
      22A     -0.714791    23A     -0.683350    24A     -0.666180
      25A     -0.642964    26A     -0.630978    27A     -0.611069
      28A     -0.598515    29A     -0.577611    30A     -0.547528
      31A     -0.544038    32A     -0.525319    33A     -0.519363
      34A     -0.518016    35A     -0.498039    36A     -0.483983
      37A     -0.469379    38A     -0.429686    39A     -0.397990

  @DF-RHF Final Energy:  -512.88206241872638

   => Energetics <=

    Nuclear Repulsion Energy =            548.1672024785960957
    One-Electron Energy =               -1788.3466678042962030
    Two-Electron Energy =                 727.2974029069738435
    Total Energy =                       -512.8820624187263775
  Basis Set: (AUG-CC-PVTZ AUX)
    Blend: AUG-CC-PVTZ-RI
    Molecular point group: c1

    Geometry (in Angstrom), charge = 0, multiplicity = 1:

       Center              X                  Y                   Z               Mass
    ------------   -----------------  -----------------  -----------------  -----------------
         O           -1.975208341542     1.663471622798     0.183810199079    15.994914619570
         O            1.651588658458    -1.195989377202    -0.678750800921    15.994914619570
         O           -3.281602341542    -0.047415377202    -0.515940800921    15.994914619570
         N            0.215716658458     0.274324622798     0.293174199079    14.003074004430
         C           -0.960816841542    -0.472133177202    -0.100066600921    12.000000000000
         C           -1.200623341542    -1.689848377202     0.801757199079    12.000000000000
         C            2.594588658458     0.782187622798     0.365964199079    12.000000000000
         C            1.474943658458    -0.120187477202    -0.056889700921    12.000000000000
         C           -2.188796341542     0.367330622798    -0.182926800921    12.000000000000
         C            3.949823658458     0.285043622798    -0.113812800921    12.000000000000
         H           -0.766224341542    -0.865778377202    -1.126677800921     1.007825032230
         H            0.077857658458     1.192968622798     0.695889199079     1.007825032230
         H           -1.367604341542    -1.353743377202     1.828397199079     1.007825032230
         H           -2.075357341542    -2.246250377202     0.458191199079     1.007825032230
         H           -0.323259341542    -2.336805377202     0.773135199079     1.007825032230
         H            2.390213658458     1.791622622798    -0.016541800921     1.007825032230
         H            2.576452658458     0.859975622798     1.460049199079     1.007825032230
         H            4.155192658458    -0.712694377202     0.279735199079     1.007825032230
         H            3.971727658458     0.220419622798    -1.203146800921     1.007825032230
         H            4.742507658458     0.963225622798     0.215265199079     1.007825032230
         H           -2.848836341542     2.101044622798     0.103881199079     1.007825032230

  Basis Set: AUG-CC-PVTZ
    Blend: AUG-CC-PVTZ
  Basis Set: (AUG-CC-PVTZ AUX)
    Blend: AUG-CC-PVTZ-JKFIT
	 Reference Energy          =    -512.8820624187263775 [Eh]
	 Singles Energy            =      -0.0000000000000000 [Eh]
	 Same-Spin Energy          =      -0.5121375225759772 [Eh]
	 Opposite-Spin Energy      =      -1.6163210720138896 [Eh]
	 Correlation Energy        =      -2.1284585945898669 [Eh]
	 Total Energy              =    -515.0105210133162927 [Eh]

	 ================> DF-SCS-MP2 Energies <==================
	-----------------------------------------------------------
	 SCS Same-Spin Scale       =       0.3333333333333333 [-]
	 SCS Opposite-Spin Scale   =       1.2000000000000000 [-]
	 SCS Same-Spin Energy      =      -0.1707125075253257 [Eh]
	 SCS Opposite-Spin Energy  =      -1.9395852864166674 [Eh]
	 SCS Correlation Energy    =      -2.1102977939419931 [Eh]
	 SCS Total Energy          =    -514.9923602126683591 [Eh]
	-----------------------------------------------------------

  Dipole Moment: [D]
     X:    -0.0032      Y:     3.3993      Z:     2.0209     Total:     3.9546

*** Psi4 exiting successfully. Buy a developer a beer!
