                               Psi4 1.3.2 release

  ==> Input File <==

--------------------------------------------------------------------------
#psi4
#
memory 32 gb

molecule  {
0 1
  O       -1.9756670     1.6664010     0.1857370
  O        1.6511300    -1.1930600    -0.6768240
  O       -3.2820610    -0.0444860    -0.5140140
  N        0.2152580     0.2772540     0.2951010
  C       -0.9464590    -0.4858680    -0.1100250
  C       -1.2010820    -1.6869190     0.8036840
  C        2.5941300     0.7851170     0.3678910
  C        1.4652130    -0.1360080    -0.0663740
  C       -2.1910314     0.3651360    -0.2068045
  C        3.9493650     0.2879730    -0.1118860
  H       -0.7822142    -0.8534300    -1.1308211
  H        0.0773990     1.1958980     0.6978160
  H       -1.3680630    -1.3508140     1.8303240
  H       -2.0758160    -2.2433210     0.4601180
  H       -0.3237180    -2.3338760     0.7750620
  H        2.3897550     1.7945520    -0.0146150
  H        2.5759940     0.8629050     1.4619760
  H        4.1547340    -0.7097650     0.2816620
  H        3.9712690     0.2233490    -1.2012200
  H        4.7420490     0.9661550     0.2171920
  H       -2.8492950     2.1039740     0.1058080
units angstrom
no_reorient  #important for SAPT in psi4, default
symmetry c1  #important for SAPT in psi4, default
}

set PROPERTIES_ORIGIN ["COM"]
properties('MP2/aug-cc-pvtz', properties = ['dipole'])
--------------------------------------------------------------------------

    Molecular point group: c1
  Charge       = 0
  Multiplicity = 1
  Basis Set: AUG-CC-PVTZ
    Blend: AUG-CC-PVTZ
  Basis Set: (AUG-CC-PVTZ AUX)
    Blend: AUG-CC-PVTZ-JKFIT

    Orbital Energies [Eh]
    ---------------------

    Doubly Occupied:

       1A    -20.632209     2A    -20.566103     3A    -20.524346
       4A    -15.592404     5A    -11.404024     6A    -11.356008
       7A    -11.296595     8A    -11.247434     9A    -11.227398
      10A    -11.219403    11A     -1.475955    12A     -1.380614
      13A     -1.376724    14A     -1.244983    15A     -1.074846
      16A     -1.035713    17A     -0.927305    18A     -0.884965
      19A     -0.814024    20A     -0.791473    21A     -0.730386
      22A     -0.713924    23A     -0.682775    24A     -0.664725
      25A     -0.640874    26A     -0.633448    27A     -0.610551
      28A     -0.602221    29A     -0.580708    30A     -0.546997
      31A     -0.544514    32A     -0.524089    33A     -0.520912
      34A     -0.519161    35A     -0.499434    36A     -0.489283
      37A     -0.467533    38A     -0.428687    39A     -0.400673

  @DF-RHF Final Energy:  -512.88590839836070

   => Energetics <=

    Nuclear Repulsion Energy =            548.1348972667451562
    One-Electron Energy =               -1788.2947715164416422
    Two-Electron Energy =                 727.2739658513357881
    Total Energy =                       -512.8859083983606979
  Basis Set: (AUG-CC-PVTZ AUX)
    Blend: AUG-CC-PVTZ-RI
    Molecular point group: c1

    Geometry (in Angstrom), charge = 0, multiplicity = 1:

       Center              X                  Y                   Z               Mass
    ------------   -----------------  -----------------  -----------------  -----------------
         O           -1.975412130571     1.666759357658     0.187913812662    15.994914619570
         O            1.651384869429    -1.192701642342    -0.674647187338    15.994914619570
         O           -3.281806130571    -0.044127642342    -0.511837187338    15.994914619570
         N            0.215512869429     0.277612357658     0.297277812662    14.003074004430
         C           -0.946204130571    -0.485509642342    -0.107848187338    12.000000000000
         C           -1.200827130571    -1.686560642342     0.805860812662    12.000000000000
         C            2.594384869429     0.785475357658     0.370067812662    12.000000000000
         C            1.465467869429    -0.135649642342    -0.064197187338    12.000000000000
         C           -2.190776530571     0.365494357658    -0.204627687338    12.000000000000
         C            3.949619869429     0.288331357658    -0.109709187338    12.000000000000
         H           -0.781959330571    -0.853071642342    -1.128644287338     1.007825032230
         H            0.077653869429     1.196256357658     0.699992812662     1.007825032230
         H           -1.367808130571    -1.350455642342     1.832500812662     1.007825032230
         H           -2.075561130571    -2.242962642342     0.462294812662     1.007825032230
         H           -0.323463130571    -2.333517642342     0.777238812662     1.007825032230
         H            2.390009869429     1.794910357658    -0.012438187338     1.007825032230
         H            2.576248869429     0.863263357658     1.464152812662     1.007825032230
         H            4.154988869429    -0.709406642342     0.283838812662     1.007825032230
         H            3.971523869429     0.223707357658    -1.199043187338     1.007825032230
         H            4.742303869429     0.966513357658     0.219368812662     1.007825032230
         H           -2.849040130571     2.104332357658     0.107984812662     1.007825032230

  Basis Set: AUG-CC-PVTZ
    Blend: AUG-CC-PVTZ
  Basis Set: (AUG-CC-PVTZ AUX)
    Blend: AUG-CC-PVTZ-JKFIT
	 Reference Energy          =    -512.8859083983606979 [Eh]
	 Singles Energy            =      -0.0000000000000000 [Eh]
	 Same-Spin Energy          =      -0.5112448775255376 [Eh]
	 Opposite-Spin Energy      =      -1.6147967819574425 [Eh]
	 Correlation Energy        =      -2.1260416594829801 [Eh]
	 Total Energy              =    -515.0119500578437055 [Eh]

	 ================> DF-SCS-MP2 Energies <==================
	-----------------------------------------------------------
	 SCS Same-Spin Scale       =       0.3333333333333333 [-]
	 SCS Opposite-Spin Scale   =       1.2000000000000000 [-]
	 SCS Same-Spin Energy      =      -0.1704149591751792 [Eh]
	 SCS Opposite-Spin Energy  =      -1.9377561383489308 [Eh]
	 SCS Correlation Energy    =      -2.1081710975241101 [Eh]
	 SCS Total Energy          =    -514.9940794958847619 [Eh]
	-----------------------------------------------------------

  Dipole Moment: [D]
     X:    -0.0873      Y:     3.2322      Z:     1.9066     Total:     3.7537

*** Psi4 exiting successfully. Buy a developer a beer!
