                               Psi4 1.3.2 release

  ==> Input File <==

--------------------------------------------------------------------------
#psi4
#
memory 32 gb

molecule  {
0 1
  O       -1.9756670     1.6664010     0.1857370
  O        1.6511300    -1.1930600    -0.6768240
  O       -3.2820610    -0.0444860    -0.5140140
  N        0.2563298     0.2137685     0.2898206
  C       -0.9464590    -0.4858680    -0.1100250
  C       -1.2010820    -1.6869190     0.8036840
  C        2.5941300     0.7851170     0.3678910
  C        1.4652130    -0.1360080    -0.0663740
  C       -2.2297061     0.3060396    -0.2032648
  C        3.9493650     0.2879730    -0.1118860
  H       -0.7666830    -0.8628490    -1.1247510
  H        0.0773990     1.1958980     0.6978160
  H       -1.3680630    -1.3508140     1.8303240
  H       -2.0758160    -2.2433210     0.4601180
  H       -0.3237180    -2.3338760     0.7750620
  H        2.3897550     1.7945520    -0.0146150
  H        2.5759940     0.8629050     1.4619760
  H        4.1547340    -0.7097650     0.2816620
  H        3.9712690     0.2233490    -1.2012200
  H        4.7420490     0.9661550     0.2171920
  H       -2.8492950     2.1039740     0.1058080
units angstrom
no_reorient  #important for SAPT in psi4, default
symmetry c1  #important for SAPT in psi4, default
}

set PROPERTIES_ORIGIN ["COM"]
properties('MP2/aug-cc-pvtz', properties = ['dipole'])
--------------------------------------------------------------------------

    Molecular point group: c1
  Charge       = 0
  Multiplicity = 1
  Basis Set: AUG-CC-PVTZ
    Blend: AUG-CC-PVTZ
  Basis Set: (AUG-CC-PVTZ AUX)
    Blend: AUG-CC-PVTZ-JKFIT

    Orbital Energies [Eh]
    ---------------------

    Doubly Occupied:

       1A    -20.616601     2A    -20.582382     3A    -20.511874
       4A    -15.598658     5A    -11.405613     6A    -11.345870
       7A    -11.299727     8A    -11.245362     9A    -11.229239
      10A    -11.217297    11A     -1.489443    12A     -1.383967
      13A     -1.378450    14A     -1.246518    15A     -1.079040
      16A     -1.038251    17A     -0.924511    18A     -0.882909
      19A     -0.801302    20A     -0.792061    21A     -0.732024
      22A     -0.716429    23A     -0.681815    24A     -0.667687
      25A     -0.642194    26A     -0.638954    27A     -0.615148
      28A     -0.597925    29A     -0.575962    30A     -0.548672
      31A     -0.547526    32A     -0.523061    33A     -0.520146
      34A     -0.515527    35A     -0.510216    36A     -0.489753
      37A     -0.470033    38A     -0.423710    39A     -0.399055

  @DF-RHF Final Energy:  -512.87119496648586

   => Energetics <=

    Nuclear Repulsion Energy =            548.8641389942663409
    One-Electron Energy =               -1789.7008389094301037
    Two-Electron Energy =                 727.9655049486779035
    Total Energy =                       -512.8711949664858594
  Basis Set: (AUG-CC-PVTZ AUX)
    Blend: AUG-CC-PVTZ-RI
    Molecular point group: c1

    Geometry (in Angstrom), charge = 0, multiplicity = 1:

       Center              X                  Y                   Z               Mass
    ------------   -----------------  -----------------  -----------------  -----------------
         O           -1.976285394425     1.677840894267     0.188088536264    15.994914619570
         O            1.650511605575    -1.181620105733    -0.674472463736    15.994914619570
         O           -3.282679394425    -0.033046105733    -0.511662463736    15.994914619570
         N            0.255711405575     0.225208394267     0.292172136264    14.003074004430
         C           -0.947077394425    -0.474428105733    -0.107673463736    12.000000000000
         C           -1.201700394425    -1.675479105733     0.806035536264    12.000000000000
         C            2.593511605575     0.796556894267     0.370242536264    12.000000000000
         C            1.464594605575    -0.124568105733    -0.064022463736    12.000000000000
         C           -2.230324494425     0.317479494267    -0.200913263736    12.000000000000
         C            3.948746605575     0.299412894267    -0.109534463736    12.000000000000
         H           -0.767301394425    -0.851409105733    -1.122399463736     1.007825032230
         H            0.076780605575     1.207337894267     0.700167536264     1.007825032230
         H           -1.368681394425    -1.339374105733     1.832675536264     1.007825032230
         H           -2.076434394425    -2.231881105733     0.462469536264     1.007825032230
         H           -0.324336394425    -2.322436105733     0.777413536264     1.007825032230
         H            2.389136605575     1.805991894267    -0.012263463736     1.007825032230
         H            2.575375605575     0.874344894267     1.464327536264     1.007825032230
         H            4.154115605575    -0.698325105733     0.284013536264     1.007825032230
         H            3.970650605575     0.234788894267    -1.198868463736     1.007825032230
         H            4.741430605575     0.977594894267     0.219543536264     1.007825032230
         H           -2.849913394425     2.115413894267     0.108159536264     1.007825032230

  Basis Set: AUG-CC-PVTZ
    Blend: AUG-CC-PVTZ
  Basis Set: (AUG-CC-PVTZ AUX)
    Blend: AUG-CC-PVTZ-JKFIT
	 Reference Energy          =    -512.8711949664858594 [Eh]
	 Singles Energy            =      -0.0000000000000000 [Eh]
	 Same-Spin Energy          =      -0.5111761005331016 [Eh]
	 Opposite-Spin Energy      =      -1.6145870091931047 [Eh]
	 Correlation Energy        =      -2.1257631097262064 [Eh]
	 Total Energy              =    -514.9969580762120813 [Eh]

	 ================> DF-SCS-MP2 Energies <==================
	-----------------------------------------------------------
	 SCS Same-Spin Scale       =       0.3333333333333333 [-]
	 SCS Opposite-Spin Scale   =       1.2000000000000000 [-]
	 SCS Same-Spin Energy      =      -0.1703920335110339 [Eh]
	 SCS Opposite-Spin Energy  =      -1.9375044110317257 [Eh]
	 SCS Correlation Energy    =      -2.1078964445427597 [Eh]
	 SCS Total Energy          =    -514.9790914110286622 [Eh]
	-----------------------------------------------------------

  Dipole Moment: [D]
     X:    -0.6539      Y:     2.9378      Z:     1.8336     Total:     3.5242

*** Psi4 exiting successfully. Buy a developer a beer!
