                               Psi4 1.4a3.dev225

  ==> Input File <==

--------------------------------------------------------------------------
#psi4
#
memory 32 gb

molecule  {
0 1
  O        2.1858500    -1.4843500     0.4466430
  O       -1.5901990     1.2021140    -0.7742790
  O        3.2899360     0.0893000    -0.7567370
  N       -0.1552130    -0.3501220     0.0655300
  C        0.9973750     0.5138300    -0.1038320
  C        1.1366130     1.5332170     1.0331740
  C       -2.5208420    -0.9251940    -0.0919400
  C       -1.4190728     0.0878092    -0.2952058
  C        2.2713450    -0.2912280    -0.2118740
  C       -3.8280260    -0.2360070     0.2837800
  H        0.8752740     1.0541530    -1.0466610
  H       -0.0274960    -1.2421660     0.5250420
  H        1.2555520     1.0181310     1.9903510
  H        2.0023980     2.1787030     0.8613650
  H        0.2327940     2.1443920     1.0604580
  H       -2.6404080    -1.4674310    -1.0380590
  H       -2.2372030    -1.6677960     0.6628800
  H       -3.7417830     0.2575120     1.2553170
  H       -4.0728600     0.5241080    -0.4590610
  H       -4.6456460    -0.9595500     0.3374610
  H        3.0673500    -1.9023430     0.3513230
units angstrom
no_reorient  #important for SAPT in psi4, default
symmetry c1  #important for SAPT in psi4, default
}

set PROPERTIES_ORIGIN ["COM"]
properties('MP2/aug-cc-pvtz', properties = ['dipole'])
--------------------------------------------------------------------------

    Molecular point group: c1
  Charge       = 0
  Multiplicity = 1
  Basis Set: AUG-CC-PVTZ
    Blend: AUG-CC-PVTZ
  Basis Set: (AUG-CC-PVTZ AUX)
    Blend: AUG-CC-PVTZ-JKFIT

    Orbital Energies [Eh]
    ---------------------

    Doubly Occupied:

       1A    -20.633214     2A    -20.563963     3A    -20.526393
       4A    -15.592183     5A    -11.402713     6A    -11.358116
       7A    -11.294776     8A    -11.248234     9A    -11.231732
      10A    -11.223409    11A     -1.475253    12A     -1.386126
      13A     -1.371533    14A     -1.240937    15A     -1.076203
      16A     -1.036610    17A     -0.926305    18A     -0.887596
      19A     -0.820298    20A     -0.790030    21A     -0.726120
      22A     -0.713321    23A     -0.681970    24A     -0.659199
      25A     -0.643517    26A     -0.634341    27A     -0.610626
      28A     -0.601016    29A     -0.583125    30A     -0.556689
      31A     -0.549832    32A     -0.527501    33A     -0.525807
      34A     -0.514215    35A     -0.497874    36A     -0.488252
      37A     -0.468696    38A     -0.430052    39A     -0.398789

  @DF-RHF Final Energy:  -512.88622100123803

   => Energetics <=

    Nuclear Repulsion Energy =            547.7791613692388637
    One-Electron Energy =               -1787.5376297041079852
    Two-Electron Energy =                 726.8722473336310941
    Total Energy =                       -512.8862210012380274
  Basis Set: (AUG-CC-PVTZ AUX)
    Blend: AUG-CC-PVTZ-RI
    Molecular point group: c1

    Geometry (in Angstrom), charge = 0, multiplicity = 1:

       Center              X                  Y                   Z               Mass
    ------------   -----------------  -----------------  -----------------  -----------------
         O            2.119572512480    -1.485298295214     0.477813141717    15.994914619570
         O           -1.656476487520     1.201165704786    -0.743108858283    15.994914619570
         O            3.223658512480     0.088351704786    -0.725566858283    15.994914619570
         N           -0.221490487520    -0.351070295214     0.096700141717    14.003074004430
         C            0.931097512480     0.512881704786    -0.072661858283    12.000000000000
         C            1.070335512480     1.532268704786     1.064344141717    12.000000000000
         C           -2.587119487520    -0.926142295214    -0.060769858283    12.000000000000
         C           -1.485350287520     0.086860904786    -0.264035658283    12.000000000000
         C            2.205067512480    -0.292176295214    -0.180703858283    12.000000000000
         C           -3.894303487520    -0.236955295214     0.314950141717    12.000000000000
         H            0.808996512480     1.053204704786    -1.015490858283     1.007825032230
         H           -0.093773487520    -1.243114295214     0.556212141717     1.007825032230
         H            1.189274512480     1.017182704786     2.021521141717     1.007825032230
         H            1.936120512480     2.177754704786     0.892535141717     1.007825032230
         H            0.166516512480     2.143443704786     1.091628141717     1.007825032230
         H           -2.706685487520    -1.468379295214    -1.006888858283     1.007825032230
         H           -2.303480487520    -1.668744295214     0.694050141717     1.007825032230
         H           -3.808060487520     0.256563704786     1.286487141717     1.007825032230
         H           -4.139137487520     0.523159704786    -0.427890858283     1.007825032230
         H           -4.711923487520    -0.960498295214     0.368631141717     1.007825032230
         H            3.001072512480    -1.903291295214     0.382493141717     1.007825032230

  Basis Set: AUG-CC-PVTZ
    Blend: AUG-CC-PVTZ
  Basis Set: (AUG-CC-PVTZ AUX)
    Blend: AUG-CC-PVTZ-JKFIT
	 Reference Energy          =    -512.8862210012380274 [Eh]
	 Singles Energy            =      -0.0000000000000000 [Eh]
	 Same-Spin Energy          =      -0.5111009313424171 [Eh]
	 Opposite-Spin Energy      =      -1.6149457464184036 [Eh]
	 Correlation Energy        =      -2.1260466777608205 [Eh]
	 Total Energy              =    -515.0122676789987963 [Eh]

	 ================> DF-SCS-MP2 Energies <==================
	-----------------------------------------------------------
	 SCS Same-Spin Scale       =       0.3333333333333333 [-]
	 SCS Opposite-Spin Scale   =       1.2000000000000000 [-]
	 SCS Same-Spin Energy      =      -0.1703669771141390 [Eh]
	 SCS Opposite-Spin Energy  =      -1.9379348957020843 [Eh]
	 SCS Correlation Energy    =      -2.1083018728162233 [Eh]
	 SCS Total Energy          =    -514.9945228740542689 [Eh]
	-----------------------------------------------------------

  Dipole Moment: [D]
     X:    -0.0387      Y:    -3.2438      Z:     2.2412     Total:     3.9429

*** Psi4 exiting successfully. Buy a developer a beer!
