                               Psi4 1.3.2 release

  ==> Input File <==

--------------------------------------------------------------------------
#psi4
#
memory 32 gb

molecule  {
0 1
  O       -1.9756670     1.6664010     0.1857370
  O        1.6511300    -1.1930600    -0.6768240
  O       -3.2820610    -0.0444860    -0.5140140
  N        0.2152580     0.2772540     0.2951010
  C       -0.9464590    -0.4858680    -0.1100250
  C       -1.1761316    -1.6953301     0.7991902
  C        2.5941300     0.7851170     0.3678910
  C        1.4652130    -0.1360080    -0.0663740
  C       -2.1766733     0.3867701    -0.1972604
  C        3.9493650     0.2879730    -0.1118860
  H       -0.7666830    -0.8628490    -1.1247510
  H        0.0773990     1.1958980     0.6978160
  H       -1.3680630    -1.3508140     1.8303240
  H       -2.0758160    -2.2433210     0.4601180
  H       -0.3237180    -2.3338760     0.7750620
  H        2.3897550     1.7945520    -0.0146150
  H        2.5759940     0.8629050     1.4619760
  H        4.1547340    -0.7097650     0.2816620
  H        3.9712690     0.2233490    -1.2012200
  H        4.7420490     0.9661550     0.2171920
  H       -2.8492950     2.1039740     0.1058080
units angstrom
no_reorient  #important for SAPT in psi4, default
symmetry c1  #important for SAPT in psi4, default
}

set PROPERTIES_ORIGIN ["COM"]
properties('MP2/aug-cc-pvtz', properties = ['dipole'])
--------------------------------------------------------------------------

    Molecular point group: c1
  Charge       = 0
  Multiplicity = 1
  Basis Set: AUG-CC-PVTZ
    Blend: AUG-CC-PVTZ
  Basis Set: (AUG-CC-PVTZ AUX)
    Blend: AUG-CC-PVTZ-JKFIT

    Orbital Energies [Eh]
    ---------------------

    Doubly Occupied:

       1A    -20.640222     2A    -20.561400     3A    -20.524678
       4A    -15.592104     5A    -11.406207     6A    -11.356113
       7A    -11.296421     8A    -11.247637     9A    -11.227097
      10A    -11.219588    11A     -1.482228    12A     -1.380715
      13A     -1.368143    14A     -1.245666    15A     -1.074624
      16A     -1.034997    17A     -0.930101    18A     -0.886147
      19A     -0.819436    20A     -0.793291    21A     -0.731315
      22A     -0.715415    23A     -0.683165    24A     -0.666316
      25A     -0.641715    26A     -0.632893    27A     -0.609473
      28A     -0.602068    29A     -0.580173    30A     -0.551874
      31A     -0.541367    32A     -0.522362    33A     -0.520133
      34A     -0.518856    35A     -0.496006    36A     -0.485964
      37A     -0.466926    38A     -0.428840    39A     -0.400227

  @DF-RHF Final Energy:  -512.88384223921059

   => Energetics <=

    Nuclear Repulsion Energy =            548.2207306529586504
    One-Electron Energy =               -1788.4453426800173474
    Two-Electron Energy =                 727.3407697878482168
    Total Energy =                       -512.8838422392105940
  Basis Set: (AUG-CC-PVTZ AUX)
    Blend: AUG-CC-PVTZ-RI
    Molecular point group: c1

    Geometry (in Angstrom), charge = 0, multiplicity = 1:

       Center              X                  Y                   Z               Mass
    ------------   -----------------  -----------------  -----------------  -----------------
         O           -1.978771485734     1.665731031384     0.187453900838    15.994914619570
         O            1.648025514266    -1.193729968616    -0.675107099162    15.994914619570
         O           -3.285165485734    -0.045155968616    -0.512297099162    15.994914619570
         N            0.212153514266     0.276584031384     0.296817900838    14.003074004430
         C           -0.949563485734    -0.486537968616    -0.108308099162    12.000000000000
         C           -1.179236085734    -1.696000068616     0.800907100838    12.000000000000
         C            2.591025514266     0.784447031384     0.369607900838    12.000000000000
         C            1.462108514266    -0.136677968616    -0.064657099162    12.000000000000
         C           -2.179777785734     0.386100131384    -0.195543499162    12.000000000000
         C            3.946260514266     0.287303031384    -0.110169099162    12.000000000000
         H           -0.769787485734    -0.863518968616    -1.123034099162     1.007825032230
         H            0.074294514266     1.195228031384     0.699532900838     1.007825032230
         H           -1.371167485734    -1.351483968616     1.832040900838     1.007825032230
         H           -2.078920485734    -2.243990968616     0.461834900838     1.007825032230
         H           -0.326822485734    -2.334545968616     0.776778900838     1.007825032230
         H            2.386650514266     1.793882031384    -0.012898099162     1.007825032230
         H            2.572889514266     0.862235031384     1.463692900838     1.007825032230
         H            4.151629514266    -0.710434968616     0.283378900838     1.007825032230
         H            3.968164514266     0.222679031384    -1.199503099162     1.007825032230
         H            4.738944514266     0.965485031384     0.218908900838     1.007825032230
         H           -2.852399485734     2.103304031384     0.107524900838     1.007825032230

  Basis Set: AUG-CC-PVTZ
    Blend: AUG-CC-PVTZ
  Basis Set: (AUG-CC-PVTZ AUX)
    Blend: AUG-CC-PVTZ-JKFIT
	 Reference Energy          =    -512.8838422392105940 [Eh]
	 Singles Energy            =      -0.0000000000000000 [Eh]
	 Same-Spin Energy          =      -0.5115497685463704 [Eh]
	 Opposite-Spin Energy      =      -1.6153114432073077 [Eh]
	 Correlation Energy        =      -2.1268612117536780 [Eh]
	 Total Energy              =    -515.0107034509642290 [Eh]

	 ================> DF-SCS-MP2 Energies <==================
	-----------------------------------------------------------
	 SCS Same-Spin Scale       =       0.3333333333333333 [-]
	 SCS Opposite-Spin Scale   =       1.2000000000000000 [-]
	 SCS Same-Spin Energy      =      -0.1705165895154568 [Eh]
	 SCS Opposite-Spin Energy  =      -1.9383737318487690 [Eh]
	 SCS Correlation Energy    =      -2.1088903213642256 [Eh]
	 SCS Total Energy          =    -514.9927325605748365 [Eh]
	-----------------------------------------------------------

  Dipole Moment: [D]
     X:     0.0058      Y:     3.4147      Z:     1.9718     Total:     3.9431

*** Psi4 exiting successfully. Buy a developer a beer!
