                               Psi4 1.4a3.dev225

  ==> Input File <==

--------------------------------------------------------------------------
#psi4
#
memory 32 gb

molecule  {
0 1
  O        2.1858500    -1.4843500     0.4466430
  O       -1.5901990     1.2021140    -0.7742790
  O        3.2899360     0.0893000    -0.7567370
  N       -0.1552130    -0.3501220     0.0655300
  C        0.9973750     0.5138300    -0.1038320
  C        1.1366130     1.5332170     1.0331740
  C       -2.5208420    -0.9251940    -0.0919400
  C       -1.3639578     0.1146254    -0.2965178
  C        2.2713450    -0.2912280    -0.2118740
  C       -3.8280260    -0.2360070     0.2837800
  H        0.8752740     1.0541530    -1.0466610
  H       -0.0274960    -1.2421660     0.5250420
  H        1.2555520     1.0181310     1.9903510
  H        2.0023980     2.1787030     0.8613650
  H        0.2327940     2.1443920     1.0604580
  H       -2.6404080    -1.4674310    -1.0380590
  H       -2.2372030    -1.6677960     0.6628800
  H       -3.7417830     0.2575120     1.2553170
  H       -4.0728600     0.5241080    -0.4590610
  H       -4.6456460    -0.9595500     0.3374610
  H        3.0673500    -1.9023430     0.3513230
units angstrom
no_reorient  #important for SAPT in psi4, default
symmetry c1  #important for SAPT in psi4, default
}

set PROPERTIES_ORIGIN ["COM"]
properties('MP2/aug-cc-pvtz', properties = ['dipole'])
--------------------------------------------------------------------------

    Molecular point group: c1
  Charge       = 0
  Multiplicity = 1
  Basis Set: AUG-CC-PVTZ
    Blend: AUG-CC-PVTZ
  Basis Set: (AUG-CC-PVTZ AUX)
    Blend: AUG-CC-PVTZ-JKFIT

    Orbital Energies [Eh]
    ---------------------

    Doubly Occupied:

       1A    -20.635754     2A    -20.566170     3A    -20.524588
       4A    -15.597152     5A    -11.405014     6A    -11.353225
       7A    -11.297482     8A    -11.244394     9A    -11.234612
      10A    -11.219115    11A     -1.477734    12A     -1.395260
      13A     -1.373832    14A     -1.255648    15A     -1.072174
      16A     -1.033729    17A     -0.929112    18A     -0.878572
      19A     -0.824314    20A     -0.800658    21A     -0.728330
      22A     -0.715787    23A     -0.678906    24A     -0.661767
      25A     -0.641915    26A     -0.634631    27A     -0.611610
      28A     -0.605865    29A     -0.585884    30A     -0.557049
      31A     -0.552661    32A     -0.528756    33A     -0.522744
      34A     -0.512481    35A     -0.497416    36A     -0.490076
      37A     -0.470960    38A     -0.421192    39A     -0.405049

  @DF-RHF Final Energy:  -512.88591249555100

   => Energetics <=

    Nuclear Repulsion Energy =            548.3507679805405814
    One-Electron Energy =               -1788.5901240369896641
    Two-Electron Energy =                 727.3534435608981994
    Total Energy =                       -512.8859124955509969
  Basis Set: (AUG-CC-PVTZ AUX)
    Blend: AUG-CC-PVTZ-RI
    Molecular point group: c1

    Geometry (in Angstrom), charge = 0, multiplicity = 1:

       Center              X                  Y                   Z               Mass
    ------------   -----------------  -----------------  -----------------  -----------------
         O            2.115013594363    -1.487516436555     0.477921665722    15.994914619570
         O           -1.661035405637     1.198947563445    -0.743000334278    15.994914619570
         O            3.219099594363     0.086133563445    -0.725458334278    15.994914619570
         N           -0.226049405637    -0.353288436555     0.096808665722    14.003074004430
         C            0.926538594363     0.510663563445    -0.072553334278    12.000000000000
         C            1.065776594363     1.530050563445     1.064452665722    12.000000000000
         C           -2.591678405637    -0.928360436555    -0.060661334278    12.000000000000
         C           -1.434794205637     0.111458963445    -0.265239134278    12.000000000000
         C            2.200508594363    -0.294394436555    -0.180595334278    12.000000000000
         C           -3.898862405637    -0.239173436555     0.315058665722    12.000000000000
         H            0.804437594363     1.050986563445    -1.015382334278     1.007825032230
         H           -0.098332405637    -1.245332436555     0.556320665722     1.007825032230
         H            1.184715594363     1.014964563445     2.021629665722     1.007825032230
         H            1.931561594363     2.175536563445     0.892643665722     1.007825032230
         H            0.161957594363     2.141225563445     1.091736665722     1.007825032230
         H           -2.711244405637    -1.470597436555    -1.006780334278     1.007825032230
         H           -2.308039405637    -1.670962436555     0.694158665722     1.007825032230
         H           -3.812619405637     0.254345563445     1.286595665722     1.007825032230
         H           -4.143696405637     0.520941563445    -0.427782334278     1.007825032230
         H           -4.716482405637    -0.962716436555     0.368739665722     1.007825032230
         H            2.996513594363    -1.905509436555     0.382601665722     1.007825032230

  Basis Set: AUG-CC-PVTZ
    Blend: AUG-CC-PVTZ
  Basis Set: (AUG-CC-PVTZ AUX)
    Blend: AUG-CC-PVTZ-JKFIT
	 Reference Energy          =    -512.8859124955509969 [Eh]
	 Singles Energy            =      -0.0000000000000000 [Eh]
	 Same-Spin Energy          =      -0.5105052809919237 [Eh]
	 Opposite-Spin Energy      =      -1.6138040394914133 [Eh]
	 Correlation Energy        =      -2.1243093204833370 [Eh]
	 Total Energy              =    -515.0102218160343455 [Eh]

	 ================> DF-SCS-MP2 Energies <==================
	-----------------------------------------------------------
	 SCS Same-Spin Scale       =       0.3333333333333333 [-]
	 SCS Opposite-Spin Scale   =       1.2000000000000000 [-]
	 SCS Same-Spin Energy      =      -0.1701684269973079 [Eh]
	 SCS Opposite-Spin Energy  =      -1.9365648473896959 [Eh]
	 SCS Correlation Energy    =      -2.1067332743870040 [Eh]
	 SCS Total Energy          =    -514.9926457699380080 [Eh]
	-----------------------------------------------------------

  Dipole Moment: [D]
     X:     0.3714      Y:    -3.1387      Z:     2.2712     Total:     3.8920

*** Psi4 exiting successfully. Buy a developer a beer!
