                               Psi4 1.3.2 release

  ==> Input File <==

--------------------------------------------------------------------------
#psi4
#
memory 32 gb

molecule  {
0 1
  O       -1.9756670     1.6664010     0.1857370
  O        1.6511300    -1.1930600    -0.6768240
  O       -3.2820610    -0.0444860    -0.5140140
  N        0.2293081     0.2563161     0.2934636
  C       -0.9464590    -0.4858680    -0.1100250
  C       -1.2010820    -1.6869190     0.8036840
  C        2.5941300     0.7851170     0.3678910
  C        1.4652130    -0.1360080    -0.0663740
  C       -2.2031229     0.3491054    -0.1884462
  C        3.9493650     0.2879730    -0.1118860
  H       -0.7666830    -0.8628490    -1.1247510
  H        0.0773990     1.1958980     0.6978160
  H       -1.3680630    -1.3508140     1.8303240
  H       -2.0758160    -2.2433210     0.4601180
  H       -0.3237180    -2.3338760     0.7750620
  H        2.3897550     1.7945520    -0.0146150
  H        2.5759940     0.8629050     1.4619760
  H        4.1547340    -0.7097650     0.2816620
  H        3.9712690     0.2233490    -1.2012200
  H        4.7420490     0.9661550     0.2171920
  H       -2.8492950     2.1039740     0.1058080
units angstrom
no_reorient  #important for SAPT in psi4, default
symmetry c1  #important for SAPT in psi4, default
}

set PROPERTIES_ORIGIN ["COM"]
properties('MP2/aug-cc-pvtz', properties = ['dipole'])
--------------------------------------------------------------------------

    Molecular point group: c1
  Charge       = 0
  Multiplicity = 1
  Basis Set: AUG-CC-PVTZ
    Blend: AUG-CC-PVTZ
  Basis Set: (AUG-CC-PVTZ AUX)
    Blend: AUG-CC-PVTZ-JKFIT

    Orbital Energies [Eh]
    ---------------------

    Doubly Occupied:

       1A    -20.629829     2A    -20.570053     3A    -20.520313
       4A    -15.594526     5A    -11.405049     6A    -11.352710
       7A    -11.297213     8A    -11.246773     9A    -11.227583
      10A    -11.218743    11A     -1.476549    12A     -1.382275
      13A     -1.379357    14A     -1.245704    15A     -1.076005
      16A     -1.036520    17A     -0.926400    18A     -0.884326
      19A     -0.810670    20A     -0.792051    21A     -0.731078
      22A     -0.714424    23A     -0.682553    24A     -0.665636
      25A     -0.641018    26A     -0.634664    27A     -0.613150
      28A     -0.600345    29A     -0.579464    30A     -0.547064
      31A     -0.545540    32A     -0.522598    33A     -0.521184
      34A     -0.518339    35A     -0.502272    36A     -0.489552
      37A     -0.469678    38A     -0.427261    39A     -0.399963

  @DF-RHF Final Energy:  -512.88499004302423

   => Energetics <=

    Nuclear Repulsion Energy =            548.3932853553029645
    One-Electron Energy =               -1788.7996972409125647
    Two-Electron Energy =                 727.5214218425852550
    Total Energy =                       -512.8849900430242315
  Basis Set: (AUG-CC-PVTZ AUX)
    Blend: AUG-CC-PVTZ-RI
    Molecular point group: c1

    Geometry (in Angstrom), charge = 0, multiplicity = 1:

       Center              X                  Y                   Z               Mass
    ------------   -----------------  -----------------  -----------------  -----------------
         O           -1.975876027422     1.670171790152     0.186511158050    15.994914619570
         O            1.650920972578    -1.189289209848    -0.676049841950    15.994914619570
         O           -3.282270027422    -0.040715209848    -0.513239841950    15.994914619570
         N            0.229099072578     0.260086890152     0.294237758050    14.003074004430
         C           -0.946668027422    -0.482097209848    -0.109250841950    12.000000000000
         C           -1.201291027422    -1.683148209848     0.804458158050    12.000000000000
         C            2.593920972578     0.788887790152     0.368665158050    12.000000000000
         C            1.465003972578    -0.132237209848    -0.065599841950    12.000000000000
         C           -2.203331927422     0.352876190152    -0.187672041950    12.000000000000
         C            3.949155972578     0.291743790152    -0.111111841950    12.000000000000
         H           -0.766892027422    -0.859078209848    -1.123976841950     1.007825032230
         H            0.077189972578     1.199668790152     0.698590158050     1.007825032230
         H           -1.368272027422    -1.347043209848     1.831098158050     1.007825032230
         H           -2.076025027422    -2.239550209848     0.460892158050     1.007825032230
         H           -0.323927027422    -2.330105209848     0.775836158050     1.007825032230
         H            2.389545972578     1.798322790152    -0.013840841950     1.007825032230
         H            2.575784972578     0.866675790152     1.462750158050     1.007825032230
         H            4.154524972578    -0.705994209848     0.282436158050     1.007825032230
         H            3.971059972578     0.227119790152    -1.200445841950     1.007825032230
         H            4.741839972578     0.969925790152     0.217966158050     1.007825032230
         H           -2.849504027422     2.107744790152     0.106582158050     1.007825032230

  Basis Set: AUG-CC-PVTZ
    Blend: AUG-CC-PVTZ
  Basis Set: (AUG-CC-PVTZ AUX)
    Blend: AUG-CC-PVTZ-JKFIT
	 Reference Energy          =    -512.8849900430242315 [Eh]
	 Singles Energy            =      -0.0000000000000000 [Eh]
	 Same-Spin Energy          =      -0.5112303280887556 [Eh]
	 Opposite-Spin Energy      =      -1.6146746862321921 [Eh]
	 Correlation Energy        =      -2.1259050143209475 [Eh]
	 Total Energy              =    -515.0108950573451239 [Eh]

	 ================> DF-SCS-MP2 Energies <==================
	-----------------------------------------------------------
	 SCS Same-Spin Scale       =       0.3333333333333333 [-]
	 SCS Opposite-Spin Scale   =       1.2000000000000000 [-]
	 SCS Same-Spin Energy      =      -0.1704101093629185 [Eh]
	 SCS Opposite-Spin Energy  =      -1.9376096234786304 [Eh]
	 SCS Correlation Energy    =      -2.1080197328415489 [Eh]
	 SCS Total Energy          =    -514.9930097758657439 [Eh]
	-----------------------------------------------------------

  Dipole Moment: [D]
     X:    -0.2527      Y:     3.1988      Z:     1.9196     Total:     3.7391

*** Psi4 exiting successfully. Buy a developer a beer!
