                               Psi4 1.3.2 release

  ==> Input File <==

--------------------------------------------------------------------------
#psi4
#
memory 32 gb

molecule  {
0 1
  O       -1.9756670     1.6664010     0.1857370
  O        1.6511300    -1.1930600    -0.6768240
  O       -3.2820610    -0.0444860    -0.5140140
  N        0.2041566     0.2819454     0.3173098
  C       -0.9464590    -0.4858680    -0.1100250
  C       -1.2010820    -1.6869190     0.8036840
  C        2.5941300     0.7851170     0.3678910
  C        1.4652130    -0.1360080    -0.0663740
  C       -2.1892550     0.3702600    -0.1810000
  C        3.9493650     0.2879730    -0.1118860
  H       -0.7838817    -0.8712702    -1.1244887
  H        0.0773990     1.1958980     0.6978160
  H       -1.3680630    -1.3508140     1.8303240
  H       -2.0758160    -2.2433210     0.4601180
  H       -0.3237180    -2.3338760     0.7750620
  H        2.3897550     1.7945520    -0.0146150
  H        2.5759940     0.8629050     1.4619760
  H        4.1547340    -0.7097650     0.2816620
  H        3.9712690     0.2233490    -1.2012200
  H        4.7420490     0.9661550     0.2171920
  H       -2.8492950     2.1039740     0.1058080
units angstrom
no_reorient  #important for SAPT in psi4, default
symmetry c1  #important for SAPT in psi4, default
}

set PROPERTIES_ORIGIN ["COM"]
properties('MP2/aug-cc-pvtz', properties = ['dipole'])
--------------------------------------------------------------------------

    Molecular point group: c1
  Charge       = 0
  Multiplicity = 1
  Basis Set: AUG-CC-PVTZ
    Blend: AUG-CC-PVTZ
  Basis Set: (AUG-CC-PVTZ AUX)
    Blend: AUG-CC-PVTZ-JKFIT

    Orbital Energies [Eh]
    ---------------------

    Doubly Occupied:

       1A    -20.635157     2A    -20.562834     3A    -20.528264
       4A    -15.590913     5A    -11.403607     6A    -11.359032
       7A    -11.295830     8A    -11.248211     9A    -11.225991
      10A    -11.220094    11A     -1.477638    12A     -1.381038
      13A     -1.372724    14A     -1.244214    15A     -1.074257
      16A     -1.035281    17A     -0.926643    18A     -0.885814
      19A     -0.816949    20A     -0.790609    21A     -0.730386
      22A     -0.714281    23A     -0.683410    24A     -0.664777
      25A     -0.641160    26A     -0.633598    27A     -0.609314
      28A     -0.604754    29A     -0.580146    30A     -0.545993
      31A     -0.543464    32A     -0.525201    33A     -0.520486
      34A     -0.519589    35A     -0.497367    36A     -0.488314
      37A     -0.466990    38A     -0.429984    39A     -0.400782

  @DF-RHF Final Energy:  -512.88518976719308

   => Energetics <=

    Nuclear Repulsion Energy =            547.9574319604580523
    One-Electron Energy =               -1787.9350555853122842
    Two-Electron Energy =                 727.0924338576611490
    Total Energy =                       -512.8851897671930828
  Basis Set: (AUG-CC-PVTZ AUX)
    Blend: AUG-CC-PVTZ-RI
    Molecular point group: c1

    Geometry (in Angstrom), charge = 0, multiplicity = 1:

       Center              X                  Y                   Z               Mass
    ------------   -----------------  -----------------  -----------------  -----------------
         O           -1.974475935430     1.666006622491     0.183591688210    15.994914619570
         O            1.652321064570    -1.193454377509    -0.678969311790    15.994914619570
         O           -3.280869935430    -0.044880377509    -0.516159311790    15.994914619570
         N            0.205347664570     0.281551022491     0.315164488210    14.003074004430
         C           -0.945267935430    -0.486262377509    -0.112170311790    12.000000000000
         C           -1.199890935430    -1.687313377509     0.801538688210    12.000000000000
         C            2.595321064570     0.784722622491     0.365745688210    12.000000000000
         C            1.466404064570    -0.136402377509    -0.068519311790    12.000000000000
         C           -2.188063935430     0.369865622491    -0.183145311790    12.000000000000
         C            3.950556064570     0.287578622491    -0.114031311790    12.000000000000
         H           -0.782690635430    -0.871664577509    -1.126634011790     1.007825032230
         H            0.078590064570     1.195503622491     0.695670688210     1.007825032230
         H           -1.366871935430    -1.351208377509     1.828178688210     1.007825032230
         H           -2.074624935430    -2.243715377509     0.457972688210     1.007825032230
         H           -0.322526935430    -2.334270377509     0.772916688210     1.007825032230
         H            2.390946064570     1.794157622491    -0.016760311790     1.007825032230
         H            2.577185064570     0.862510622491     1.459830688210     1.007825032230
         H            4.155925064570    -0.710159377509     0.279516688210     1.007825032230
         H            3.972460064570     0.222954622491    -1.203365311790     1.007825032230
         H            4.743240064570     0.965760622491     0.215046688210     1.007825032230
         H           -2.848103935430     2.103579622491     0.103662688210     1.007825032230

  Basis Set: AUG-CC-PVTZ
    Blend: AUG-CC-PVTZ
  Basis Set: (AUG-CC-PVTZ AUX)
    Blend: AUG-CC-PVTZ-JKFIT
	 Reference Energy          =    -512.8851897671930828 [Eh]
	 Singles Energy            =      -0.0000000000000000 [Eh]
	 Same-Spin Energy          =      -0.5113260840103296 [Eh]
	 Opposite-Spin Energy      =      -1.6150539710517127 [Eh]
	 Correlation Energy        =      -2.1263800550620422 [Eh]
	 Total Energy              =    -515.0115698222550691 [Eh]

	 ================> DF-SCS-MP2 Energies <==================
	-----------------------------------------------------------
	 SCS Same-Spin Scale       =       0.3333333333333333 [-]
	 SCS Opposite-Spin Scale   =       1.2000000000000000 [-]
	 SCS Same-Spin Energy      =      -0.1704420280034432 [Eh]
	 SCS Opposite-Spin Energy  =      -1.9380647652620551 [Eh]
	 SCS Correlation Energy    =      -2.1085067932654984 [Eh]
	 SCS Total Energy          =    -514.9936965604586021 [Eh]
	-----------------------------------------------------------

  Dipole Moment: [D]
     X:     0.0605      Y:     3.2866      Z:     1.8990     Total:     3.7963

*** Psi4 exiting successfully. Buy a developer a beer!
