                               Psi4 1.4a3.dev225

  ==> Input File <==

--------------------------------------------------------------------------
#psi4
#
memory 32 gb

molecule  {
0 1
  O        2.1858500    -1.4843500     0.4466430
  O       -1.5901990     1.2021140    -0.7742790
  O        3.2899360     0.0893000    -0.7567370
  N       -0.1552130    -0.3501220     0.0655300
  C        0.9973750     0.5138300    -0.1038320
  C        1.1366130     1.5332170     1.0331740
  C       -2.5208420    -0.9251940    -0.0919400
  C       -1.4008270     0.0814870    -0.2899980
  C        2.2700928    -0.3087037    -0.2022287
  C       -3.8280260    -0.2360070     0.2837800
  H        0.8752740     1.0541530    -1.0466610
  H       -0.0274960    -1.2421660     0.5250420
  H        1.2555520     1.0181310     1.9903510
  H        2.0023980     2.1787030     0.8613650
  H        0.2327940     2.1443920     1.0604580
  H       -2.6404080    -1.4674310    -1.0380590
  H       -2.2372030    -1.6677960     0.6628800
  H       -3.7417830     0.2575120     1.2553170
  H       -4.0728600     0.5241080    -0.4590610
  H       -4.6456460    -0.9595500     0.3374610
  H        3.0673500    -1.9023430     0.3513230
units angstrom
no_reorient  #important for SAPT in psi4, default
symmetry c1  #important for SAPT in psi4, default
}

set PROPERTIES_ORIGIN ["COM"]
properties('MP2/aug-cc-pvtz', properties = ['dipole'])
--------------------------------------------------------------------------

    Molecular point group: c1
  Charge       = 0
  Multiplicity = 1
  Basis Set: AUG-CC-PVTZ
    Blend: AUG-CC-PVTZ
  Basis Set: (AUG-CC-PVTZ AUX)
    Blend: AUG-CC-PVTZ-JKFIT

    Orbital Energies [Eh]
    ---------------------

    Doubly Occupied:

       1A    -20.640279     2A    -20.561987     3A    -20.522542
       4A    -15.595665     5A    -11.404326     6A    -11.356732
       7A    -11.296269     8A    -11.247717     9A    -11.232315
      10A    -11.222383    11A     -1.483455    12A     -1.379313
      13A     -1.368832    14A     -1.245830    15A     -1.075310
      16A     -1.036663    17A     -0.928306    18A     -0.887115
      19A     -0.825740    20A     -0.795587    21A     -0.728223
      22A     -0.716255    23A     -0.680512    24A     -0.663067
      25A     -0.642811    26A     -0.635046    27A     -0.609053
      28A     -0.599011    29A     -0.584938    30A     -0.556008
      31A     -0.549669    32A     -0.527642    33A     -0.523562
      34A     -0.513120    35A     -0.496277    36A     -0.485678
      37A     -0.467986    38A     -0.427410    39A     -0.399831

  @DF-RHF Final Energy:  -512.88559590593150

   => Energetics <=

    Nuclear Repulsion Energy =            547.8984654915949477
    One-Electron Energy =               -1787.7431932400822916
    Two-Electron Energy =                 726.9591318425559621
    Total Energy =                       -512.8855959059314955
  Basis Set: (AUG-CC-PVTZ AUX)
    Blend: AUG-CC-PVTZ-RI
    Molecular point group: c1

    Geometry (in Angstrom), charge = 0, multiplicity = 1:

       Center              X                  Y                   Z               Mass
    ------------   -----------------  -----------------  -----------------  -----------------
         O            2.118166861915    -1.483329816988     0.476584545751    15.994914619570
         O           -1.657882138085     1.203134183012    -0.744337454249    15.994914619570
         O            3.222252861915     0.090320183012    -0.726795454249    15.994914619570
         N           -0.222896138085    -0.349101816988     0.095471545751    14.003074004430
         C            0.929691861915     0.514850183012    -0.073890454249    12.000000000000
         C            1.068929861915     1.534237183012     1.063115545751    12.000000000000
         C           -2.588525138085    -0.924173816988    -0.061998454249    12.000000000000
         C           -1.468510138085     0.082507183012    -0.260056454249    12.000000000000
         C            2.202409661915    -0.307683516988    -0.172287154249    12.000000000000
         C           -3.895709138085    -0.234986816988     0.313721545751    12.000000000000
         H            0.807590861915     1.055173183012    -1.016719454249     1.007825032230
         H           -0.095179138085    -1.241145816988     0.554983545751     1.007825032230
         H            1.187868861915     1.019151183012     2.020292545751     1.007825032230
         H            1.934714861915     2.179723183012     0.891306545751     1.007825032230
         H            0.165110861915     2.145412183012     1.090399545751     1.007825032230
         H           -2.708091138085    -1.466410816988    -1.008117454249     1.007825032230
         H           -2.304886138085    -1.666775816988     0.692821545751     1.007825032230
         H           -3.809466138085     0.258532183012     1.285258545751     1.007825032230
         H           -4.140543138085     0.525128183012    -0.429119454249     1.007825032230
         H           -4.713329138085    -0.958529816988     0.367402545751     1.007825032230
         H            2.999666861915    -1.901322816988     0.381264545751     1.007825032230

  Basis Set: AUG-CC-PVTZ
    Blend: AUG-CC-PVTZ
  Basis Set: (AUG-CC-PVTZ AUX)
    Blend: AUG-CC-PVTZ-JKFIT
	 Reference Energy          =    -512.8855959059314955 [Eh]
	 Singles Energy            =      -0.0000000000000000 [Eh]
	 Same-Spin Energy          =      -0.5112642849664625 [Eh]
	 Opposite-Spin Energy      =      -1.6151351285284217 [Eh]
	 Correlation Energy        =      -2.1263994134948843 [Eh]
	 Total Energy              =    -515.0119953194264326 [Eh]

	 ================> DF-SCS-MP2 Energies <==================
	-----------------------------------------------------------
	 SCS Same-Spin Scale       =       0.3333333333333333 [-]
	 SCS Opposite-Spin Scale   =       1.2000000000000000 [-]
	 SCS Same-Spin Energy      =      -0.1704214283221542 [Eh]
	 SCS Opposite-Spin Energy  =      -1.9381621542341059 [Eh]
	 SCS Correlation Energy    =      -2.1085835825562600 [Eh]
	 SCS Total Energy          =    -514.9941794884877027 [Eh]
	-----------------------------------------------------------

  Dipole Moment: [D]
     X:     0.1205      Y:    -3.4228      Z:     2.3656     Total:     4.1624

*** Psi4 exiting successfully. Buy a developer a beer!
