                               Psi4 1.3.2 release

  ==> Input File <==

--------------------------------------------------------------------------
#psi4
#
memory 32 gb

molecule  {
0 1
  O       -1.9756670     1.6664010     0.1857370
  O        1.6511300    -1.1930600    -0.6768240
  O       -3.2820610    -0.0444860    -0.5140140
  N        0.2152580     0.2772540     0.2951010
  C       -0.9464590    -0.4858680    -0.1100250
  C       -1.2010820    -1.6869190     0.8036840
  C        2.5941300     0.7851170     0.3678910
  C        1.4652130    -0.1360080    -0.0663740
  C       -2.1892550     0.3702600    -0.1810000
  C        3.9493650     0.2879730    -0.1118860
  H       -0.7502998    -0.8972038    -1.2172244
  H        0.0773990     1.1958980     0.6978160
  H       -1.3680630    -1.3508140     1.8303240
  H       -2.0758160    -2.2433210     0.4601180
  H       -0.3237180    -2.3338760     0.7750620
  H        2.3897550     1.7945520    -0.0146150
  H        2.5759940     0.8629050     1.4619760
  H        4.1547340    -0.7097650     0.2816620
  H        3.9712690     0.2233490    -1.2012200
  H        4.7420490     0.9661550     0.2171920
  H       -2.8492950     2.1039740     0.1058080
units angstrom
no_reorient  #important for SAPT in psi4, default
symmetry c1  #important for SAPT in psi4, default
}

set PROPERTIES_ORIGIN ["COM"]
properties('MP2/aug-cc-pvtz', properties = ['dipole'])
--------------------------------------------------------------------------

    Molecular point group: c1
  Charge       = 0
  Multiplicity = 1
  Basis Set: AUG-CC-PVTZ
    Blend: AUG-CC-PVTZ
  Basis Set: (AUG-CC-PVTZ AUX)
    Blend: AUG-CC-PVTZ-JKFIT

    Orbital Energies [Eh]
    ---------------------

    Doubly Occupied:

       1A    -20.635896     2A    -20.563105     3A    -20.524844
       4A    -15.593340     5A    -11.404802     6A    -11.356265
       7A    -11.306404     8A    -11.247752     9A    -11.227451
      10A    -11.219638    11A     -1.478178    12A     -1.380751
      13A     -1.373071    14A     -1.245006    15A     -1.073209
      16A     -1.034319    17A     -0.927623    18A     -0.885523
      19A     -0.809038    20A     -0.792193    21A     -0.730983
      22A     -0.714256    23A     -0.681816    24A     -0.661950
      25A     -0.641294    26A     -0.630581    27A     -0.608245
      28A     -0.600842    29A     -0.581051    30A     -0.546257
      31A     -0.543359    32A     -0.524285    33A     -0.519766
      34A     -0.515377    35A     -0.497403    36A     -0.485682
      37A     -0.465730    38A     -0.428859    39A     -0.399717

  @DF-RHF Final Energy:  -512.87891411487999

   => Energetics <=

    Nuclear Repulsion Energy =            547.6864885658898174
    One-Electron Energy =               -1787.4190888595458091
    Two-Electron Energy =                 726.8536861787761154
    Total Energy =                       -512.8789141148799899
  Basis Set: (AUG-CC-PVTZ AUX)
    Blend: AUG-CC-PVTZ-RI
    Molecular point group: c1

    Geometry (in Angstrom), charge = 0, multiplicity = 1:

       Center              X                  Y                   Z               Mass
    ------------   -----------------  -----------------  -----------------  -----------------
         O           -1.975780776715     1.666639614069     0.186379597329    15.994914619570
         O            1.651016223285    -1.192821385931    -0.676181402671    15.994914619570
         O           -3.282174776715    -0.044247385931    -0.513371402671    15.994914619570
         N            0.215144223285     0.277492614069     0.295743597329    14.003074004430
         C           -0.946572776715    -0.485629385931    -0.109382402671    12.000000000000
         C           -1.201195776715    -1.686680385931     0.804326597329    12.000000000000
         C            2.594016223285     0.785355614069     0.368533597329    12.000000000000
         C            1.465099223285    -0.135769385931    -0.065731402671    12.000000000000
         C           -2.189368776715     0.370498614069    -0.180357402671    12.000000000000
         C            3.949251223285     0.288211614069    -0.111243402671    12.000000000000
         H           -0.750413576715    -0.896965185931    -1.216581802671     1.007825032230
         H            0.077285223285     1.196136614069     0.698458597329     1.007825032230
         H           -1.368176776715    -1.350575385931     1.830966597329     1.007825032230
         H           -2.075929776715    -2.243082385931     0.460760597329     1.007825032230
         H           -0.323831776715    -2.333637385931     0.775704597329     1.007825032230
         H            2.389641223285     1.794790614069    -0.013972402671     1.007825032230
         H            2.575880223285     0.863143614069     1.462618597329     1.007825032230
         H            4.154620223285    -0.709526385931     0.282304597329     1.007825032230
         H            3.971155223285     0.223587614069    -1.200577402671     1.007825032230
         H            4.741935223285     0.966393614069     0.217834597329     1.007825032230
         H           -2.849408776715     2.104212614069     0.106450597329     1.007825032230

  Basis Set: AUG-CC-PVTZ
    Blend: AUG-CC-PVTZ
  Basis Set: (AUG-CC-PVTZ AUX)
    Blend: AUG-CC-PVTZ-JKFIT
	 Reference Energy          =    -512.8789141148799899 [Eh]
	 Singles Energy            =      -0.0000000000000000 [Eh]
	 Same-Spin Energy          =      -0.5117150507634021 [Eh]
	 Opposite-Spin Energy      =      -1.6159763979984691 [Eh]
	 Correlation Energy        =      -2.1276914487618712 [Eh]
	 Total Energy              =    -515.0066055636418696 [Eh]

	 ================> DF-SCS-MP2 Energies <==================
	-----------------------------------------------------------
	 SCS Same-Spin Scale       =       0.3333333333333333 [-]
	 SCS Opposite-Spin Scale   =       1.2000000000000000 [-]
	 SCS Same-Spin Energy      =      -0.1705716835878007 [Eh]
	 SCS Opposite-Spin Energy  =      -1.9391716775981629 [Eh]
	 SCS Correlation Energy    =      -2.1097433611859637 [Eh]
	 SCS Total Energy          =    -514.9886574760660096 [Eh]
	-----------------------------------------------------------

  Dipole Moment: [D]
     X:    -0.0039      Y:     3.3043      Z:     1.9704     Total:     3.8472

*** Psi4 exiting successfully. Buy a developer a beer!
