                               Psi4 1.3.2 release

  ==> Input File <==

--------------------------------------------------------------------------
#psi4
#
memory 32 gb

molecule  {
0 1
  O       -1.9756670     1.6664010     0.1857370
  O        1.6511300    -1.1930600    -0.6768240
  O       -3.2820610    -0.0444860    -0.5140140
  N        0.1888328     0.2189350     0.2633324
  C       -0.9464590    -0.4858680    -0.1100250
  C       -1.2010820    -1.6869190     0.8036840
  C        2.6454835     0.7349401     0.3335285
  C        1.4652130    -0.1360080    -0.0663740
  C       -2.1892550     0.3702600    -0.1810000
  C        3.9493650     0.2879730    -0.1118860
  H       -0.7666830    -0.8628490    -1.1247510
  H        0.0773990     1.1958980     0.6978160
  H       -1.3680630    -1.3508140     1.8303240
  H       -2.0758160    -2.2433210     0.4601180
  H       -0.3237180    -2.3338760     0.7750620
  H        2.3897550     1.7945520    -0.0146150
  H        2.5759940     0.8629050     1.4619760
  H        4.1547340    -0.7097650     0.2816620
  H        3.9712690     0.2233490    -1.2012200
  H        4.7420490     0.9661550     0.2171920
  H       -2.8492950     2.1039740     0.1058080
units angstrom
no_reorient  #important for SAPT in psi4, default
symmetry c1  #important for SAPT in psi4, default
}

set PROPERTIES_ORIGIN ["COM"]
properties('MP2/aug-cc-pvtz', properties = ['dipole'])
--------------------------------------------------------------------------

    Molecular point group: c1
  Charge       = 0
  Multiplicity = 1
  Basis Set: AUG-CC-PVTZ
    Blend: AUG-CC-PVTZ
  Basis Set: (AUG-CC-PVTZ AUX)
    Blend: AUG-CC-PVTZ-JKFIT

    Orbital Energies [Eh]
    ---------------------

    Doubly Occupied:

       1A    -20.635879     2A    -20.563488     3A    -20.519914
       4A    -15.595291     5A    -11.404799     6A    -11.355839
       7A    -11.292235     8A    -11.256497     9A    -11.224443
      10A    -11.218603    11A     -1.478346    12A     -1.382157
      13A     -1.373239    14A     -1.251403    15A     -1.080183
      16A     -1.041784    17A     -0.929304    18A     -0.887922
      19A     -0.816960    20A     -0.782597    21A     -0.735459
      22A     -0.711970    23A     -0.688404    24A     -0.664826
      25A     -0.638854    26A     -0.632243    27A     -0.611019
      28A     -0.600155    29A     -0.581383    30A     -0.560471
      31A     -0.544165    32A     -0.537054    33A     -0.518089
      34A     -0.516522    35A     -0.494013    36A     -0.476653
      37A     -0.467336    38A     -0.426202    39A     -0.393754

  @DF-RHF Final Energy:  -512.86896107436814

   => Energetics <=

    Nuclear Repulsion Energy =            549.4137602997808472
    One-Electron Energy =               -1790.7865311814164215
    Two-Electron Energy =                 728.5038098072673165
    Total Energy =                       -512.8689610743681442
  Basis Set: (AUG-CC-PVTZ AUX)
    Blend: AUG-CC-PVTZ-RI
    Molecular point group: c1

    Geometry (in Angstrom), charge = 0, multiplicity = 1:

       Center              X                  Y                   Z               Mass
    ------------   -----------------  -----------------  -----------------  -----------------
         O           -1.977364084122     1.676180575677     0.191645955269    15.994914619570
         O            1.649432915878    -1.183280424323    -0.670915044731    15.994914619570
         O           -3.283758084122    -0.034706424323    -0.508105044731    15.994914619570
         N            0.187135715878     0.228714575677     0.269241355269    14.003074004430
         C           -0.948156084122    -0.476088424323    -0.104116044731    12.000000000000
         C           -1.202779084122    -1.677139424323     0.809592955269    12.000000000000
         C            2.643786415878     0.744719675677     0.339437455269    12.000000000000
         C            1.463515915878    -0.126228424323    -0.060465044731    12.000000000000
         C           -2.190952084122     0.380039575677    -0.175091044731    12.000000000000
         C            3.947667915878     0.297752575677    -0.105977044731    12.000000000000
         H           -0.768380084122    -0.853069424323    -1.118842044731     1.007825032230
         H            0.075701915878     1.205677575677     0.703724955269     1.007825032230
         H           -1.369760084122    -1.341034424323     1.836232955269     1.007825032230
         H           -2.077513084122    -2.233541424323     0.466026955269     1.007825032230
         H           -0.325415084122    -2.324096424323     0.780970955269     1.007825032230
         H            2.388057915878     1.804331575677    -0.008706044731     1.007825032230
         H            2.574296915878     0.872684575677     1.467884955269     1.007825032230
         H            4.153036915878    -0.699985424323     0.287570955269     1.007825032230
         H            3.969571915878     0.233128575677    -1.195311044731     1.007825032230
         H            4.740351915878     0.975934575677     0.223100955269     1.007825032230
         H           -2.850992084122     2.113753575677     0.111716955269     1.007825032230

  Basis Set: AUG-CC-PVTZ
    Blend: AUG-CC-PVTZ
  Basis Set: (AUG-CC-PVTZ AUX)
    Blend: AUG-CC-PVTZ-JKFIT
	 Reference Energy          =    -512.8689610743681442 [Eh]
	 Singles Energy            =      -0.0000000000000000 [Eh]
	 Same-Spin Energy          =      -0.5128750267568754 [Eh]
	 Opposite-Spin Energy      =      -1.6167524028911064 [Eh]
	 Correlation Energy        =      -2.1296274296479818 [Eh]
	 Total Energy              =    -514.9985885040160838 [Eh]

	 ================> DF-SCS-MP2 Energies <==================
	-----------------------------------------------------------
	 SCS Same-Spin Scale       =       0.3333333333333333 [-]
	 SCS Opposite-Spin Scale   =       1.2000000000000000 [-]
	 SCS Same-Spin Energy      =      -0.1709583422522918 [Eh]
	 SCS Opposite-Spin Energy  =      -1.9401028834693277 [Eh]
	 SCS Correlation Energy    =      -2.1110612257216195 [Eh]
	 SCS Total Energy          =    -514.9800223000897859 [Eh]
	-----------------------------------------------------------

  Dipole Moment: [D]
     X:     0.1337      Y:     3.4357      Z:     1.9923     Total:     3.9738

*** Psi4 exiting successfully. Buy a developer a beer!
