                               Psi4 1.3.2 release

  ==> Input File <==

--------------------------------------------------------------------------
#psi4
#
memory 32 gb

molecule  {
0 1
  O       -1.9756670     1.6664010     0.1857370
  O        1.6511300    -1.1930600    -0.6768240
  O       -3.2820610    -0.0444860    -0.5140140
  N        0.2152580     0.2772540     0.2951010
  C       -1.0102608    -0.5078695    -0.1532121
  C       -1.2010820    -1.6869190     0.8036840
  C        2.5941300     0.7851170     0.3678910
  C        1.4652130    -0.1360080    -0.0663740
  C       -2.1892550     0.3702600    -0.1810000
  C        3.9493650     0.2879730    -0.1118860
  H       -0.7666830    -0.8628490    -1.1247510
  H        0.0773990     1.1958980     0.6978160
  H       -1.3680630    -1.3508140     1.8303240
  H       -2.0813258    -2.2054752     0.4176132
  H       -0.3237180    -2.3338760     0.7750620
  H        2.3897550     1.7945520    -0.0146150
  H        2.5759940     0.8629050     1.4619760
  H        4.1547340    -0.7097650     0.2816620
  H        3.9712690     0.2233490    -1.2012200
  H        4.7420490     0.9661550     0.2171920
  H       -2.8492950     2.1039740     0.1058080
units angstrom
no_reorient  #important for SAPT in psi4, default
symmetry c1  #important for SAPT in psi4, default
}

set PROPERTIES_ORIGIN ["COM"]
properties('MP2/aug-cc-pvtz', properties = ['dipole'])
--------------------------------------------------------------------------

    Molecular point group: c1
  Charge       = 0
  Multiplicity = 1
  Basis Set: AUG-CC-PVTZ
    Blend: AUG-CC-PVTZ
  Basis Set: (AUG-CC-PVTZ AUX)
    Blend: AUG-CC-PVTZ-JKFIT

    Orbital Energies [Eh]
    ---------------------

    Doubly Occupied:

       1A    -20.638788     2A    -20.565171     3A    -20.520753
       4A    -15.588132     5A    -11.405876     6A    -11.352572
       7A    -11.297594     8A    -11.245143     9A    -11.230440
      10A    -11.217786    11A     -1.481307    12A     -1.376808
      13A     -1.375358    14A     -1.229151    15A     -1.077302
      16A     -1.037953    17A     -0.931238    18A     -0.883170
      19A     -0.819265    20A     -0.785804    21A     -0.729088
      22A     -0.716311    23A     -0.676953    24A     -0.669424
      25A     -0.639610    26A     -0.633118    27A     -0.616447
      28A     -0.599206    29A     -0.573151    30A     -0.555643
      31A     -0.543873    32A     -0.524880    33A     -0.517413
      34A     -0.514308    35A     -0.497477    36A     -0.488695
      37A     -0.473414    38A     -0.424819    39A     -0.398351

  @DF-RHF Final Energy:  -512.87917386397726

   => Energetics <=

    Nuclear Repulsion Energy =            547.6906190088121775
    One-Electron Energy =               -1787.4360021290513032
    Two-Electron Energy =                 726.8662092562619819
    Total Energy =                       -512.8791738639772575
  Basis Set: (AUG-CC-PVTZ AUX)
    Blend: AUG-CC-PVTZ-RI
    Molecular point group: c1

    Geometry (in Angstrom), charge = 0, multiplicity = 1:

       Center              X                  Y                   Z               Mass
    ------------   -----------------  -----------------  -----------------  -----------------
         O           -1.970351227014     1.667957924509     0.189604750964    15.994914619570
         O            1.656445772986    -1.191503075491    -0.672956249036    15.994914619570
         O           -3.276745227014    -0.042929075491    -0.510146249036    15.994914619570
         N            0.220573772986     0.278810924509     0.298968750964    14.003074004430
         C           -1.004945027014    -0.506312575491    -0.149344349036    12.000000000000
         C           -1.195766227014    -1.685362075491     0.807551750964    12.000000000000
         C            2.599445772986     0.786673924509     0.371758750964    12.000000000000
         C            1.470528772986    -0.134451075491    -0.062506249036    12.000000000000
         C           -2.183939227014     0.371816924509    -0.177132249036    12.000000000000
         C            3.954680772986     0.289529924509    -0.108018249036    12.000000000000
         H           -0.761367227014    -0.861292075491    -1.120883249036     1.007825032230
         H            0.082714772986     1.197454924509     0.701683750964     1.007825032230
         H           -1.362747227014    -1.349257075491     1.834191750964     1.007825032230
         H           -2.076010027014    -2.203918275491     0.421480950964     1.007825032230
         H           -0.318402227014    -2.332319075491     0.778929750964     1.007825032230
         H            2.395070772986     1.796108924509    -0.010747249036     1.007825032230
         H            2.581309772986     0.864461924509     1.465843750964     1.007825032230
         H            4.160049772986    -0.708208075491     0.285529750964     1.007825032230
         H            3.976584772986     0.224905924509    -1.197352249036     1.007825032230
         H            4.747364772986     0.967711924509     0.221059750964     1.007825032230
         H           -2.843979227014     2.105530924509     0.109675750964     1.007825032230

  Basis Set: AUG-CC-PVTZ
    Blend: AUG-CC-PVTZ
  Basis Set: (AUG-CC-PVTZ AUX)
    Blend: AUG-CC-PVTZ-JKFIT
	 Reference Energy          =    -512.8791738639772575 [Eh]
	 Singles Energy            =      -0.0000000000000000 [Eh]
	 Same-Spin Energy          =      -0.5112715571788146 [Eh]
	 Opposite-Spin Energy      =      -1.6154573504529917 [Eh]
	 Correlation Energy        =      -2.1267289076318061 [Eh]
	 Total Energy              =    -515.0059027716090441 [Eh]

	 ================> DF-SCS-MP2 Energies <==================
	-----------------------------------------------------------
	 SCS Same-Spin Scale       =       0.3333333333333333 [-]
	 SCS Opposite-Spin Scale   =       1.2000000000000000 [-]
	 SCS Same-Spin Energy      =      -0.1704238523929382 [Eh]
	 SCS Opposite-Spin Energy  =      -1.9385488205435899 [Eh]
	 SCS Correlation Energy    =      -2.1089726729365279 [Eh]
	 SCS Total Energy          =    -514.9881465369137459 [Eh]
	-----------------------------------------------------------

  Dipole Moment: [D]
     X:    -0.2715      Y:     3.2601      Z:     1.9299     Total:     3.7982

*** Psi4 exiting successfully. Buy a developer a beer!
