                               Psi4 1.4a3.dev225

  ==> Input File <==

--------------------------------------------------------------------------
#psi4
#
memory 32 gb

molecule  {
0 1
  O        2.1858500    -1.4843500     0.4466430
  O       -1.5901990     1.2021140    -0.7742790
  O        3.2899360     0.0893000    -0.7567370
  N       -0.1552130    -0.3501220     0.0655300
  C        0.9973750     0.5138300    -0.1038320
  C        1.1366130     1.5332170     1.0331740
  C       -2.5208420    -0.9251940    -0.0919400
  C       -1.4376962     0.0483486    -0.2834782
  C        2.2713450    -0.2912280    -0.2118740
  C       -3.8280260    -0.2360070     0.2837800
  H        0.8752740     1.0541530    -1.0466610
  H       -0.0274960    -1.2421660     0.5250420
  H        1.2555520     1.0181310     1.9903510
  H        2.0023980     2.1787030     0.8613650
  H        0.2327940     2.1443920     1.0604580
  H       -2.6404080    -1.4674310    -1.0380590
  H       -2.2372030    -1.6677960     0.6628800
  H       -3.7417830     0.2575120     1.2553170
  H       -4.0728600     0.5241080    -0.4590610
  H       -4.6456460    -0.9595500     0.3374610
  H        3.0673500    -1.9023430     0.3513230
units angstrom
no_reorient  #important for SAPT in psi4, default
symmetry c1  #important for SAPT in psi4, default
}

set PROPERTIES_ORIGIN ["COM"]
properties('MP2/aug-cc-pvtz', properties = ['dipole'])
--------------------------------------------------------------------------

    Molecular point group: c1
  Charge       = 0
  Multiplicity = 1
  Basis Set: AUG-CC-PVTZ
    Blend: AUG-CC-PVTZ
  Basis Set: (AUG-CC-PVTZ AUX)
    Blend: AUG-CC-PVTZ-JKFIT

    Orbital Energies [Eh]
    ---------------------

    Doubly Occupied:

       1A    -20.633329     2A    -20.564249     3A    -20.521000
       4A    -15.594911     5A    -11.403123     6A    -11.361282
       7A    -11.295751     8A    -11.250247     9A    -11.231379
      10A    -11.225779    11A     -1.475440    12A     -1.371811
      13A     -1.363919    14A     -1.236595    15A     -1.083313
      16A     -1.039377    17A     -0.927373    18A     -0.894498
      19A     -0.820540    20A     -0.788139    21A     -0.727048
      22A     -0.713247    23A     -0.683357    24A     -0.659380
      25A     -0.645909    26A     -0.633244    27A     -0.609960
      28A     -0.591780    29A     -0.582584    30A     -0.556700
      31A     -0.549078    32A     -0.527943    33A     -0.525793
      34A     -0.514379    35A     -0.497498    36A     -0.483746
      37A     -0.467717    38A     -0.430835    39A     -0.395631

  @DF-RHF Final Energy:  -512.87976449995710

   => Energetics <=

    Nuclear Repulsion Energy =            547.4473035439377782
    One-Electron Energy =               -1786.8983694072637718
    Two-Electron Energy =                 726.5713013633688888
    Total Energy =                       -512.8797644999571048
  Basis Set: (AUG-CC-PVTZ AUX)
    Blend: AUG-CC-PVTZ-RI
    Molecular point group: c1

    Geometry (in Angstrom), charge = 0, multiplicity = 1:

       Center              X                  Y                   Z               Mass
    ------------   -----------------  -----------------  -----------------  -----------------
         O            2.121112974344    -1.482034253769     0.476843076070    15.994914619570
         O           -1.654936025656     1.204429746231    -0.744078923930    15.994914619570
         O            3.225198974344     0.091615746231    -0.726536923930    15.994914619570
         N           -0.219950025656    -0.347806253769     0.095730076070    14.003074004430
         C            0.932637974344     0.516145746231    -0.073631923930    12.000000000000
         C            1.071875974344     1.535532746231     1.063374076070    12.000000000000
         C           -2.585579025656    -0.922878253769    -0.061739923930    12.000000000000
         C           -1.502433225656     0.050664346231    -0.253278123930    12.000000000000
         C            2.206607974344    -0.288912253769    -0.181673923930    12.000000000000
         C           -3.892763025656    -0.233691253769     0.313980076070    12.000000000000
         H            0.810536974344     1.056468746231    -1.016460923930     1.007825032230
         H           -0.092233025656    -1.239850253769     0.555242076070     1.007825032230
         H            1.190814974344     1.020446746231     2.020551076070     1.007825032230
         H            1.937660974344     2.181018746231     0.891565076070     1.007825032230
         H            0.168056974344     2.146707746231     1.090658076070     1.007825032230
         H           -2.705145025656    -1.465115253769    -1.007858923930     1.007825032230
         H           -2.301940025656    -1.665480253769     0.693080076070     1.007825032230
         H           -3.806520025656     0.259827746231     1.285517076070     1.007825032230
         H           -4.137597025656     0.526423746231    -0.428860923930     1.007825032230
         H           -4.710383025656    -0.957234253769     0.367661076070     1.007825032230
         H            3.002612974344    -1.900027253769     0.381523076070     1.007825032230

  Basis Set: AUG-CC-PVTZ
    Blend: AUG-CC-PVTZ
  Basis Set: (AUG-CC-PVTZ AUX)
    Blend: AUG-CC-PVTZ-JKFIT
	 Reference Energy          =    -512.8797644999571048 [Eh]
	 Singles Energy            =      -0.0000000000000000 [Eh]
	 Same-Spin Energy          =      -0.5121988363012624 [Eh]
	 Opposite-Spin Energy      =      -1.6170093019334630 [Eh]
	 Correlation Energy        =      -2.1292081382347252 [Eh]
	 Total Energy              =    -515.0089726381918354 [Eh]

	 ================> DF-SCS-MP2 Energies <==================
	-----------------------------------------------------------
	 SCS Same-Spin Scale       =       0.3333333333333333 [-]
	 SCS Opposite-Spin Scale   =       1.2000000000000000 [-]
	 SCS Same-Spin Energy      =      -0.1707329454337541 [Eh]
	 SCS Opposite-Spin Energy  =      -1.9404111623201556 [Eh]
	 SCS Correlation Energy    =      -2.1111441077539097 [Eh]
	 SCS Total Energy          =    -514.9909086077110487 [Eh]
	-----------------------------------------------------------

  Dipole Moment: [D]
     X:    -0.0922      Y:    -3.4272      Z:     2.3079     Total:     4.1329

*** Psi4 exiting successfully. Buy a developer a beer!
