                               Psi4 1.3.2 release

  ==> Input File <==

--------------------------------------------------------------------------
#psi4
#
memory 32 gb

molecule  {
0 1
  O       -1.9756670     1.6664010     0.1857370
  O        1.6511300    -1.1930600    -0.6768240
  O       -3.2820610    -0.0444860    -0.5140140
  N        0.2152580     0.2772540     0.2951010
  C       -0.9464590    -0.4858680    -0.1100250
  C       -1.1260286    -1.7110447     0.7893733
  C        2.5941300     0.7851170     0.3678910
  C        1.4652130    -0.1360080    -0.0663740
  C       -2.1503897     0.4189878    -0.2296967
  C        3.9493650     0.2879730    -0.1118860
  H       -0.7666830    -0.8628490    -1.1247510
  H        0.0773990     1.1958980     0.6978160
  H       -1.3680630    -1.3508140     1.8303240
  H       -2.0758160    -2.2433210     0.4601180
  H       -0.3237180    -2.3338760     0.7750620
  H        2.3897550     1.7945520    -0.0146150
  H        2.5759940     0.8629050     1.4619760
  H        4.1547340    -0.7097650     0.2816620
  H        3.9712690     0.2233490    -1.2012200
  H        4.7420490     0.9661550     0.2171920
  H       -2.8492950     2.1039740     0.1058080
units angstrom
no_reorient  #important for SAPT in psi4, default
symmetry c1  #important for SAPT in psi4, default
}

set PROPERTIES_ORIGIN ["COM"]
properties('MP2/aug-cc-pvtz', properties = ['dipole'])
--------------------------------------------------------------------------

    Molecular point group: c1
  Charge       = 0
  Multiplicity = 1
  Basis Set: AUG-CC-PVTZ
    Blend: AUG-CC-PVTZ
  Basis Set: (AUG-CC-PVTZ AUX)
    Blend: AUG-CC-PVTZ-JKFIT

    Orbital Energies [Eh]
    ---------------------

    Doubly Occupied:

       1A    -20.648345     2A    -20.556924     3A    -20.524962
       4A    -15.591687     5A    -11.409667     6A    -11.356152
       7A    -11.297079     8A    -11.247846     9A    -11.228331
      10A    -11.219795    11A     -1.492174    12A     -1.381049
      13A     -1.353991    14A     -1.246486    15A     -1.074384
      16A     -1.033995    17A     -0.935692    18A     -0.887597
      19A     -0.825826    20A     -0.795094    21A     -0.732226
      22A     -0.717520    23A     -0.684159    24A     -0.668590
      25A     -0.642748    26A     -0.632119    27A     -0.609235
      28A     -0.601129    29A     -0.580373    30A     -0.562777
      31A     -0.536062    32A     -0.519950    33A     -0.518785
      34A     -0.513069    35A     -0.494070    36A     -0.479593
      37A     -0.463241    38A     -0.428961    39A     -0.400072

  @DF-RHF Final Energy:  -512.87010398515190

   => Energetics <=

    Nuclear Repulsion Energy =            548.2703854428389150
    One-Electron Energy =               -1788.4974742571323532
    Two-Electron Energy =                 727.3569848291415383
    Total Energy =                       -512.8701039851518999
  Basis Set: (AUG-CC-PVTZ AUX)
    Blend: AUG-CC-PVTZ-RI
    Molecular point group: c1

    Geometry (in Angstrom), charge = 0, multiplicity = 1:

       Center              X                  Y                   Z               Mass
    ------------   -----------------  -----------------  -----------------  -----------------
         O           -1.985089915464     1.664365953247     0.190948936291    15.994914619570
         O            1.641707084536    -1.195095046753    -0.671612063709    15.994914619570
         O           -3.291483915464    -0.046521046753    -0.508802063709    15.994914619570
         N            0.205835084536     0.275218953247     0.300312936291    14.003074004430
         C           -0.955881915464    -0.487903046753    -0.104813063709    12.000000000000
         C           -1.135451515464    -1.713079746753     0.794585236291    12.000000000000
         C            2.584707084536     0.783081953247     0.373102936291    12.000000000000
         C            1.455790084536    -0.138043046753    -0.061162063709    12.000000000000
         C           -2.159812615464     0.416952753247    -0.224484763709    12.000000000000
         C            3.939942084536     0.285937953247    -0.106674063709    12.000000000000
         H           -0.776105915464    -0.864884046753    -1.119539063709     1.007825032230
         H            0.067976084536     1.193862953247     0.703027936291     1.007825032230
         H           -1.377485915464    -1.352849046753     1.835535936291     1.007825032230
         H           -2.085238915464    -2.245356046753     0.465329936291     1.007825032230
         H           -0.333140915464    -2.335911046753     0.780273936291     1.007825032230
         H            2.380332084536     1.792516953247    -0.009403063709     1.007825032230
         H            2.566571084536     0.860869953247     1.467187936291     1.007825032230
         H            4.145311084536    -0.711800046753     0.286873936291     1.007825032230
         H            3.961846084536     0.221313953247    -1.196008063709     1.007825032230
         H            4.732626084536     0.964119953247     0.222403936291     1.007825032230
         H           -2.858717915464     2.101938953247     0.111019936291     1.007825032230

  Basis Set: AUG-CC-PVTZ
    Blend: AUG-CC-PVTZ
  Basis Set: (AUG-CC-PVTZ AUX)
    Blend: AUG-CC-PVTZ-JKFIT
	 Reference Energy          =    -512.8701039851518999 [Eh]
	 Singles Energy            =      -0.0000000000000000 [Eh]
	 Same-Spin Energy          =      -0.5121743600588282 [Eh]
	 Opposite-Spin Energy      =      -1.6166668998210532 [Eh]
	 Correlation Energy        =      -2.1288412598798816 [Eh]
	 Total Energy              =    -514.9989452450317913 [Eh]

	 ================> DF-SCS-MP2 Energies <==================
	-----------------------------------------------------------
	 SCS Same-Spin Scale       =       0.3333333333333333 [-]
	 SCS Opposite-Spin Scale   =       1.2000000000000000 [-]
	 SCS Same-Spin Energy      =      -0.1707247866862761 [Eh]
	 SCS Opposite-Spin Energy  =      -1.9400002797852638 [Eh]
	 SCS Correlation Energy    =      -2.1107250664715398 [Eh]
	 SCS Total Energy          =    -514.9808290516234592 [Eh]
	-----------------------------------------------------------

  Dipole Moment: [D]
     X:     0.1056      Y:     3.6059      Z:     1.9916     Total:     4.1207

*** Psi4 exiting successfully. Buy a developer a beer!
