                               Psi4 1.4a3.dev225

  ==> Input File <==

--------------------------------------------------------------------------
#psi4
#
memory 32 gb

molecule  {
0 1
  O        2.1858500    -1.4843500     0.4466430
  O       -1.5901990     1.2021140    -0.7742790
  O        3.2899360     0.0893000    -0.7567370
  N       -0.1552130    -0.3501220     0.0655300
  C        0.9973750     0.5138300    -0.1038320
  C        1.1366130     1.5332170     1.0331740
  C       -2.5208420    -0.9251940    -0.0919400
  C       -1.4008270     0.0814870    -0.2899980
  C        2.2294699    -0.3068718    -0.1894743
  C       -3.8280260    -0.2360070     0.2837800
  H        0.8752740     1.0541530    -1.0466610
  H       -0.0274960    -1.2421660     0.5250420
  H        1.2555520     1.0181310     1.9903510
  H        2.0023980     2.1787030     0.8613650
  H        0.2327940     2.1443920     1.0604580
  H       -2.6404080    -1.4674310    -1.0380590
  H       -2.2372030    -1.6677960     0.6628800
  H       -3.7417830     0.2575120     1.2553170
  H       -4.0728600     0.5241080    -0.4590610
  H       -4.6456460    -0.9595500     0.3374610
  H        3.0673500    -1.9023430     0.3513230
units angstrom
no_reorient  #important for SAPT in psi4, default
symmetry c1  #important for SAPT in psi4, default
}

set PROPERTIES_ORIGIN ["COM"]
properties('MP2/aug-cc-pvtz', properties = ['dipole'])
--------------------------------------------------------------------------

    Molecular point group: c1
  Charge       = 0
  Multiplicity = 1
  Basis Set: AUG-CC-PVTZ
    Blend: AUG-CC-PVTZ
  Basis Set: (AUG-CC-PVTZ AUX)
    Blend: AUG-CC-PVTZ-JKFIT

    Orbital Energies [Eh]
    ---------------------

    Doubly Occupied:

       1A    -20.642890     2A    -20.555903     3A    -20.524347
       4A    -15.597777     5A    -11.407962     6A    -11.358410
       7A    -11.297926     8A    -11.248916     9A    -11.234968
      10A    -11.223351    11A     -1.482167    12A     -1.381164
      13A     -1.345269    14A     -1.249504    15A     -1.080005
      16A     -1.040439    17A     -0.934907    18A     -0.889719
      19A     -0.831089    20A     -0.797471    21A     -0.730706
      22A     -0.713207    23A     -0.681601    24A     -0.664179
      25A     -0.643124    26A     -0.633051    27A     -0.604586
      28A     -0.600749    29A     -0.586424    30A     -0.557253
      31A     -0.548947    32A     -0.529769    33A     -0.524599
      34A     -0.514119    35A     -0.495029    36A     -0.475413
      37A     -0.466797    38A     -0.429030    39A     -0.402214

  @DF-RHF Final Energy:  -512.87845358061816

   => Energetics <=

    Nuclear Repulsion Energy =            548.1197699454130543
    One-Electron Energy =               -1788.1464840274904873
    Two-Electron Energy =                 727.1482605014592764
    Total Energy =                       -512.8784535806181566
  Basis Set: (AUG-CC-PVTZ AUX)
    Blend: AUG-CC-PVTZ-RI
    Molecular point group: c1

    Geometry (in Angstrom), charge = 0, multiplicity = 1:

       Center              X                  Y                   Z               Mass
    ------------   -----------------  -----------------  -----------------  -----------------
         O            2.121527044710    -1.483481345285     0.475529546835    15.994914619570
         O           -1.654521955290     1.202982654715    -0.745392453165    15.994914619570
         O            3.225613044710     0.090168654715    -0.727850453165    15.994914619570
         N           -0.219535955290    -0.349253345285     0.094416546835    14.003074004430
         C            0.933052044710     0.514698654715    -0.074945453165    12.000000000000
         C            1.072290044710     1.534085654715     1.062060546835    12.000000000000
         C           -2.585164955290    -0.924325345285    -0.063053453165    12.000000000000
         C           -1.465149955290     0.082355654715    -0.261111453165    12.000000000000
         C            2.165146944710    -0.306003145285    -0.160587753165    12.000000000000
         C           -3.892348955290    -0.235138345285     0.312666546835    12.000000000000
         H            0.810951044710     1.055021654715    -1.017774453165     1.007825032230
         H           -0.091818955290    -1.241297345285     0.553928546835     1.007825032230
         H            1.191229044710     1.018999654715     2.019237546835     1.007825032230
         H            1.938075044710     2.179571654715     0.890251546835     1.007825032230
         H            0.168471044710     2.145260654715     1.089344546835     1.007825032230
         H           -2.704730955290    -1.466562345285    -1.009172453165     1.007825032230
         H           -2.301525955290    -1.666927345285     0.691766546835     1.007825032230
         H           -3.806105955290     0.258380654715     1.284203546835     1.007825032230
         H           -4.137182955290     0.524976654715    -0.430174453165     1.007825032230
         H           -4.709968955290    -0.958681345285     0.366347546835     1.007825032230
         H            3.003027044710    -1.901474345285     0.380209546835     1.007825032230

  Basis Set: AUG-CC-PVTZ
    Blend: AUG-CC-PVTZ
  Basis Set: (AUG-CC-PVTZ AUX)
    Blend: AUG-CC-PVTZ-JKFIT
	 Reference Energy          =    -512.8784535806181566 [Eh]
	 Singles Energy            =      -0.0000000000000000 [Eh]
	 Same-Spin Energy          =      -0.5122606150278037 [Eh]
	 Opposite-Spin Energy      =      -1.6169670357521500 [Eh]
	 Correlation Energy        =      -2.1292276507799537 [Eh]
	 Total Energy              =    -515.0076812313981236 [Eh]

	 ================> DF-SCS-MP2 Energies <==================
	-----------------------------------------------------------
	 SCS Same-Spin Scale       =       0.3333333333333333 [-]
	 SCS Opposite-Spin Scale   =       1.2000000000000000 [-]
	 SCS Same-Spin Energy      =      -0.1707535383426012 [Eh]
	 SCS Opposite-Spin Energy  =      -1.9403604429025798 [Eh]
	 SCS Correlation Energy    =      -2.1111139812451811 [Eh]
	 SCS Total Energy          =    -514.9895675618632822 [Eh]
	-----------------------------------------------------------

  Dipole Moment: [D]
     X:    -0.1321      Y:    -3.4296      Z:     2.4747     Total:     4.2313

*** Psi4 exiting successfully. Buy a developer a beer!
