                               Psi4 1.3.2 release

  ==> Input File <==

--------------------------------------------------------------------------
#psi4
#
memory 32 gb

molecule  {
0 1
  O       -1.9756670     1.6664010     0.1857370
  O        1.6511300    -1.1930600    -0.6768240
  O       -3.2820610    -0.0444860    -0.5140140
  N        0.2223276     0.2668137     0.2942977
  C       -0.9464590    -0.4858680    -0.1100250
  C       -1.2010820    -1.6869190     0.8036840
  C        2.5941300     0.7851170     0.3678910
  C        1.4652130    -0.1360080    -0.0663740
  C       -2.1962365     0.3597149    -0.1847260
  C        3.9493650     0.2879730    -0.1118860
  H       -0.7666830    -0.8628490    -1.1247510
  H        0.0773990     1.1958980     0.6978160
  H       -1.3680630    -1.3508140     1.8303240
  H       -2.0758160    -2.2433210     0.4601180
  H       -0.3237180    -2.3338760     0.7750620
  H        2.3897550     1.7945520    -0.0146150
  H        2.5759940     0.8629050     1.4619760
  H        4.1547340    -0.7097650     0.2816620
  H        3.9712690     0.2233490    -1.2012200
  H        4.7420490     0.9661550     0.2171920
  H       -2.8492950     2.1039740     0.1058080
units angstrom
no_reorient  #important for SAPT in psi4, default
symmetry c1  #important for SAPT in psi4, default
}

set PROPERTIES_ORIGIN ["COM"]
properties('MP2/aug-cc-pvtz', properties = ['dipole'])
--------------------------------------------------------------------------

    Molecular point group: c1
  Charge       = 0
  Multiplicity = 1
  Basis Set: AUG-CC-PVTZ
    Blend: AUG-CC-PVTZ
  Basis Set: (AUG-CC-PVTZ AUX)
    Blend: AUG-CC-PVTZ-JKFIT

    Orbital Energies [Eh]
    ---------------------

    Doubly Occupied:

       1A    -20.632938     2A    -20.566935     3A    -20.522449
       4A    -15.593456     5A    -11.404909     6A    -11.354428
       7A    -11.296781     8A    -11.247160     9A    -11.227228
      10A    -11.219122    11A     -1.476836    12A     -1.380783
      13A     -1.377676    14A     -1.245516    15A     -1.075424
      16A     -1.036089    17A     -0.927048    18A     -0.884836
      19A     -0.813636    20A     -0.792120    21A     -0.730984
      22A     -0.714385    23A     -0.682736    24A     -0.665536
      25A     -0.641088    26A     -0.633842    27A     -0.611985
      28A     -0.601438    29A     -0.580188    30A     -0.546819
      31A     -0.544736    32A     -0.523350    33A     -0.520788
      34A     -0.518827    35A     -0.499796    36A     -0.489124
      37A     -0.468899    38A     -0.428052    39A     -0.400125

  @DF-RHF Final Energy:  -512.88597038253806

   => Energetics <=

    Nuclear Repulsion Energy =            548.2922747981951943
    One-Electron Energy =               -1788.6003527203695285
    Two-Electron Energy =                 727.4221075396362721
    Total Energy =                       -512.8859703825380620
  Basis Set: (AUG-CC-PVTZ AUX)
    Blend: AUG-CC-PVTZ-RI
    Molecular point group: c1

    Geometry (in Angstrom), charge = 0, multiplicity = 1:

       Center              X                  Y                   Z               Mass
    ------------   -----------------  -----------------  -----------------  -----------------
         O           -1.975771862174     1.668280942229     0.186122925800    15.994914619570
         O            1.651025137826    -1.191180057771    -0.676438074200    15.994914619570
         O           -3.282165862174    -0.042606057771    -0.513628074200    15.994914619570
         N            0.222222737826     0.268693642229     0.294683625800    14.003074004430
         C           -0.946563862174    -0.483988057771    -0.109639074200    12.000000000000
         C           -1.201186862174    -1.685039057771     0.804069925800    12.000000000000
         C            2.594025137826     0.786996942229     0.368276925800    12.000000000000
         C            1.465108137826    -0.134128057771    -0.065988074200    12.000000000000
         C           -2.196341362174     0.361594842229    -0.184340074200    12.000000000000
         C            3.949260137826     0.289852942229    -0.111500074200    12.000000000000
         H           -0.766787862174    -0.860969057771    -1.124365074200     1.007825032230
         H            0.077294137826     1.197777942229     0.698201925800     1.007825032230
         H           -1.368167862174    -1.348934057771     1.830709925800     1.007825032230
         H           -2.075920862174    -2.241441057771     0.460503925800     1.007825032230
         H           -0.323822862174    -2.331996057771     0.775447925800     1.007825032230
         H            2.389650137826     1.796431942229    -0.014229074200     1.007825032230
         H            2.575889137826     0.864784942229     1.462361925800     1.007825032230
         H            4.154629137826    -0.707885057771     0.282047925800     1.007825032230
         H            3.971164137826     0.225228942229    -1.200834074200     1.007825032230
         H            4.741944137826     0.968034942229     0.217577925800     1.007825032230
         H           -2.849399862174     2.105853942229     0.106193925800     1.007825032230

  Basis Set: AUG-CC-PVTZ
    Blend: AUG-CC-PVTZ
  Basis Set: (AUG-CC-PVTZ AUX)
    Blend: AUG-CC-PVTZ-JKFIT
	 Reference Energy          =    -512.8859703825380620 [Eh]
	 Singles Energy            =      -0.0000000000000000 [Eh]
	 Same-Spin Energy          =      -0.5112921091152456 [Eh]
	 Opposite-Spin Energy      =      -1.6148005594888963 [Eh]
	 Correlation Energy        =      -2.1260926686041417 [Eh]
	 Total Energy              =    -515.0120630511421496 [Eh]

	 ================> DF-SCS-MP2 Energies <==================
	-----------------------------------------------------------
	 SCS Same-Spin Scale       =       0.3333333333333333 [-]
	 SCS Opposite-Spin Scale   =       1.2000000000000000 [-]
	 SCS Same-Spin Energy      =      -0.1704307030384152 [Eh]
	 SCS Opposite-Spin Energy  =      -1.9377606713866755 [Eh]
	 SCS Correlation Energy    =      -2.1081913744250906 [Eh]
	 SCS Total Energy          =    -514.9941617569631944 [Eh]
	-----------------------------------------------------------

  Dipole Moment: [D]
     X:    -0.1492      Y:     3.2580      Z:     1.9403     Total:     3.7950

*** Psi4 exiting successfully. Buy a developer a beer!
