                               Psi4 1.3.2 release

  ==> Input File <==

--------------------------------------------------------------------------
#psi4
#
memory 32 gb

molecule  {
0 1
  O       -1.9756670     1.6664010     0.1857370
  O        1.6511300    -1.1930600    -0.6768240
  O       -3.2820610    -0.0444860    -0.5140140
  N        0.2152580     0.2772540     0.2951010
  C       -0.9464590    -0.4858680    -0.1100250
  C       -1.2010820    -1.6869190     0.8036840
  C        2.5941300     0.7851170     0.3678910
  C        1.4652130    -0.1360080    -0.0663740
  C       -2.1892550     0.3702600    -0.1810000
  C        3.9493650     0.2879730    -0.1118860
  H       -0.7666830    -0.8628490    -1.1247510
  H        0.0773990     1.1958980     0.6978160
  H       -1.3680630    -1.3508140     1.8303240
  H       -2.0758160    -2.2433210     0.4601180
  H       -0.3237180    -2.3338760     0.7750620
  H        2.3897550     1.7945520    -0.0146150
  H        2.5759940     0.8629050     1.4619760
  H        4.1547340    -0.7097650     0.2816620
  H        3.9712690     0.2233490    -1.2012200
  H        4.7420490     0.9661550     0.2171920
  H       -2.9384090     2.1486084     0.0976549
units angstrom
no_reorient  #important for SAPT in psi4, default
symmetry c1  #important for SAPT in psi4, default
}

set PROPERTIES_ORIGIN ["COM"]
properties('MP2/aug-cc-pvtz', properties = ['dipole'])
--------------------------------------------------------------------------

    Molecular point group: c1
  Charge       = 0
  Multiplicity = 1
  Basis Set: AUG-CC-PVTZ
    Blend: AUG-CC-PVTZ
  Basis Set: (AUG-CC-PVTZ AUX)
    Blend: AUG-CC-PVTZ-JKFIT

    Orbital Energies [Eh]
    ---------------------

    Doubly Occupied:

       1A    -20.640729     2A    -20.561817     3A    -20.524102
       4A    -15.591744     5A    -11.402774     6A    -11.355630
       7A    -11.295976     8A    -11.247164     9A    -11.226332
      10A    -11.219195    11A     -1.465984    12A     -1.380154
      13A     -1.364646    14A     -1.244254    15A     -1.073896
      16A     -1.034766    17A     -0.922870    18A     -0.882446
      19A     -0.806010    20A     -0.790356    21A     -0.728614
      22A     -0.703815    23A     -0.680993    24A     -0.663751
      25A     -0.640266    26A     -0.631296    27A     -0.604244
      28A     -0.601370    29A     -0.580084    30A     -0.545541
      31A     -0.541525    32A     -0.523658    33A     -0.519744
      34A     -0.518490    35A     -0.496034    36A     -0.487062
      37A     -0.466255    38A     -0.428248    39A     -0.399602

  @DF-RHF Final Energy:  -512.87279600247700

   => Energetics <=

    Nuclear Repulsion Energy =            547.5863337422621271
    One-Electron Energy =               -1787.3353877648517027
    Two-Electron Energy =                 726.8762580201124592
    Total Energy =                       -512.8727960024770027
  Basis Set: (AUG-CC-PVTZ AUX)
    Blend: AUG-CC-PVTZ-RI
    Molecular point group: c1

    Geometry (in Angstrom), charge = 0, multiplicity = 1:

       Center              X                  Y                   Z               Mass
    ------------   -----------------  -----------------  -----------------  -----------------
         O           -1.975047890069     1.666090877896     0.185793826125    15.994914619570
         O            1.651749109931    -1.193370122104    -0.676767173875    15.994914619570
         O           -3.281441890069    -0.044796122104    -0.513957173875    15.994914619570
         N            0.215877109931     0.276943877896     0.295157826125    14.003074004430
         C           -0.945839890069    -0.486178122104    -0.109968173875    12.000000000000
         C           -1.200462890069    -1.687229122104     0.803740826125    12.000000000000
         C            2.594749109931     0.784806877896     0.367947826125    12.000000000000
         C            1.465832109931    -0.136318122104    -0.066317173875    12.000000000000
         C           -2.188635890069     0.369949877896    -0.180943173875    12.000000000000
         C            3.949984109931     0.287662877896    -0.111829173875    12.000000000000
         H           -0.766063890069    -0.863159122104    -1.124694173875     1.007825032230
         H            0.078018109931     1.195587877896     0.697872826125     1.007825032230
         H           -1.367443890069    -1.351124122104     1.830380826125     1.007825032230
         H           -2.075196890069    -2.243631122104     0.460174826125     1.007825032230
         H           -0.323098890069    -2.334186122104     0.775118826125     1.007825032230
         H            2.390374109931     1.794241877896    -0.014558173875     1.007825032230
         H            2.576613109931     0.862594877896     1.462032826125     1.007825032230
         H            4.155353109931    -0.710075122104     0.281718826125     1.007825032230
         H            3.971888109931     0.223038877896    -1.201163173875     1.007825032230
         H            4.742668109931     0.965844877896     0.217248826125     1.007825032230
         H           -2.937789890069     2.148298277896     0.097711726125     1.007825032230

  Basis Set: AUG-CC-PVTZ
    Blend: AUG-CC-PVTZ
  Basis Set: (AUG-CC-PVTZ AUX)
    Blend: AUG-CC-PVTZ-JKFIT
	 Reference Energy          =    -512.8727960024770027 [Eh]
	 Singles Energy            =      -0.0000000000000000 [Eh]
	 Same-Spin Energy          =      -0.5126803488547425 [Eh]
	 Opposite-Spin Energy      =      -1.6180913985588838 [Eh]
	 Correlation Energy        =      -2.1307717474136263 [Eh]
	 Total Energy              =    -515.0035677498906352 [Eh]

	 ================> DF-SCS-MP2 Energies <==================
	-----------------------------------------------------------
	 SCS Same-Spin Scale       =       0.3333333333333333 [-]
	 SCS Opposite-Spin Scale   =       1.2000000000000000 [-]
	 SCS Same-Spin Energy      =      -0.1708934496182475 [Eh]
	 SCS Opposite-Spin Energy  =      -1.9417096782706604 [Eh]
	 SCS Correlation Energy    =      -2.1126031278889079 [Eh]
	 SCS Total Energy          =    -514.9853991303658631 [Eh]
	-----------------------------------------------------------

  Dipole Moment: [D]
     X:    -0.1475      Y:     3.3980      Z:     1.9596     Total:     3.9254

*** Psi4 exiting successfully. Buy a developer a beer!
