                               Psi4 1.4a3.dev225

  ==> Input File <==

--------------------------------------------------------------------------
#psi4
#
memory 32 gb

molecule  {
0 1
  O        2.1858500    -1.4843500     0.4466430
  O       -1.5901990     1.2021140    -0.7742790
  O        3.2899360     0.0893000    -0.7567370
  N       -0.1552130    -0.3501220     0.0655300
  C        1.0371094     0.5436140    -0.1096706
  C        1.1366130     1.5332170     1.0331740
  C       -2.5208420    -0.9251940    -0.0919400
  C       -1.4008270     0.0814870    -0.2899980
  C        2.2713450    -0.2912280    -0.2118740
  C       -3.8280260    -0.2360070     0.2837800
  H        0.8752740     1.0541530    -1.0466610
  H       -0.0274960    -1.2421660     0.5250420
  H        1.2555520     1.0181310     1.9903510
  H        2.0023980     2.1787030     0.8613650
  H        0.2327940     2.1443920     1.0604580
  H       -2.6404080    -1.4674310    -1.0380590
  H       -2.2372030    -1.6677960     0.6628800
  H       -3.7417830     0.2575120     1.2553170
  H       -4.0728600     0.5241080    -0.4590610
  H       -4.6456460    -0.9595500     0.3374610
  H        3.0673500    -1.9023430     0.3513230
units angstrom
no_reorient  #important for SAPT in psi4, default
symmetry c1  #important for SAPT in psi4, default
}

set PROPERTIES_ORIGIN ["COM"]
properties('MP2/aug-cc-pvtz', properties = ['dipole'])
--------------------------------------------------------------------------

    Molecular point group: c1
  Charge       = 0
  Multiplicity = 1
  Basis Set: AUG-CC-PVTZ
    Blend: AUG-CC-PVTZ
  Basis Set: (AUG-CC-PVTZ AUX)
    Blend: AUG-CC-PVTZ-JKFIT

    Orbital Energies [Eh]
    ---------------------

    Doubly Occupied:

       1A    -20.636196     2A    -20.565979     3A    -20.520274
       4A    -15.593622     5A    -11.404826     6A    -11.354682
       7A    -11.298189     8A    -11.246282     9A    -11.234045
      10A    -11.221348    11A     -1.478033    12A     -1.376266
      13A     -1.374244    14A     -1.235302    15A     -1.078258
      16A     -1.039647    17A     -0.929903    18A     -0.885047
      19A     -0.822779    20A     -0.790079    21A     -0.725204
      22A     -0.715223    23A     -0.676572    24A     -0.662739
      25A     -0.642719    26A     -0.633729    27A     -0.613579
      28A     -0.598392    29A     -0.581088    30A     -0.556055
      31A     -0.554388    32A     -0.529824    33A     -0.521181
      34A     -0.511602    35A     -0.497787    36A     -0.488931
      37A     -0.471024    38A     -0.424965    39A     -0.400832

  @DF-RHF Final Energy:  -512.88407230411224

   => Energetics <=

    Nuclear Repulsion Energy =            547.4689816819472981
    One-Electron Energy =               -1786.9244361989306071
    Two-Electron Energy =                 726.5713822128710717
    Total Energy =                       -512.8840723041122374
  Basis Set: (AUG-CC-PVTZ AUX)
    Blend: AUG-CC-PVTZ-RI
    Molecular point group: c1

    Geometry (in Angstrom), charge = 0, multiplicity = 1:

       Center              X                  Y                   Z               Mass
    ------------   -----------------  -----------------  -----------------  -----------------
         O            2.114776595140    -1.487238972435     0.477865319265    15.994914619570
         O           -1.661272404860     1.199225027565    -0.743056680735    15.994914619570
         O            3.218862595140     0.086411027565    -0.725514680735    15.994914619570
         N           -0.226286404860    -0.353010972435     0.096752319265    14.003074004430
         C            0.966035995140     0.540725027565    -0.078448280735    12.000000000000
         C            1.065539595140     1.530328027565     1.064396319265    12.000000000000
         C           -2.591915404860    -0.928082972435    -0.060717680735    12.000000000000
         C           -1.471900404860     0.078598027565    -0.258775680735    12.000000000000
         C            2.200271595140    -0.294116972435    -0.180651680735    12.000000000000
         C           -3.899099404860    -0.238895972435     0.315002319265    12.000000000000
         H            0.804200595140     1.051264027565    -1.015438680735     1.007825032230
         H           -0.098569404860    -1.245054972435     0.556264319265     1.007825032230
         H            1.184478595140     1.015242027565     2.021573319265     1.007825032230
         H            1.931324595140     2.175814027565     0.892587319265     1.007825032230
         H            0.161720595140     2.141503027565     1.091680319265     1.007825032230
         H           -2.711481404860    -1.470319972435    -1.006836680735     1.007825032230
         H           -2.308276404860    -1.670684972435     0.694102319265     1.007825032230
         H           -3.812856404860     0.254623027565     1.286539319265     1.007825032230
         H           -4.143933404860     0.521219027565    -0.427838680735     1.007825032230
         H           -4.716719404860    -0.962438972435     0.368683319265     1.007825032230
         H            2.996276595140    -1.905231972435     0.382545319265     1.007825032230

  Basis Set: AUG-CC-PVTZ
    Blend: AUG-CC-PVTZ
  Basis Set: (AUG-CC-PVTZ AUX)
    Blend: AUG-CC-PVTZ-JKFIT
	 Reference Energy          =    -512.8840723041122374 [Eh]
	 Singles Energy            =      -0.0000000000000000 [Eh]
	 Same-Spin Energy          =      -0.5110660611642213 [Eh]
	 Opposite-Spin Energy      =      -1.6152791465410639 [Eh]
	 Correlation Energy        =      -2.1263452077052851 [Eh]
	 Total Energy              =    -515.0104175118175363 [Eh]

	 ================> DF-SCS-MP2 Energies <==================
	-----------------------------------------------------------
	 SCS Same-Spin Scale       =       0.3333333333333333 [-]
	 SCS Opposite-Spin Scale   =       1.2000000000000000 [-]
	 SCS Same-Spin Energy      =      -0.1703553537214071 [Eh]
	 SCS Opposite-Spin Energy  =      -1.9383349758492765 [Eh]
	 SCS Correlation Energy    =      -2.1086903295706834 [Eh]
	 SCS Total Energy          =    -514.9927626336829007 [Eh]
	-----------------------------------------------------------

  Dipole Moment: [D]
     X:     0.2829      Y:    -3.2281      Z:     2.3191     Total:     3.9849

*** Psi4 exiting successfully. Buy a developer a beer!
