                               Psi4 1.3.2 release

  ==> Input File <==

--------------------------------------------------------------------------
#psi4
#
memory 32 gb

molecule  {
0 1
  O       -1.9756670     1.6664010     0.1857370
  O        1.7144902    -1.1802566    -0.6762748
  O       -3.2820610    -0.0444860    -0.5140140
  N        0.2449658     0.3352657     0.3244393
  C       -0.9464590    -0.4858680    -0.1100250
  C       -1.2010820    -1.6869190     0.8036840
  C        2.5941300     0.7851170     0.3678910
  C        1.4652130    -0.1360080    -0.0663740
  C       -2.1892550     0.3702600    -0.1810000
  C        3.9493650     0.2879730    -0.1118860
  H       -0.7666830    -0.8628490    -1.1247510
  H        0.0773990     1.1958980     0.6978160
  H       -1.3680630    -1.3508140     1.8303240
  H       -2.0758160    -2.2433210     0.4601180
  H       -0.3237180    -2.3338760     0.7750620
  H        2.3897550     1.7945520    -0.0146150
  H        2.5759940     0.8629050     1.4619760
  H        4.1547340    -0.7097650     0.2816620
  H        3.9712690     0.2233490    -1.2012200
  H        4.7420490     0.9661550     0.2171920
  H       -2.8492950     2.1039740     0.1058080
units angstrom
no_reorient  #important for SAPT in psi4, default
symmetry c1  #important for SAPT in psi4, default
}

set PROPERTIES_ORIGIN ["COM"]
properties('MP2/aug-cc-pvtz', properties = ['dipole'])
--------------------------------------------------------------------------

    Molecular point group: c1
  Charge       = 0
  Multiplicity = 1
  Basis Set: AUG-CC-PVTZ
    Blend: AUG-CC-PVTZ
  Basis Set: (AUG-CC-PVTZ AUX)
    Blend: AUG-CC-PVTZ-JKFIT

    Orbital Energies [Eh]
    ---------------------

    Doubly Occupied:

       1A    -20.637445     2A    -20.565756     3A    -20.528323
       4A    -15.593464     5A    -11.406666     6A    -11.357454
       7A    -11.303525     8A    -11.240385     9A    -11.231232
      10A    -11.214952    11A     -1.479966    12A     -1.379409
      13A     -1.375314    14A     -1.246207    15A     -1.074237
      16A     -1.035451    17A     -0.928679    18A     -0.882984
      19A     -0.824830    20A     -0.799299    21A     -0.724377
      22A     -0.718021    23A     -0.678193    24A     -0.668360
      25A     -0.639274    26A     -0.634404    27A     -0.613907
      28A     -0.605976    29A     -0.578524    30A     -0.548525
      31A     -0.545445    32A     -0.522328    33A     -0.518065
      34A     -0.515078    35A     -0.496789    36A     -0.488434
      37A     -0.469618    38A     -0.425905    39A     -0.408463

  @DF-RHF Final Energy:  -512.87794080034064

   => Energetics <=

    Nuclear Repulsion Energy =            546.9857239179327735
    One-Electron Energy =               -1785.9167980792315120
    Two-Electron Energy =                 726.0531333609580997
    Total Energy =                       -512.8779408003406388
  Basis Set: (AUG-CC-PVTZ AUX)
    Blend: AUG-CC-PVTZ-RI
    Molecular point group: c1

    Geometry (in Angstrom), charge = 0, multiplicity = 1:

       Center              X                  Y                   Z               Mass
    ------------   -----------------  -----------------  -----------------  -----------------
         O           -1.985520159044     1.659389825550     0.182844793174    15.994914619570
         O            1.704637040956    -1.187267774450    -0.679167006826    15.994914619570
         O           -3.291914159044    -0.051497174450    -0.516906206826    15.994914619570
         N            0.235112640956     0.328254525550     0.321547093174    14.003074004430
         C           -0.956312159044    -0.492879174450    -0.112917206826    12.000000000000
         C           -1.210935159044    -1.693930174450     0.800791793174    12.000000000000
         C            2.584276840956     0.778105825550     0.364998793174    12.000000000000
         C            1.455359840956    -0.143019174450    -0.069266206826    12.000000000000
         C           -2.199108159044     0.363248825550    -0.183892206826    12.000000000000
         C            3.939511840956     0.280961825550    -0.114778206826    12.000000000000
         H           -0.776536159044    -0.869860174450    -1.127643206826     1.007825032230
         H            0.067545840956     1.188886825550     0.694923793174     1.007825032230
         H           -1.377916159044    -1.357825174450     1.827431793174     1.007825032230
         H           -2.085669159044    -2.250332174450     0.457225793174     1.007825032230
         H           -0.333571159044    -2.340887174450     0.772169793174     1.007825032230
         H            2.379901840956     1.787540825550    -0.017507206826     1.007825032230
         H            2.566140840956     0.855893825550     1.459083793174     1.007825032230
         H            4.144880840956    -0.716776174450     0.278769793174     1.007825032230
         H            3.961415840956     0.216337825550    -1.204112206826     1.007825032230
         H            4.732195840956     0.959143825550     0.214299793174     1.007825032230
         H           -2.859148159044     2.096962825550     0.102915793174     1.007825032230

  Basis Set: AUG-CC-PVTZ
    Blend: AUG-CC-PVTZ
  Basis Set: (AUG-CC-PVTZ AUX)
    Blend: AUG-CC-PVTZ-JKFIT
	 Reference Energy          =    -512.8779408003406388 [Eh]
	 Singles Energy            =      -0.0000000000000000 [Eh]
	 Same-Spin Energy          =      -0.5109049404777788 [Eh]
	 Opposite-Spin Energy      =      -1.6149512470270146 [Eh]
	 Correlation Energy        =      -2.1258561875047937 [Eh]
	 Total Energy              =    -515.0037969878454760 [Eh]

	 ================> DF-SCS-MP2 Energies <==================
	-----------------------------------------------------------
	 SCS Same-Spin Scale       =       0.3333333333333333 [-]
	 SCS Opposite-Spin Scale   =       1.2000000000000000 [-]
	 SCS Same-Spin Energy      =      -0.1703016468259262 [Eh]
	 SCS Opposite-Spin Energy  =      -1.9379414964324175 [Eh]
	 SCS Correlation Energy    =      -2.1082431432583437 [Eh]
	 SCS Total Energy          =    -514.9861839435990305 [Eh]
	-----------------------------------------------------------

  Dipole Moment: [D]
     X:    -0.3973      Y:     3.1194      Z:     1.9081     Total:     3.6782

*** Psi4 exiting successfully. Buy a developer a beer!
