                               Psi4 1.3.2 release

  ==> Input File <==

--------------------------------------------------------------------------
#psi4
#
memory 32 gb

molecule  {
0 1
  O       -1.9756670     1.6664010     0.1857370
  O        1.6617301    -1.1911265    -0.6768487
  O       -3.2820610    -0.0444860    -0.5140140
  N        0.2199735     0.2870056     0.3000617
  C       -0.9464590    -0.4858680    -0.1100250
  C       -1.2010820    -1.6869190     0.8036840
  C        2.5941300     0.7851170     0.3678910
  C        1.4652130    -0.1360080    -0.0663740
  C       -2.1892550     0.3702600    -0.1810000
  C        3.9493650     0.2879730    -0.1118860
  H       -0.7666830    -0.8628490    -1.1247510
  H        0.0773990     1.1958980     0.6978160
  H       -1.3680630    -1.3508140     1.8303240
  H       -2.0758160    -2.2433210     0.4601180
  H       -0.3237180    -2.3338760     0.7750620
  H        2.3897550     1.7945520    -0.0146150
  H        2.5759940     0.8629050     1.4619760
  H        4.1547340    -0.7097650     0.2816620
  H        3.9712690     0.2233490    -1.2012200
  H        4.7420490     0.9661550     0.2171920
  H       -2.8492950     2.1039740     0.1058080
units angstrom
no_reorient  #important for SAPT in psi4, default
symmetry c1  #important for SAPT in psi4, default
}

set PROPERTIES_ORIGIN ["COM"]
properties('MP2/aug-cc-pvtz', properties = ['dipole'])
--------------------------------------------------------------------------

    Molecular point group: c1
  Charge       = 0
  Multiplicity = 1
  Basis Set: AUG-CC-PVTZ
    Blend: AUG-CC-PVTZ
  Basis Set: (AUG-CC-PVTZ AUX)
    Blend: AUG-CC-PVTZ-JKFIT

    Orbital Energies [Eh]
    ---------------------

    Doubly Occupied:

       1A    -20.636235     2A    -20.564123     3A    -20.525203
       4A    -15.592573     5A    -11.405076     6A    -11.356269
       7A    -11.297624     8A    -11.246365     9A    -11.227623
      10A    -11.218744    11A     -1.478699    12A     -1.380336
      13A     -1.373844    14A     -1.245326    15A     -1.074718
      16A     -1.035725    17A     -0.927903    18A     -0.884849
      19A     -0.817455    20A     -0.793874    21A     -0.729858
      22A     -0.715212    23A     -0.682100    24A     -0.665984
      25A     -0.640885    26A     -0.633617    27A     -0.610709
      28A     -0.603435    29A     -0.580655    30A     -0.546840
      31A     -0.544186    32A     -0.523167    33A     -0.520707
      34A     -0.518615    35A     -0.497383    36A     -0.488310
      37A     -0.468194    38A     -0.428457    39A     -0.401693

  @DF-RHF Final Energy:  -512.88592274006169

   => Energetics <=

    Nuclear Repulsion Energy =            547.9863428265964558
    One-Electron Energy =               -1787.9793919976982579
    Two-Electron Energy =                 727.1071264310401148
    Total Energy =                       -512.8859227400616874
  Basis Set: (AUG-CC-PVTZ AUX)
    Blend: AUG-CC-PVTZ-RI
    Molecular point group: c1

    Geometry (in Angstrom), charge = 0, multiplicity = 1:

       Center              X                  Y                   Z               Mass
    ------------   -----------------  -----------------  -----------------  -----------------
         O           -1.977290819535     1.665246515926     0.185261084696    15.994914619570
         O            1.660106280465    -1.192280984074    -0.677324615304    15.994914619570
         O           -3.283684819535    -0.045640484074    -0.514489915304    15.994914619570
         N            0.218349680465     0.285851115926     0.299585784696    14.003074004430
         C           -0.948082819535    -0.487022484074    -0.110500915304    12.000000000000
         C           -1.202705819535    -1.688073484074     0.803208084696    12.000000000000
         C            2.592506180465     0.783962515926     0.367415084696    12.000000000000
         C            1.463589180465    -0.137162484074    -0.066849915304    12.000000000000
         C           -2.190878819535     0.369105515926    -0.181475915304    12.000000000000
         C            3.947741180465     0.286818515926    -0.112361915304    12.000000000000
         H           -0.768306819535    -0.864003484074    -1.125226915304     1.007825032230
         H            0.075775180465     1.194743515926     0.697340084696     1.007825032230
         H           -1.369686819535    -1.351968484074     1.829848084696     1.007825032230
         H           -2.077439819535    -2.244475484074     0.459642084696     1.007825032230
         H           -0.325341819535    -2.335030484074     0.774586084696     1.007825032230
         H            2.388131180465     1.793397515926    -0.015090915304     1.007825032230
         H            2.574370180465     0.861750515926     1.461500084696     1.007825032230
         H            4.153110180465    -0.710919484074     0.281186084696     1.007825032230
         H            3.969645180465     0.222194515926    -1.201695915304     1.007825032230
         H            4.740425180465     0.965000515926     0.216716084696     1.007825032230
         H           -2.850918819535     2.102819515926     0.105332084696     1.007825032230

  Basis Set: AUG-CC-PVTZ
    Blend: AUG-CC-PVTZ
  Basis Set: (AUG-CC-PVTZ AUX)
    Blend: AUG-CC-PVTZ-JKFIT
	 Reference Energy          =    -512.8859227400616874 [Eh]
	 Singles Energy            =      -0.0000000000000000 [Eh]
	 Same-Spin Energy          =      -0.5112524575375968 [Eh]
	 Opposite-Spin Energy      =      -1.6148697461380310 [Eh]
	 Correlation Energy        =      -2.1261222036756280 [Eh]
	 Total Energy              =    -515.0120449437373509 [Eh]

	 ================> DF-SCS-MP2 Energies <==================
	-----------------------------------------------------------
	 SCS Same-Spin Scale       =       0.3333333333333333 [-]
	 SCS Opposite-Spin Scale   =       1.2000000000000000 [-]
	 SCS Same-Spin Energy      =      -0.1704174858458656 [Eh]
	 SCS Opposite-Spin Energy  =      -1.9378436953656371 [Eh]
	 SCS Correlation Energy    =      -2.1082611812115029 [Eh]
	 SCS Total Energy          =    -514.9941839212731338 [Eh]
	-----------------------------------------------------------

  Dipole Moment: [D]
     X:    -0.1042      Y:     3.2836      Z:     1.9528     Total:     3.8218

*** Psi4 exiting successfully. Buy a developer a beer!
