                               Psi4 1.3.2 release

  ==> Input File <==

--------------------------------------------------------------------------
#psi4
#
memory 32 gb

molecule  {
0 1
  O       -1.9756670     1.6664010     0.1857370
  O        1.6935228    -1.1853762    -0.6756968
  O       -3.2820610    -0.0444860    -0.5140140
  N        0.2152580     0.2772540     0.2951010
  C       -0.9464590    -0.4858680    -0.1100250
  C       -1.2010820    -1.6869190     0.8036840
  C        2.6288108     0.7513128     0.3461945
  C        1.4652130    -0.1360080    -0.0663740
  C       -2.1892550     0.3702600    -0.1810000
  C        3.9493650     0.2879730    -0.1118860
  H       -0.7666830    -0.8628490    -1.1247510
  H        0.0773990     1.1958980     0.6978160
  H       -1.3680630    -1.3508140     1.8303240
  H       -2.0758160    -2.2433210     0.4601180
  H       -0.3237180    -2.3338760     0.7750620
  H        2.3897550     1.7945520    -0.0146150
  H        2.5759940     0.8629050     1.4619760
  H        4.1547340    -0.7097650     0.2816620
  H        3.9712690     0.2233490    -1.2012200
  H        4.7420490     0.9661550     0.2171920
  H       -2.8492950     2.1039740     0.1058080
units angstrom
no_reorient  #important for SAPT in psi4, default
symmetry c1  #important for SAPT in psi4, default
}

set PROPERTIES_ORIGIN ["COM"]
properties('MP2/aug-cc-pvtz', properties = ['dipole'])
--------------------------------------------------------------------------

    Molecular point group: c1
  Charge       = 0
  Multiplicity = 1
  Basis Set: AUG-CC-PVTZ
    Blend: AUG-CC-PVTZ
  Basis Set: (AUG-CC-PVTZ AUX)
    Blend: AUG-CC-PVTZ-JKFIT

    Orbital Energies [Eh]
    ---------------------

    Doubly Occupied:

       1A    -20.636966     2A    -20.564908     3A    -20.523756
       4A    -15.595137     5A    -11.406017     6A    -11.355942
       7A    -11.298444     8A    -11.248474     9A    -11.228174
      10A    -11.215883    11A     -1.479465    12A     -1.380018
      13A     -1.374572    14A     -1.247940    15A     -1.076376
      16A     -1.040959    17A     -0.929166    18A     -0.884286
      19A     -0.817904    20A     -0.791839    21A     -0.730162
      22A     -0.715553    23A     -0.683615    24A     -0.666669
      25A     -0.637978    26A     -0.633517    27A     -0.611742
      28A     -0.603114    29A     -0.582450    30A     -0.551761
      31A     -0.545570    32A     -0.533657    33A     -0.520337
      34A     -0.515751    35A     -0.495034    36A     -0.480268
      37A     -0.469163    38A     -0.425896    39A     -0.401874

  @DF-RHF Final Energy:  -512.88191555634467

   => Energetics <=

    Nuclear Repulsion Energy =            548.1478931772790020
    One-Electron Energy =               -1788.2589453017208143
    Two-Electron Energy =                 727.2291365680971467
    Total Energy =                       -512.8819155563446657
  Basis Set: (AUG-CC-PVTZ AUX)
    Blend: AUG-CC-PVTZ-RI
    Molecular point group: c1

    Geometry (in Angstrom), charge = 0, multiplicity = 1:

       Center              X                  Y                   Z               Mass
    ------------   -----------------  -----------------  -----------------  -----------------
         O           -1.983209593806     1.668349949693     0.187407566742    15.994914619570
         O            1.685980206194    -1.183427250307    -0.674026233258    15.994914619570
         O           -3.289603593806    -0.042537050307    -0.512343433258    15.994914619570
         N            0.207715406194     0.279202949693     0.296771566742    14.003074004430
         C           -0.954001593806    -0.483919050307    -0.108354433258    12.000000000000
         C           -1.208624593806    -1.684970050307     0.805354566742    12.000000000000
         C            2.621268206194     0.753261749693     0.347865066742    12.000000000000
         C            1.457670406194    -0.134059050307    -0.064703433258    12.000000000000
         C           -2.196797593806     0.372208949693    -0.179329433258    12.000000000000
         C            3.941822406194     0.289921949693    -0.110215433258    12.000000000000
         H           -0.774225593806    -0.860900050307    -1.123080433258     1.007825032230
         H            0.069856406194     1.197846949693     0.699486566742     1.007825032230
         H           -1.375605593806    -1.348865050307     1.831994566742     1.007825032230
         H           -2.083358593806    -2.241372050307     0.461788566742     1.007825032230
         H           -0.331260593806    -2.331927050307     0.776732566742     1.007825032230
         H            2.382212406194     1.796500949693    -0.012944433258     1.007825032230
         H            2.568451406194     0.864853949693     1.463646566742     1.007825032230
         H            4.147191406194    -0.707816050307     0.283332566742     1.007825032230
         H            3.963726406194     0.225297949693    -1.199549433258     1.007825032230
         H            4.734506406194     0.968103949693     0.218862566742     1.007825032230
         H           -2.856837593806     2.105922949693     0.107478566742     1.007825032230

  Basis Set: AUG-CC-PVTZ
    Blend: AUG-CC-PVTZ
  Basis Set: (AUG-CC-PVTZ AUX)
    Blend: AUG-CC-PVTZ-JKFIT
	 Reference Energy          =    -512.8819155563446657 [Eh]
	 Singles Energy            =      -0.0000000000000000 [Eh]
	 Same-Spin Energy          =      -0.5116667522726688 [Eh]
	 Opposite-Spin Energy      =      -1.6152598608295481 [Eh]
	 Correlation Energy        =      -2.1269266131022171 [Eh]
	 Total Energy              =    -515.0088421694468934 [Eh]

	 ================> DF-SCS-MP2 Energies <==================
	-----------------------------------------------------------
	 SCS Same-Spin Scale       =       0.3333333333333333 [-]
	 SCS Opposite-Spin Scale   =       1.2000000000000000 [-]
	 SCS Same-Spin Energy      =      -0.1705555840908896 [Eh]
	 SCS Opposite-Spin Energy  =      -1.9383118329954576 [Eh]
	 SCS Correlation Energy    =      -2.1088674170863473 [Eh]
	 SCS Total Energy          =    -514.9907829734310099 [Eh]
	-----------------------------------------------------------

  Dipole Moment: [D]
     X:    -0.1686      Y:     3.2724      Z:     1.9496     Total:     3.8129

*** Psi4 exiting successfully. Buy a developer a beer!
