                               Psi4 1.3.2 release

  ==> Input File <==

--------------------------------------------------------------------------
#psi4
#
memory 32 gb

molecule  {
0 1
  O       -1.9756670     1.6664010     0.1857370
  O        1.6511300    -1.1930600    -0.6768240
  O       -3.2820610    -0.0444860    -0.5140140
  N        0.2152580     0.2772540     0.2951010
  C       -0.9464590    -0.4858680    -0.1100250
  C       -1.2010820    -1.6869190     0.8036840
  C        2.5941300     0.7851170     0.3678910
  C        1.4652130    -0.1360080    -0.0663740
  C       -2.0094248     0.4385099    -0.1261998
  C        3.9493650     0.2879730    -0.1118860
  H       -0.7666830    -0.8628490    -1.1247510
  H        0.0773990     1.1958980     0.6978160
  H       -1.3680630    -1.3508140     1.8303240
  H       -2.0758160    -2.2433210     0.4601180
  H       -0.3237180    -2.3338760     0.7750620
  H        2.3897550     1.7945520    -0.0146150
  H        2.5759940     0.8629050     1.4619760
  H        4.1547340    -0.7097650     0.2816620
  H        3.9712690     0.2233490    -1.2012200
  H        4.7420490     0.9661550     0.2171920
  H       -2.8492950     2.1039740     0.1058080
units angstrom
no_reorient  #important for SAPT in psi4, default
symmetry c1  #important for SAPT in psi4, default
}

set PROPERTIES_ORIGIN ["COM"]
properties('MP2/aug-cc-pvtz', properties = ['dipole'])
--------------------------------------------------------------------------

    Molecular point group: c1
  Charge       = 0
  Multiplicity = 1
  Basis Set: AUG-CC-PVTZ
    Blend: AUG-CC-PVTZ
  Basis Set: (AUG-CC-PVTZ AUX)
    Blend: AUG-CC-PVTZ-JKFIT

    Orbital Energies [Eh]
    ---------------------

    Doubly Occupied:

       1A    -20.667439     2A    -20.531136     3A    -20.524233
       4A    -15.598905     5A    -11.416956     6A    -11.361673
       7A    -11.301869     8A    -11.252057     9A    -11.233611
      10A    -11.223039    11A     -1.520479    12A     -1.387394
      13A     -1.269896    14A     -1.250244    15A     -1.089147
      16A     -1.044821    17A     -0.957339    18A     -0.896322
      19A     -0.855484    20A     -0.805170    21A     -0.743758
      22A     -0.721178    23A     -0.694129    24A     -0.676475
      25A     -0.648823    26A     -0.643787    27A     -0.610793
      28A     -0.591470    29A     -0.564276    30A     -0.548254
      31A     -0.541350    32A     -0.525896    33A     -0.523454
      34A     -0.516474    35A     -0.497476    36A     -0.443008
      37A     -0.430931    38A     -0.429680    39A     -0.403706

  @DF-RHF Final Energy:  -512.81830427448938

   => Energetics <=

    Nuclear Repulsion Energy =            549.3351102335691394
    One-Electron Energy =               -1790.4225616968110444
    Two-Electron Energy =                 728.2691471887525267
    Total Energy =                       -512.8183042744893783
  Basis Set: (AUG-CC-PVTZ AUX)
    Blend: AUG-CC-PVTZ-RI
    Molecular point group: c1

    Geometry (in Angstrom), charge = 0, multiplicity = 1:

       Center              X                  Y                   Z               Mass
    ------------   -----------------  -----------------  -----------------  -----------------
         O           -1.990541881924     1.660755561408     0.181204307753    15.994914619570
         O            1.636255118076    -1.198705438592    -0.681356692247    15.994914619570
         O           -3.296935881924    -0.050131438592    -0.518546692247    15.994914619570
         N            0.200383118076     0.271608561408     0.290568307753    14.003074004430
         C           -0.961333881924    -0.491513438592    -0.114557692247    12.000000000000
         C           -1.215956881924    -1.692564438592     0.799151307753    12.000000000000
         C            2.579255118076     0.779471561408     0.363358307753    12.000000000000
         C            1.450338118076    -0.141653438592    -0.070906692247    12.000000000000
         C           -2.024299681924     0.432864461408    -0.130732492247    12.000000000000
         C            3.934490118076     0.282327561408    -0.116418692247    12.000000000000
         H           -0.781557881924    -0.868494438592    -1.129283692247     1.007825032230
         H            0.062524118076     1.190252561408     0.693283307753     1.007825032230
         H           -1.382937881924    -1.356459438592     1.825791307753     1.007825032230
         H           -2.090690881924    -2.248966438592     0.455585307753     1.007825032230
         H           -0.338592881924    -2.339521438592     0.770529307753     1.007825032230
         H            2.374880118076     1.788906561408    -0.019147692247     1.007825032230
         H            2.561119118076     0.857259561408     1.457443307753     1.007825032230
         H            4.139859118076    -0.715410438592     0.277129307753     1.007825032230
         H            3.956394118076     0.217703561408    -1.205752692247     1.007825032230
         H            4.727174118076     0.960509561408     0.212659307753     1.007825032230
         H           -2.864169881924     2.098328561408     0.101275307753     1.007825032230

  Basis Set: AUG-CC-PVTZ
    Blend: AUG-CC-PVTZ
  Basis Set: (AUG-CC-PVTZ AUX)
    Blend: AUG-CC-PVTZ-JKFIT
	 Reference Energy          =    -512.8183042744893783 [Eh]
	 Singles Energy            =      -0.0000000000000000 [Eh]
	 Same-Spin Energy          =      -0.5158444966323861 [Eh]
	 Opposite-Spin Energy      =      -1.6227103309123243 [Eh]
	 Correlation Energy        =      -2.1385548275447102 [Eh]
	 Total Energy              =    -514.9568591020340591 [Eh]

	 ================> DF-SCS-MP2 Energies <==================
	-----------------------------------------------------------
	 SCS Same-Spin Scale       =       0.3333333333333333 [-]
	 SCS Opposite-Spin Scale   =       1.2000000000000000 [-]
	 SCS Same-Spin Energy      =      -0.1719481655441287 [Eh]
	 SCS Opposite-Spin Energy  =      -1.9472523970947890 [Eh]
	 SCS Correlation Energy    =      -2.1192005626389179 [Eh]
	 SCS Total Energy          =    -514.9375048371282446 [Eh]
	-----------------------------------------------------------

  Dipole Moment: [D]
     X:     1.0565      Y:     3.8725      Z:     2.3580     Total:     4.6554

*** Psi4 exiting successfully. Buy a developer a beer!
