                               Psi4 1.3.2 release

  ==> Input File <==

--------------------------------------------------------------------------
#psi4
#
memory 32 gb

molecule  {
0 1
  O       -1.9756670     1.6664010     0.1857370
  O        1.6511300    -1.1930600    -0.6768240
  O       -3.2820610    -0.0444860    -0.5140140
  N        0.2152580     0.2772540     0.2951010
  C       -0.9464590    -0.4858680    -0.1100250
  C       -1.2010820    -1.6869190     0.8036840
  C        2.5941300     0.7851170     0.3678910
  C        1.4652130    -0.1360080    -0.0663740
  C       -2.1892550     0.3702600    -0.1810000
  C        3.9493650     0.2879730    -0.1118860
  H       -0.7666830    -0.8628490    -1.1247510
  H        0.1046313     1.0144317     0.6182648
  H       -1.3680630    -1.3508140     1.8303240
  H       -2.0758160    -2.2433210     0.4601180
  H       -0.3237180    -2.3338760     0.7750620
  H        2.3897550     1.7945520    -0.0146150
  H        2.5759940     0.8629050     1.4619760
  H        4.1547340    -0.7097650     0.2816620
  H        3.9712690     0.2233490    -1.2012200
  H        4.7420490     0.9661550     0.2171920
  H       -2.8492950     2.1039740     0.1058080
units angstrom
no_reorient  #important for SAPT in psi4, default
symmetry c1  #important for SAPT in psi4, default
}

set PROPERTIES_ORIGIN ["COM"]
properties('MP2/aug-cc-pvtz', properties = ['dipole'])
--------------------------------------------------------------------------

    Molecular point group: c1
  Charge       = 0
  Multiplicity = 1
  Basis Set: AUG-CC-PVTZ
    Blend: AUG-CC-PVTZ
  Basis Set: (AUG-CC-PVTZ AUX)
    Blend: AUG-CC-PVTZ-JKFIT

    Orbital Energies [Eh]
    ---------------------

    Doubly Occupied:

       1A    -20.635092     2A    -20.563686     3A    -20.526594
       4A    -15.573435     5A    -11.404778     6A    -11.358045
       7A    -11.296894     8A    -11.248965     9A    -11.227579
      10A    -11.220619    11A     -1.477848    12A     -1.385298
      13A     -1.373109    14A     -1.275426    15A     -1.078363
      16A     -1.042453    17A     -0.929537    18A     -0.890862
      19A     -0.848242    20A     -0.805241    21A     -0.736134
      22A     -0.717297    23A     -0.684550    24A     -0.669764
      25A     -0.642612    26A     -0.634894    27A     -0.609698
      28A     -0.609296    29A     -0.584905    30A     -0.547394
      31A     -0.544459    32A     -0.527675    33A     -0.521369
      34A     -0.520173    35A     -0.498128    36A     -0.488826
      37A     -0.468162    38A     -0.431129    39A     -0.405317

  @DF-RHF Final Energy:  -512.84192503880104

   => Energetics <=

    Nuclear Repulsion Energy =            549.5518016223688846
    One-Electron Energy =               -1790.7797621513122976
    Two-Electron Energy =                 728.3860354901423761
    Total Energy =                       -512.8419250388010369
  Basis Set: (AUG-CC-PVTZ AUX)
    Blend: AUG-CC-PVTZ-RI
    Molecular point group: c1

    Geometry (in Angstrom), charge = 0, multiplicity = 1:

       Center              X                  Y                   Z               Mass
    ------------   -----------------  -----------------  -----------------  -----------------
         O           -1.975856145165     1.667661594310     0.186289827100    15.994914619570
         O            1.650940854835    -1.191799405690    -0.676271172900    15.994914619570
         O           -3.282250145165    -0.043225405690    -0.513461172900    15.994914619570
         N            0.215068854835     0.278514594310     0.295653827100    14.003074004430
         C           -0.946648145165    -0.484607405690    -0.109472172900    12.000000000000
         C           -1.201271145165    -1.685658405690     0.804236827100    12.000000000000
         C            2.593940854835     0.786377594310     0.368443827100    12.000000000000
         C            1.465023854835    -0.134747405690    -0.065821172900    12.000000000000
         C           -2.189444145165     0.371520594310    -0.180447172900    12.000000000000
         C            3.949175854835     0.289233594310    -0.111333172900    12.000000000000
         H           -0.766872145165    -0.861588405690    -1.124198172900     1.007825032230
         H            0.104442154835     1.015692294310     0.618817627100     1.007825032230
         H           -1.368252145165    -1.349553405690     1.830876827100     1.007825032230
         H           -2.076005145165    -2.242060405690     0.460670827100     1.007825032230
         H           -0.323907145165    -2.332615405690     0.775614827100     1.007825032230
         H            2.389565854835     1.795812594310    -0.014062172900     1.007825032230
         H            2.575804854835     0.864165594310     1.462528827100     1.007825032230
         H            4.154544854835    -0.708504405690     0.282214827100     1.007825032230
         H            3.971079854835     0.224609594310    -1.200667172900     1.007825032230
         H            4.741859854835     0.967415594310     0.217744827100     1.007825032230
         H           -2.849484145165     2.105234594310     0.106360827100     1.007825032230

  Basis Set: AUG-CC-PVTZ
    Blend: AUG-CC-PVTZ
  Basis Set: (AUG-CC-PVTZ AUX)
    Blend: AUG-CC-PVTZ-JKFIT
	 Reference Energy          =    -512.8419250388010369 [Eh]
	 Singles Energy            =      -0.0000000000000000 [Eh]
	 Same-Spin Energy          =      -0.5098089123787806 [Eh]
	 Opposite-Spin Energy      =      -1.6121688686000704 [Eh]
	 Correlation Energy        =      -2.1219777809788507 [Eh]
	 Total Energy              =    -514.9639028197798325 [Eh]

	 ================> DF-SCS-MP2 Energies <==================
	-----------------------------------------------------------
	 SCS Same-Spin Scale       =       0.3333333333333333 [-]
	 SCS Opposite-Spin Scale   =       1.2000000000000000 [-]
	 SCS Same-Spin Energy      =      -0.1699363041262602 [Eh]
	 SCS Opposite-Spin Energy  =      -1.9346026423200844 [Eh]
	 SCS Correlation Energy    =      -2.1045389464463446 [Eh]
	 SCS Total Energy          =    -514.9464639852474193 [Eh]
	-----------------------------------------------------------

  Dipole Moment: [D]
     X:     0.0694      Y:     3.1466      Z:     1.8897     Total:     3.6711

*** Psi4 exiting successfully. Buy a developer a beer!
