                               Psi4 1.3.2 release

  ==> Input File <==

--------------------------------------------------------------------------
#psi4
#
memory 32 gb

molecule  {
0 1
  O       -1.9756670     1.6664010     0.1857370
  O        1.6511300    -1.1930600    -0.6768240
  O       -3.2820610    -0.0444860    -0.5140140
  N        0.2152580     0.2772540     0.2951010
  C       -0.9464590    -0.4858680    -0.1100250
  C       -1.2010820    -1.6869190     0.8036840
  C        2.5941300     0.7851170     0.3678910
  C        1.4652130    -0.1360080    -0.0663740
  C       -2.3537759     0.4835939    -0.1903956
  C        3.9493650     0.2879730    -0.1118860
  H       -0.7666830    -0.8628490    -1.1247510
  H        0.0773990     1.1958980     0.6978160
  H       -1.3680630    -1.3508140     1.8303240
  H       -2.0758160    -2.2433210     0.4601180
  H       -0.3237180    -2.3338760     0.7750620
  H        2.3897550     1.7945520    -0.0146150
  H        2.5759940     0.8629050     1.4619760
  H        4.1547340    -0.7097650     0.2816620
  H        3.9712690     0.2233490    -1.2012200
  H        4.7420490     0.9661550     0.2171920
  H       -2.8492950     2.1039740     0.1058080
units angstrom
no_reorient  #important for SAPT in psi4, default
symmetry c1  #important for SAPT in psi4, default
}

set PROPERTIES_ORIGIN ["COM"]
properties('MP2/aug-cc-pvtz', properties = ['dipole'])
--------------------------------------------------------------------------

    Molecular point group: c1
  Charge       = 0
  Multiplicity = 1
  Basis Set: AUG-CC-PVTZ
    Blend: AUG-CC-PVTZ
  Basis Set: (AUG-CC-PVTZ AUX)
    Blend: AUG-CC-PVTZ-JKFIT

    Orbital Energies [Eh]
    ---------------------

    Doubly Occupied:

       1A    -20.657947     2A    -20.578842     3A    -20.515214
       4A    -15.580568     5A    -11.398971     6A    -11.346628
       7A    -11.277440     8A    -11.241446     9A    -11.214774
      10A    -11.212821    11A     -1.533778    12A     -1.451506
      13A     -1.370790    14A     -1.228973    15A     -1.058451
      16A     -1.012075    17A     -0.906615    18A     -0.876518
      19A     -0.812184    20A     -0.790731    21A     -0.749755
      22A     -0.729715    23A     -0.692417    24A     -0.676649
      25A     -0.652969    26A     -0.635671    27A     -0.612482
      28A     -0.595416    29A     -0.570554    30A     -0.552402
      31A     -0.542491    32A     -0.530519    33A     -0.515698
      34A     -0.514155    35A     -0.506143    36A     -0.483440
      37A     -0.430652    38A     -0.415997    39A     -0.383881

  @DF-RHF Final Energy:  -512.84593382164223

   => Energetics <=

    Nuclear Repulsion Energy =            547.5238793717462613
    One-Electron Energy =               -1787.0250743058650187
    Two-Electron Energy =                 726.6552611124765235
    Total Energy =                       -512.8459338216422339
  Basis Set: (AUG-CC-PVTZ AUX)
    Blend: AUG-CC-PVTZ-RI
    Molecular point group: c1

    Geometry (in Angstrom), charge = 0, multiplicity = 1:

       Center              X                  Y                   Z               Mass
    ------------   -----------------  -----------------  -----------------  -----------------
         O           -1.962058375289     1.657026372179     0.186514357569    15.994914619570
         O            1.664738624711    -1.202434627821    -0.676046642431    15.994914619570
         O           -3.268452375289    -0.053860627821    -0.513236642431    15.994914619570
         N            0.228866624711     0.267879372179     0.295878357569    14.003074004430
         C           -0.932850375289    -0.495242627821    -0.109247642431    12.000000000000
         C           -1.187473375289    -1.696293627821     0.804461357569    12.000000000000
         C            2.607738624711     0.775742372179     0.368668357569    12.000000000000
         C            1.478821624711    -0.145382627821    -0.065596642431    12.000000000000
         C           -2.340167275289     0.474219272179    -0.189618242431    12.000000000000
         C            3.962973624711     0.278598372179    -0.111108642431    12.000000000000
         H           -0.753074375289    -0.872223627821    -1.123973642431     1.007825032230
         H            0.091007624711     1.186523372179     0.698593357569     1.007825032230
         H           -1.354454375289    -1.360188627821     1.831101357569     1.007825032230
         H           -2.062207375289    -2.252695627821     0.460895357569     1.007825032230
         H           -0.310109375289    -2.343250627821     0.775839357569     1.007825032230
         H            2.403363624711     1.785177372179    -0.013837642431     1.007825032230
         H            2.589602624711     0.853530372179     1.462753357569     1.007825032230
         H            4.168342624711    -0.719139627821     0.282439357569     1.007825032230
         H            3.984877624711     0.213974372179    -1.200442642431     1.007825032230
         H            4.755657624711     0.956780372179     0.217969357569     1.007825032230
         H           -2.835686375289     2.094599372179     0.106585357569     1.007825032230

  Basis Set: AUG-CC-PVTZ
    Blend: AUG-CC-PVTZ
  Basis Set: (AUG-CC-PVTZ AUX)
    Blend: AUG-CC-PVTZ-JKFIT
	 Reference Energy          =    -512.8459338216422339 [Eh]
	 Singles Energy            =      -0.0000000000000000 [Eh]
	 Same-Spin Energy          =      -0.5100951632677181 [Eh]
	 Opposite-Spin Energy      =      -1.6120435845637742 [Eh]
	 Correlation Energy        =      -2.1221387478314924 [Eh]
	 Total Energy              =    -514.9680725694737475 [Eh]

	 ================> DF-SCS-MP2 Energies <==================
	-----------------------------------------------------------
	 SCS Same-Spin Scale       =       0.3333333333333333 [-]
	 SCS Opposite-Spin Scale   =       1.2000000000000000 [-]
	 SCS Same-Spin Energy      =      -0.1700317210892394 [Eh]
	 SCS Opposite-Spin Energy  =      -1.9344523014765289 [Eh]
	 SCS Correlation Energy    =      -2.1044840225657682 [Eh]
	 SCS Total Energy          =    -514.9504178442080047 [Eh]
	-----------------------------------------------------------

  Dipole Moment: [D]
     X:    -1.2314      Y:     4.0657      Z:     1.8424     Total:     4.6304

*** Psi4 exiting successfully. Buy a developer a beer!
