                               Psi4 1.4a3.dev225

  ==> Input File <==

--------------------------------------------------------------------------
#psi4
#
memory 32 gb

molecule  {
0 1
  O        2.1858500    -1.4843500     0.4466430
  O       -1.5901990     1.2021140    -0.7742790
  O        3.2899360     0.0893000    -0.7567370
  N       -0.1552130    -0.3501220     0.0655300
  C        0.9973750     0.5138300    -0.1038320
  C        1.1366130     1.5332170     1.0331740
  C       -2.5208420    -0.9251940    -0.0919400
  C       -1.4008270     0.0814870    -0.2899980
  C        2.3135046    -0.3178698    -0.2154494
  C       -3.8280260    -0.2360070     0.2837800
  H        0.8752740     1.0541530    -1.0466610
  H       -0.0274960    -1.2421660     0.5250420
  H        1.2555520     1.0181310     1.9903510
  H        2.0023980     2.1787030     0.8613650
  H        0.2327940     2.1443920     1.0604580
  H       -2.6404080    -1.4674310    -1.0380590
  H       -2.2372030    -1.6677960     0.6628800
  H       -3.7417830     0.2575120     1.2553170
  H       -4.0728600     0.5241080    -0.4590610
  H       -4.6456460    -0.9595500     0.3374610
  H        3.0673500    -1.9023430     0.3513230
units angstrom
no_reorient  #important for SAPT in psi4, default
symmetry c1  #important for SAPT in psi4, default
}

set PROPERTIES_ORIGIN ["COM"]
properties('MP2/aug-cc-pvtz', properties = ['dipole'])
--------------------------------------------------------------------------

    Molecular point group: c1
  Charge       = 0
  Multiplicity = 1
  Basis Set: AUG-CC-PVTZ
    Blend: AUG-CC-PVTZ
  Basis Set: (AUG-CC-PVTZ AUX)
    Blend: AUG-CC-PVTZ-JKFIT

    Orbital Energies [Eh]
    ---------------------

    Doubly Occupied:

       1A    -20.639231     2A    -20.567686     3A    -20.520458
       4A    -15.593147     5A    -11.400494     6A    -11.354731
       7A    -11.293699     8A    -11.246330     9A    -11.229310
      10A    -11.221275    11A     -1.489996    12A     -1.391934
      13A     -1.377137    14A     -1.241846    15A     -1.070625
      16A     -1.031871    17A     -0.921459    18A     -0.883905
      19A     -0.821116    20A     -0.793797    21A     -0.728251
      22A     -0.720002    23A     -0.679455    24A     -0.664370
      25A     -0.645308    26A     -0.637069    27A     -0.610073
      28A     -0.597149    29A     -0.582988    30A     -0.555252
      31A     -0.550650    32A     -0.526304    33A     -0.522316
      34A     -0.512584    35A     -0.503839    36A     -0.488077
      37A     -0.464703    38A     -0.425427    39A     -0.396678

  @DF-RHF Final Energy:  -512.88635844985913

   => Energetics <=

    Nuclear Repulsion Energy =            547.6982965341237559
    One-Electron Energy =               -1787.3682288541954222
    Two-Electron Energy =                 726.7835738702125354
    Total Energy =                       -512.8863584498591308
  Basis Set: (AUG-CC-PVTZ AUX)
    Blend: AUG-CC-PVTZ-RI
    Molecular point group: c1

    Geometry (in Angstrom), charge = 0, multiplicity = 1:

       Center              X                  Y                   Z               Mass
    ------------   -----------------  -----------------  -----------------  -----------------
         O            2.114575991163    -1.482571629573     0.477678115355    15.994914619570
         O           -1.661473008837     1.203892370427    -0.743243884645    15.994914619570
         O            3.218661991163     0.091078370427    -0.725701884645    15.994914619570
         N           -0.226487008837    -0.348343629573     0.096565115355    14.003074004430
         C            0.926100991163     0.515608370427    -0.072796884645    12.000000000000
         C            1.065338991163     1.534995370427     1.064209115355    12.000000000000
         C           -2.592116008837    -0.923415629573    -0.060904884645    12.000000000000
         C           -1.472101008837     0.083265370427    -0.258962884645    12.000000000000
         C            2.242230591163    -0.316091429573    -0.184414284645    12.000000000000
         C           -3.899300008837    -0.234228629573     0.314815115355    12.000000000000
         H            0.803999991163     1.055931370427    -1.015625884645     1.007825032230
         H           -0.098770008837    -1.240387629573     0.556077115355     1.007825032230
         H            1.184277991163     1.019909370427     2.021386115355     1.007825032230
         H            1.931123991163     2.180481370427     0.892400115355     1.007825032230
         H            0.161519991163     2.146170370427     1.091493115355     1.007825032230
         H           -2.711682008837    -1.465652629573    -1.007023884645     1.007825032230
         H           -2.308477008837    -1.666017629573     0.693915115355     1.007825032230
         H           -3.813057008837     0.259290370427     1.286352115355     1.007825032230
         H           -4.144134008837     0.525886370427    -0.428025884645     1.007825032230
         H           -4.716920008837    -0.957771629573     0.368496115355     1.007825032230
         H            2.996075991163    -1.900564629573     0.382358115355     1.007825032230

  Basis Set: AUG-CC-PVTZ
    Blend: AUG-CC-PVTZ
  Basis Set: (AUG-CC-PVTZ AUX)
    Blend: AUG-CC-PVTZ-JKFIT
	 Reference Energy          =    -512.8863584498591308 [Eh]
	 Singles Energy            =      -0.0000000000000000 [Eh]
	 Same-Spin Energy          =      -0.5103925394992984 [Eh]
	 Opposite-Spin Energy      =      -1.6134885984587324 [Eh]
	 Correlation Energy        =      -2.1238811379580307 [Eh]
	 Total Energy              =    -515.0102395878171819 [Eh]

	 ================> DF-SCS-MP2 Energies <==================
	-----------------------------------------------------------
	 SCS Same-Spin Scale       =       0.3333333333333333 [-]
	 SCS Opposite-Spin Scale   =       1.2000000000000000 [-]
	 SCS Same-Spin Energy      =      -0.1701308464997661 [Eh]
	 SCS Opposite-Spin Energy  =      -1.9361863181504788 [Eh]
	 SCS Correlation Energy    =      -2.1063171646502448 [Eh]
	 SCS Total Energy          =    -514.9926756145093805 [Eh]
	-----------------------------------------------------------

  Dipole Moment: [D]
     X:     0.4123      Y:    -3.4551      Z:     2.2593     Total:     4.1487

*** Psi4 exiting successfully. Buy a developer a beer!
