                               Psi4 1.4a3.dev225

  ==> Input File <==

--------------------------------------------------------------------------
#psi4
#
memory 32 gb

molecule  {
0 1
  O        2.1858500    -1.4843500     0.4466430
  O       -1.5901990     1.2021140    -0.7742790
  O        3.2899360     0.0893000    -0.7567370
  N       -0.1552130    -0.3501220     0.0655300
  C        0.9973750     0.5138300    -0.1038320
  C        1.1366130     1.5332170     1.0331740
  C       -2.5208420    -0.9251940    -0.0919400
  C       -1.4464415     0.0972925    -0.3030175
  C        2.2713450    -0.2912280    -0.2118740
  C       -3.8280260    -0.2360070     0.2837800
  H        0.8752740     1.0541530    -1.0466610
  H       -0.0274960    -1.2421660     0.5250420
  H        1.2555520     1.0181310     1.9903510
  H        2.0023980     2.1787030     0.8613650
  H        0.2327940     2.1443920     1.0604580
  H       -2.6404080    -1.4674310    -1.0380590
  H       -2.2372030    -1.6677960     0.6628800
  H       -3.7417830     0.2575120     1.2553170
  H       -4.0728600     0.5241080    -0.4590610
  H       -4.6456460    -0.9595500     0.3374610
  H        3.0673500    -1.9023430     0.3513230
units angstrom
no_reorient  #important for SAPT in psi4, default
symmetry c1  #important for SAPT in psi4, default
}

set PROPERTIES_ORIGIN ["COM"]
properties('MP2/aug-cc-pvtz', properties = ['dipole'])
--------------------------------------------------------------------------

    Molecular point group: c1
  Charge       = 0
  Multiplicity = 1
  Basis Set: AUG-CC-PVTZ
    Blend: AUG-CC-PVTZ
  Basis Set: (AUG-CC-PVTZ AUX)
    Blend: AUG-CC-PVTZ-JKFIT

    Orbital Energies [Eh]
    ---------------------

    Doubly Occupied:

       1A    -20.631220     2A    -20.562092     3A    -20.531933
       4A    -15.586373     5A    -11.400672     6A    -11.359854
       7A    -11.292033     8A    -11.249097     9A    -11.229865
      10A    -11.224970    11A     -1.473253    12A     -1.397004
      13A     -1.369661    14A     -1.232938    15A     -1.077256
      16A     -1.034399    17A     -0.923972    18A     -0.889061
      19A     -0.817543    20A     -0.783573    21A     -0.724523
      22A     -0.711446    23A     -0.683816    24A     -0.657257
      25A     -0.645374    26A     -0.634772    27A     -0.611431
      28A     -0.602071    29A     -0.580955    30A     -0.557571
      31A     -0.548256    32A     -0.529098    33A     -0.526128
      34A     -0.515768    35A     -0.498430    36A     -0.488821
      37A     -0.467722    38A     -0.432676    39A     -0.395728

  @DF-RHF Final Energy:  -512.88431262412712

   => Energetics <=

    Nuclear Repulsion Energy =            547.6295687027954955
    One-Electron Energy =               -1787.2705415593782163
    Two-Electron Energy =                 726.7566602324556015
    Total Energy =                       -512.8843126241271193
  Basis Set: (AUG-CC-PVTZ AUX)
    Blend: AUG-CC-PVTZ-RI
    Molecular point group: c1

    Geometry (in Angstrom), charge = 0, multiplicity = 1:

       Center              X                  Y                   Z               Mass
    ------------   -----------------  -----------------  -----------------  -----------------
         O            2.121836354669    -1.486082720292     0.478459297947    15.994914619570
         O           -1.654212645331     1.200381279708    -0.742462702053    15.994914619570
         O            3.225922354669     0.087567279708    -0.724920702053    15.994914619570
         N           -0.219226645331    -0.351854720292     0.097346297947    14.003074004430
         C            0.933361354669     0.512097279708    -0.072015702053    12.000000000000
         C            1.072599354669     1.531484279708     1.064990297947    12.000000000000
         C           -2.584855645331    -0.926926720292    -0.060123702053    12.000000000000
         C           -1.510455145331     0.095559779708    -0.271201202053    12.000000000000
         C            2.207331354669    -0.292960720292    -0.180057702053    12.000000000000
         C           -3.892039645331    -0.237739720292     0.315596297947    12.000000000000
         H            0.811260354669     1.052420279708    -1.014844702053     1.007825032230
         H           -0.091509645331    -1.243898720292     0.556858297947     1.007825032230
         H            1.191538354669     1.016398279708     2.022167297947     1.007825032230
         H            1.938384354669     2.176970279708     0.893181297947     1.007825032230
         H            0.168780354669     2.142659279708     1.092274297947     1.007825032230
         H           -2.704421645331    -1.469163720292    -1.006242702053     1.007825032230
         H           -2.301216645331    -1.669528720292     0.694696297947     1.007825032230
         H           -3.805796645331     0.255779279708     1.287133297947     1.007825032230
         H           -4.136873645331     0.522375279708    -0.427244702053     1.007825032230
         H           -4.709659645331    -0.961282720292     0.369277297947     1.007825032230
         H            3.003336354669    -1.904075720292     0.383139297947     1.007825032230

  Basis Set: AUG-CC-PVTZ
    Blend: AUG-CC-PVTZ
  Basis Set: (AUG-CC-PVTZ AUX)
    Blend: AUG-CC-PVTZ-JKFIT
	 Reference Energy          =    -512.8843126241271193 [Eh]
	 Singles Energy            =      -0.0000000000000000 [Eh]
	 Same-Spin Energy          =      -0.5109892037090182 [Eh]
	 Opposite-Spin Energy      =      -1.6147387465328287 [Eh]
	 Correlation Energy        =      -2.1257279502418469 [Eh]
	 Total Energy              =    -515.0100405743689862 [Eh]

	 ================> DF-SCS-MP2 Energies <==================
	-----------------------------------------------------------
	 SCS Same-Spin Scale       =       0.3333333333333333 [-]
	 SCS Opposite-Spin Scale   =       1.2000000000000000 [-]
	 SCS Same-Spin Energy      =      -0.1703297345696727 [Eh]
	 SCS Opposite-Spin Energy  =      -1.9376864958393942 [Eh]
	 SCS Correlation Energy    =      -2.1080162304090670 [Eh]
	 SCS Total Energy          =    -514.9923288545361402 [Eh]
	-----------------------------------------------------------

  Dipole Moment: [D]
     X:    -0.3082      Y:    -3.1774      Z:     2.1655     Total:     3.8575

*** Psi4 exiting successfully. Buy a developer a beer!
