                               Psi4 1.3.2 release

  ==> Input File <==

--------------------------------------------------------------------------
#psi4
#
memory 32 gb

molecule  {
0 1
  O       -1.9756670     1.6664010     0.1857370
  O        1.6511300    -1.1930600    -0.6768240
  O       -3.2820610    -0.0444860    -0.5140140
  N        0.2152580     0.2772540     0.2951010
  C       -0.9613069    -0.4669068    -0.1023766
  C       -1.2010820    -1.6869190     0.8036840
  C        2.5941300     0.7851170     0.3678910
  C        1.4652130    -0.1360080    -0.0663740
  C       -2.1892550     0.3702600    -0.1810000
  C        3.9493650     0.2879730    -0.1118860
  H       -0.7666830    -0.8628490    -1.1247510
  H        0.0599373     1.1939186     0.6959660
  H       -1.3680630    -1.3508140     1.8303240
  H       -2.0758160    -2.2433210     0.4601180
  H       -0.3237180    -2.3338760     0.7750620
  H        2.3897550     1.7945520    -0.0146150
  H        2.5759940     0.8629050     1.4619760
  H        4.1547340    -0.7097650     0.2816620
  H        3.9712690     0.2233490    -1.2012200
  H        4.7420490     0.9661550     0.2171920
  H       -2.8492950     2.1039740     0.1058080
units angstrom
no_reorient  #important for SAPT in psi4, default
symmetry c1  #important for SAPT in psi4, default
}

set PROPERTIES_ORIGIN ["COM"]
properties('MP2/aug-cc-pvtz', properties = ['dipole'])
--------------------------------------------------------------------------

    Molecular point group: c1
  Charge       = 0
  Multiplicity = 1
  Basis Set: AUG-CC-PVTZ
    Blend: AUG-CC-PVTZ
  Basis Set: (AUG-CC-PVTZ AUX)
    Blend: AUG-CC-PVTZ-JKFIT

    Orbital Energies [Eh]
    ---------------------

    Doubly Occupied:

       1A    -20.636294     2A    -20.564010     3A    -20.524882
       4A    -15.592543     5A    -11.404915     6A    -11.356936
       7A    -11.296044     8A    -11.247643     9A    -11.227731
      10A    -11.219530    11A     -1.479460    12A     -1.380654
      13A     -1.374137    14A     -1.245573    15A     -1.075345
      16A     -1.036080    17A     -0.930128    18A     -0.886790
      19A     -0.814857    20A     -0.793932    21A     -0.732471
      22A     -0.714952    23A     -0.682935    24A     -0.666109
      25A     -0.641393    26A     -0.632064    27A     -0.611262
      28A     -0.602008    29A     -0.578908    30A     -0.547456
      31A     -0.544540    32A     -0.523779    33A     -0.519746
      34A     -0.518372    35A     -0.497799    36A     -0.487169
      37A     -0.469941    38A     -0.429217    39A     -0.399466

  @DF-RHF Final Energy:  -512.88468314526892

   => Energetics <=

    Nuclear Repulsion Energy =            548.3498530440618879
    One-Electron Energy =               -1788.6949318954109458
    Two-Electron Energy =                 727.4603957060802486
    Total Energy =                       -512.8846831452689230
  Basis Set: (AUG-CC-PVTZ AUX)
    Blend: AUG-CC-PVTZ-RI
    Molecular point group: c1

    Geometry (in Angstrom), charge = 0, multiplicity = 1:

       Center              X                  Y                   Z               Mass
    ------------   -----------------  -----------------  -----------------  -----------------
         O           -1.974317491124     1.664846299416     0.185117390001    15.994914619570
         O            1.652479508876    -1.194614700584    -0.677443609999    15.994914619570
         O           -3.280711491124    -0.046040700584    -0.514633609999    15.994914619570
         N            0.216607508876     0.275699299416     0.294481390001    14.003074004430
         C           -0.959957391124    -0.468461500584    -0.102996209999    12.000000000000
         C           -1.199732491124    -1.688473700584     0.803064390001    12.000000000000
         C            2.595479508876     0.783562299416     0.367271390001    12.000000000000
         C            1.466562508876    -0.137562700584    -0.066993609999    12.000000000000
         C           -2.187905491124     0.368705299416    -0.181619609999    12.000000000000
         C            3.950714508876     0.286418299416    -0.112505609999    12.000000000000
         H           -0.765333491124    -0.864403700584    -1.125370609999     1.007825032230
         H            0.061286808876     1.192363899416     0.695346390001     1.007825032230
         H           -1.366713491124    -1.352368700584     1.829704390001     1.007825032230
         H           -2.074466491124    -2.244875700584     0.459498390001     1.007825032230
         H           -0.322368491124    -2.335430700584     0.774442390001     1.007825032230
         H            2.391104508876     1.792997299416    -0.015234609999     1.007825032230
         H            2.577343508876     0.861350299416     1.461356390001     1.007825032230
         H            4.156083508876    -0.711319700584     0.281042390001     1.007825032230
         H            3.972618508876     0.221794299416    -1.201839609999     1.007825032230
         H            4.743398508876     0.964600299416     0.216572390001     1.007825032230
         H           -2.847945491124     2.102419299416     0.105188390001     1.007825032230

  Basis Set: AUG-CC-PVTZ
    Blend: AUG-CC-PVTZ
  Basis Set: (AUG-CC-PVTZ AUX)
    Blend: AUG-CC-PVTZ-JKFIT
	 Reference Energy          =    -512.8846831452689230 [Eh]
	 Singles Energy            =      -0.0000000000000000 [Eh]
	 Same-Spin Energy          =      -0.5116117435696723 [Eh]
	 Opposite-Spin Energy      =      -1.6153244303157779 [Eh]
	 Correlation Energy        =      -2.1269361738854502 [Eh]
	 Total Energy              =    -515.0116193191544198 [Eh]

	 ================> DF-SCS-MP2 Energies <==================
	-----------------------------------------------------------
	 SCS Same-Spin Scale       =       0.3333333333333333 [-]
	 SCS Opposite-Spin Scale   =       1.2000000000000000 [-]
	 SCS Same-Spin Energy      =      -0.1705372478565574 [Eh]
	 SCS Opposite-Spin Energy  =      -1.9383893163789334 [Eh]
	 SCS Correlation Energy    =      -2.1089265642354906 [Eh]
	 SCS Total Energy          =    -514.9936097095044261 [Eh]
	-----------------------------------------------------------

  Dipole Moment: [D]
     X:    -0.0415      Y:     3.3136      Z:     1.9609     Total:     3.8506

*** Psi4 exiting successfully. Buy a developer a beer!
