                               Psi4 1.3.2 release

  ==> Input File <==

--------------------------------------------------------------------------
#psi4
#
memory 32 gb

molecule  {
0 1
  O       -1.9756670     1.6664010     0.1857370
  O        1.6511300    -1.1930600    -0.6768240
  O       -3.2820610    -0.0444860    -0.5140140
  N        0.2152580     0.2772540     0.2951010
  C       -0.9464590    -0.4858680    -0.1100250
  C       -1.2010820    -1.6869190     0.8036840
  C        2.5941300     0.7851170     0.3678910
  C        1.4652130    -0.1360080    -0.0663740
  C       -2.1892550     0.3702600    -0.1810000
  C        3.9363196     0.2202906    -0.0719933
  H       -0.7666830    -0.8628490    -1.1247510
  H        0.0773990     1.1958980     0.6978160
  H       -1.3680630    -1.3508140     1.8303240
  H       -2.0758160    -2.2433210     0.4601180
  H       -0.3237180    -2.3338760     0.7750620
  H        2.3392903     1.7931405     0.0129483
  H        2.5759940     0.8629050     1.4619760
  H        4.1547340    -0.7097650     0.2816620
  H        3.9712690     0.2233490    -1.2012200
  H        4.7420490     0.9661550     0.2171920
  H       -2.8492950     2.1039740     0.1058080
units angstrom
no_reorient  #important for SAPT in psi4, default
symmetry c1  #important for SAPT in psi4, default
}

set PROPERTIES_ORIGIN ["COM"]
properties('MP2/aug-cc-pvtz', properties = ['dipole'])
--------------------------------------------------------------------------

    Molecular point group: c1
  Charge       = 0
  Multiplicity = 1
  Basis Set: AUG-CC-PVTZ
    Blend: AUG-CC-PVTZ
  Basis Set: (AUG-CC-PVTZ AUX)
    Blend: AUG-CC-PVTZ-JKFIT

    Orbital Energies [Eh]
    ---------------------

    Doubly Occupied:

       1A    -20.635995     2A    -20.563737     3A    -20.524235
       4A    -15.591978     5A    -11.404681     6A    -11.355050
       7A    -11.296239     8A    -11.248448     9A    -11.226814
      10A    -11.221510    11A     -1.478424    12A     -1.380516
      13A     -1.373507    14A     -1.245171    15A     -1.075385
      16A     -1.035745    17A     -0.927821    18A     -0.887123
      19A     -0.816750    20A     -0.792684    21A     -0.730937
      22A     -0.714562    23A     -0.682752    24A     -0.664985
      25A     -0.642701    26A     -0.633829    27A     -0.610085
      28A     -0.600722    29A     -0.582797    30A     -0.551361
      31A     -0.545450    32A     -0.533102    33A     -0.518334
      34A     -0.509972    35A     -0.494730    36A     -0.485965
      37A     -0.467758    38A     -0.427920    39A     -0.400116

  @DF-RHF Final Energy:  -512.87752534646586

   => Energetics <=

    Nuclear Repulsion Energy =            548.5444260837439288
    One-Electron Energy =               -1789.0841216238718516
    Two-Electron Energy =                 727.6621701936620639
    Total Energy =                       -512.8775253464658590
  Basis Set: (AUG-CC-PVTZ AUX)
    Blend: AUG-CC-PVTZ-RI
    Molecular point group: c1

    Geometry (in Angstrom), charge = 0, multiplicity = 1:

       Center              X                  Y                   Z               Mass
    ------------   -----------------  -----------------  -----------------  -----------------
         O           -1.974237316468     1.672009206767     0.182245921877    15.994914619570
         O            1.652559683532    -1.187451793233    -0.680315078123    15.994914619570
         O           -3.280631316468    -0.038877793233    -0.517505078123    15.994914619570
         N            0.216687683532     0.282862206767     0.291609921877    14.003074004430
         C           -0.945029316468    -0.480259793233    -0.113516078123    12.000000000000
         C           -1.199652316468    -1.681310793233     0.800192921877    12.000000000000
         C            2.595559683532     0.790725206767     0.364399921877    12.000000000000
         C            1.466642683532    -0.130399793233    -0.069865078123    12.000000000000
         C           -2.187825316468     0.375868206767    -0.184491078123    12.000000000000
         C            3.937749283532     0.225898806767    -0.075484378123    12.000000000000
         H           -0.765253316468    -0.857240793233    -1.128242078123     1.007825032230
         H            0.078828683532     1.201506206767     0.694324921877     1.007825032230
         H           -1.366633316468    -1.345205793233     1.826832921877     1.007825032230
         H           -2.074386316468    -2.237712793233     0.456626921877     1.007825032230
         H           -0.322288316468    -2.328267793233     0.771570921877     1.007825032230
         H            2.340719983532     1.798748706767     0.009457221877     1.007825032230
         H            2.577423683532     0.868513206767     1.458484921877     1.007825032230
         H            4.156163683532    -0.704156793233     0.278170921877     1.007825032230
         H            3.972698683532     0.228957206767    -1.204711078123     1.007825032230
         H            4.743478683532     0.971763206767     0.213700921877     1.007825032230
         H           -2.847865316468     2.109582206767     0.102316921877     1.007825032230

  Basis Set: AUG-CC-PVTZ
    Blend: AUG-CC-PVTZ
  Basis Set: (AUG-CC-PVTZ AUX)
    Blend: AUG-CC-PVTZ-JKFIT
	 Reference Energy          =    -512.8775253464658590 [Eh]
	 Singles Energy            =      -0.0000000000000000 [Eh]
	 Same-Spin Energy          =      -0.5115426778786112 [Eh]
	 Opposite-Spin Energy      =      -1.6153207206354019 [Eh]
	 Correlation Energy        =      -2.1268633985140131 [Eh]
	 Total Energy              =    -515.0043887449799058 [Eh]

	 ================> DF-SCS-MP2 Energies <==================
	-----------------------------------------------------------
	 SCS Same-Spin Scale       =       0.3333333333333333 [-]
	 SCS Opposite-Spin Scale   =       1.2000000000000000 [-]
	 SCS Same-Spin Energy      =      -0.1705142259595371 [Eh]
	 SCS Opposite-Spin Energy  =      -1.9383848647624822 [Eh]
	 SCS Correlation Energy    =      -2.1088990907220193 [Eh]
	 SCS Total Energy          =    -514.9864244371879067 [Eh]
	-----------------------------------------------------------

  Dipole Moment: [D]
     X:    -0.0524      Y:     3.2983      Z:     1.9786     Total:     3.8466

*** Psi4 exiting successfully. Buy a developer a beer!
