                               Psi4 1.3.2 release

  ==> Input File <==

--------------------------------------------------------------------------
#psi4
#
memory 32 gb

molecule  {
0 1
  O       -1.9756670     1.6664010     0.1857370
  O        1.6511300    -1.1930600    -0.6768240
  O       -3.2820610    -0.0444860    -0.5140140
  N        0.2152580     0.2772540     0.2951010
  C       -0.9898290    -0.4351984    -0.0740137
  C       -1.2010820    -1.6869190     0.8036840
  C        2.5941300     0.7851170     0.3678910
  C        1.4918756    -0.0794035    -0.0318243
  C       -2.1892550     0.3702600    -0.1810000
  C        3.9493650     0.2879730    -0.1118860
  H       -0.7666830    -0.8628490    -1.1247510
  H        0.0773990     1.1958980     0.6978160
  H       -1.3680630    -1.3508140     1.8303240
  H       -2.0758160    -2.2433210     0.4601180
  H       -0.3237180    -2.3338760     0.7750620
  H        2.3897550     1.7945520    -0.0146150
  H        2.5759940     0.8629050     1.4619760
  H        4.1547340    -0.7097650     0.2816620
  H        3.9712690     0.2233490    -1.2012200
  H        4.7420490     0.9661550     0.2171920
  H       -2.8492950     2.1039740     0.1058080
units angstrom
no_reorient  #important for SAPT in psi4, default
symmetry c1  #important for SAPT in psi4, default
}

set PROPERTIES_ORIGIN ["COM"]
properties('MP2/aug-cc-pvtz', properties = ['dipole'])
--------------------------------------------------------------------------

    Molecular point group: c1
  Charge       = 0
  Multiplicity = 1
  Basis Set: AUG-CC-PVTZ
    Blend: AUG-CC-PVTZ
  Basis Set: (AUG-CC-PVTZ AUX)
    Blend: AUG-CC-PVTZ-JKFIT

    Orbital Energies [Eh]
    ---------------------

    Doubly Occupied:

       1A    -20.635917     2A    -20.564163     3A    -20.516339
       4A    -15.598069     5A    -11.405164     6A    -11.362343
       7A    -11.299158     8A    -11.251339     9A    -11.229085
      10A    -11.223048    11A     -1.480693    12A     -1.374881
      13A     -1.348692    14A     -1.237919    15A     -1.087651
      16A     -1.044068    17A     -0.935582    18A     -0.900640
      19A     -0.811827    20A     -0.791511    21A     -0.737755
      22A     -0.715074    23A     -0.686090    24A     -0.667967
      25A     -0.647027    26A     -0.626997    27A     -0.610893
      28A     -0.592165    29A     -0.569657    30A     -0.550478
      31A     -0.544359    32A     -0.528157    33A     -0.517822
      34A     -0.516085    35A     -0.498826    36A     -0.475084
      37A     -0.470110    38A     -0.428365    39A     -0.392918

  @DF-RHF Final Energy:  -512.86448252290279

   => Energetics <=

    Nuclear Repulsion Energy =            548.1487311014406032
    One-Electron Energy =               -1788.2785962786483651
    Two-Electron Energy =                 727.2653826543048581
    Total Energy =                       -512.8644825229027902
  Basis Set: (AUG-CC-PVTZ AUX)
    Blend: AUG-CC-PVTZ-RI
    Molecular point group: c1

    Geometry (in Angstrom), charge = 0, multiplicity = 1:

       Center              X                  Y                   Z               Mass
    ------------   -----------------  -----------------  -----------------  -----------------
         O           -1.974284985885     1.657527617430     0.179900630049    15.994914619570
         O            1.652512014115    -1.201933382570    -0.682660369951    15.994914619570
         O           -3.280678985885    -0.053359382570    -0.519850369951    15.994914619570
         N            0.216640014115     0.268380617430     0.289264630049    14.003074004430
         C           -0.988446985885    -0.444071782570    -0.079850069951    12.000000000000
         C           -1.199699985885    -1.695792382570     0.797847630049    12.000000000000
         C            2.595512014115     0.776243617430     0.362054630049    12.000000000000
         C            1.493257614115    -0.088276882570    -0.037660669951    12.000000000000
         C           -2.187872985885     0.361386617430    -0.186836369951    12.000000000000
         C            3.950747014115     0.279099617430    -0.117722369951    12.000000000000
         H           -0.765300985885    -0.871722382570    -1.130587369951     1.007825032230
         H            0.078781014115     1.187024617430     0.691979630049     1.007825032230
         H           -1.366680985885    -1.359687382570     1.824487630049     1.007825032230
         H           -2.074433985885    -2.252194382570     0.454281630049     1.007825032230
         H           -0.322335985885    -2.342749382570     0.769225630049     1.007825032230
         H            2.391137014115     1.785678617430    -0.020451369951     1.007825032230
         H            2.577376014115     0.854031617430     1.456139630049     1.007825032230
         H            4.156116014115    -0.718638382570     0.275825630049     1.007825032230
         H            3.972651014115     0.214475617430    -1.207056369951     1.007825032230
         H            4.743431014115     0.957281617430     0.211355630049     1.007825032230
         H           -2.847912985885     2.095100617430     0.099971630049     1.007825032230

  Basis Set: AUG-CC-PVTZ
    Blend: AUG-CC-PVTZ
  Basis Set: (AUG-CC-PVTZ AUX)
    Blend: AUG-CC-PVTZ-JKFIT
	 Reference Energy          =    -512.8644825229027902 [Eh]
	 Singles Energy            =      -0.0000000000000000 [Eh]
	 Same-Spin Energy          =      -0.5140030607180962 [Eh]
	 Opposite-Spin Energy      =      -1.6196568027337277 [Eh]
	 Correlation Energy        =      -2.1336598634518240 [Eh]
	 Total Energy              =    -514.9981423863546297 [Eh]

	 ================> DF-SCS-MP2 Energies <==================
	-----------------------------------------------------------
	 SCS Same-Spin Scale       =       0.3333333333333333 [-]
	 SCS Opposite-Spin Scale   =       1.2000000000000000 [-]
	 SCS Same-Spin Energy      =      -0.1713343535726987 [Eh]
	 SCS Opposite-Spin Energy  =      -1.9435881632804732 [Eh]
	 SCS Correlation Energy    =      -2.1149225168531718 [Eh]
	 SCS Total Energy          =    -514.9794050397559886 [Eh]
	-----------------------------------------------------------

  Dipole Moment: [D]
     X:     0.0825      Y:     3.5481      Z:     2.1380     Total:     4.1433

*** Psi4 exiting successfully. Buy a developer a beer!
