                               Psi4 1.3.2 release

  ==> Input File <==

--------------------------------------------------------------------------
#psi4
#
memory 32 gb

molecule  {
0 1
  O       -1.9756670     1.6664010     0.1857370
  O        1.6511300    -1.1930600    -0.6768240
  O       -3.2820610    -0.0444860    -0.5140140
  N        0.2430001     0.2351521     0.2917033
  C       -0.9464590    -0.4858680    -0.1100250
  C       -1.2010820    -1.6869190     0.8036840
  C        2.5941300     0.7851170     0.3678910
  C        1.4652130    -0.1360080    -0.0663740
  C       -2.2166079     0.3276964    -0.1958686
  C        3.9493650     0.2879730    -0.1118860
  H       -0.7666830    -0.8628490    -1.1247510
  H        0.0773990     1.1958980     0.6978160
  H       -1.3680630    -1.3508140     1.8303240
  H       -2.0758160    -2.2433210     0.4601180
  H       -0.3237180    -2.3338760     0.7750620
  H        2.3897550     1.7945520    -0.0146150
  H        2.5759940     0.8629050     1.4619760
  H        4.1547340    -0.7097650     0.2816620
  H        3.9712690     0.2233490    -1.2012200
  H        4.7420490     0.9661550     0.2171920
  H       -2.8492950     2.1039740     0.1058080
units angstrom
no_reorient  #important for SAPT in psi4, default
symmetry c1  #important for SAPT in psi4, default
}

set PROPERTIES_ORIGIN ["COM"]
properties('MP2/aug-cc-pvtz', properties = ['dipole'])
--------------------------------------------------------------------------

    Molecular point group: c1
  Charge       = 0
  Multiplicity = 1
  Basis Set: AUG-CC-PVTZ
    Blend: AUG-CC-PVTZ
  Basis Set: (AUG-CC-PVTZ AUX)
    Blend: AUG-CC-PVTZ-JKFIT

    Orbital Energies [Eh]
    ---------------------

    Doubly Occupied:

       1A    -20.623385     2A    -20.576237     3A    -20.516067
       4A    -15.596624     5A    -11.405324     6A    -11.349276
       7A    -11.298307     8A    -11.246039     9A    -11.228362
      10A    -11.218005    11A     -1.480313    12A     -1.384858
      13A     -1.379434    14A     -1.246110    15A     -1.077377
      16A     -1.037391    17A     -0.925322    18A     -0.883495
      19A     -0.805214    20A     -0.792256    21A     -0.731313
      22A     -0.715143    23A     -0.682185    24A     -0.666306
      25A     -0.641242    26A     -0.636900    27A     -0.614429
      28A     -0.598729    29A     -0.577837    30A     -0.547502
      31A     -0.547023    32A     -0.522181    33A     -0.521226
      34A     -0.517074    35A     -0.506847    36A     -0.489784
      37A     -0.470418    38A     -0.425549    39A     -0.399559

  @DF-RHF Final Energy:  -512.88006426293077

   => Energetics <=

    Nuclear Repulsion Energy =            548.6157660099569284
    One-Electron Energy =               -1789.2303747807520722
    Two-Electron Energy =                 727.7345445078644843
    Total Energy =                       -512.8800642629307731
  Basis Set: (AUG-CC-PVTZ AUX)
    Blend: AUG-CC-PVTZ-RI
    Molecular point group: c1

    Geometry (in Angstrom), charge = 0, multiplicity = 1:

       Center              X                  Y                   Z               Mass
    ------------   -----------------  -----------------  -----------------  -----------------
         O           -1.976082198833     1.673985495333     0.187295023490    15.994914619570
         O            1.650714801167    -1.185475504667    -0.675265976510    15.994914619570
         O           -3.282476198833    -0.036901504667    -0.512455976510    15.994914619570
         N            0.242584901167     0.242736595333     0.293261323490    14.003074004430
         C           -0.946874198833    -0.478283504667    -0.108466976510    12.000000000000
         C           -1.201497198833    -1.679334504667     0.805242023490    12.000000000000
         C            2.593714801167     0.792701495333     0.369449023490    12.000000000000
         C            1.464797801167    -0.128423504667    -0.064815976510    12.000000000000
         C           -2.217023098833     0.335280895333    -0.194310576510    12.000000000000
         C            3.948949801167     0.295557495333    -0.110327976510    12.000000000000
         H           -0.767098198833    -0.855264504667    -1.123192976510     1.007825032230
         H            0.076983801167     1.203482495333     0.699374023490     1.007825032230
         H           -1.368478198833    -1.343229504667     1.831882023490     1.007825032230
         H           -2.076231198833    -2.235736504667     0.461676023490     1.007825032230
         H           -0.324133198833    -2.326291504667     0.776620023490     1.007825032230
         H            2.389339801167     1.802136495333    -0.013056976510     1.007825032230
         H            2.575578801167     0.870489495333     1.463534023490     1.007825032230
         H            4.154318801167    -0.702180504667     0.283220023490     1.007825032230
         H            3.970853801167     0.230933495333    -1.199661976510     1.007825032230
         H            4.741633801167     0.973739495333     0.218750023490     1.007825032230
         H           -2.849710198833     2.111558495333     0.107366023490     1.007825032230

  Basis Set: AUG-CC-PVTZ
    Blend: AUG-CC-PVTZ
  Basis Set: (AUG-CC-PVTZ AUX)
    Blend: AUG-CC-PVTZ-JKFIT
	 Reference Energy          =    -512.8800642629307731 [Eh]
	 Singles Energy            =      -0.0000000000000000 [Eh]
	 Same-Spin Energy          =      -0.5111647349843708 [Eh]
	 Opposite-Spin Energy      =      -1.6145483584910516 [Eh]
	 Correlation Energy        =      -2.1257130934754223 [Eh]
	 Total Energy              =    -515.0057773564061563 [Eh]

	 ================> DF-SCS-MP2 Energies <==================
	-----------------------------------------------------------
	 SCS Same-Spin Scale       =       0.3333333333333333 [-]
	 SCS Opposite-Spin Scale   =       1.2000000000000000 [-]
	 SCS Same-Spin Energy      =      -0.1703882449947902 [Eh]
	 SCS Opposite-Spin Energy  =      -1.9374580301892619 [Eh]
	 SCS Correlation Energy    =      -2.1078462751840523 [Eh]
	 SCS Total Energy          =    -514.9879105381148747 [Eh]
	-----------------------------------------------------------

  Dipole Moment: [D]
     X:    -0.4560      Y:     3.0733      Z:     1.8773     Total:     3.6301

*** Psi4 exiting successfully. Buy a developer a beer!
