                               Psi4 1.3.2 release

  ==> Input File <==

--------------------------------------------------------------------------
#psi4
#
memory 32 gb

molecule  {
0 1
  O       -1.9756670     1.6664010     0.1857370
  O        1.6511300    -1.1930600    -0.6768240
  O       -3.2820610    -0.0444860    -0.5140140
  N        0.2152580     0.2772540     0.2951010
  C       -0.9464590    -0.4858680    -0.1100250
  C       -1.2010820    -1.6869190     0.8036840
  C        2.5941300     0.7851170     0.3678910
  C        1.3167070    -0.2571795    -0.1235004
  C       -2.1892550     0.3702600    -0.1810000
  C        3.9493650     0.2879730    -0.1118860
  H       -0.7666830    -0.8628490    -1.1247510
  H        0.0773990     1.1958980     0.6978160
  H       -1.3680630    -1.3508140     1.8303240
  H       -2.0758160    -2.2433210     0.4601180
  H       -0.3237180    -2.3338760     0.7750620
  H        2.3897550     1.7945520    -0.0146150
  H        2.5759940     0.8629050     1.4619760
  H        4.1547340    -0.7097650     0.2816620
  H        3.9712690     0.2233490    -1.2012200
  H        4.7420490     0.9661550     0.2171920
  H       -2.8492950     2.1039740     0.1058080
units angstrom
no_reorient  #important for SAPT in psi4, default
symmetry c1  #important for SAPT in psi4, default
}

set PROPERTIES_ORIGIN ["COM"]
properties('MP2/aug-cc-pvtz', properties = ['dipole'])
--------------------------------------------------------------------------

    Molecular point group: c1
  Charge       = 0
  Multiplicity = 1
  Basis Set: AUG-CC-PVTZ
    Blend: AUG-CC-PVTZ
  Basis Set: (AUG-CC-PVTZ AUX)
    Blend: AUG-CC-PVTZ-JKFIT

    Orbital Energies [Eh]
    ---------------------

    Doubly Occupied:

       1A    -20.641339     2A    -20.568358     3A    -20.535931
       4A    -15.600148     5A    -11.409209     6A    -11.348793
       7A    -11.301234     8A    -11.234346     9A    -11.226634
      10A    -11.206573    11A     -1.483641    12A     -1.446696
      13A     -1.378383    14A     -1.285258    15A     -1.069472
      16A     -1.014395    17A     -0.934664    18A     -0.856139
      19A     -0.834390    20A     -0.807464    21A     -0.733779
      22A     -0.720786    23A     -0.690292    24A     -0.673341
      25A     -0.643297    26A     -0.640181    27A     -0.620923
      28A     -0.609156    29A     -0.589361    30A     -0.557064
      31A     -0.552570    32A     -0.532046    33A     -0.525130
      34A     -0.505110    35A     -0.499864    36A     -0.485548
      37A     -0.473716    38A     -0.420022    39A     -0.381823

  @DF-RHF Final Energy:  -512.84717929138822

   => Energetics <=

    Nuclear Repulsion Energy =            550.1298877485019148
    One-Electron Energy =               -1791.8799836250502722
    Two-Electron Energy =                 728.9029165851601419
    Total Energy =                       -512.8471792913882155
  Basis Set: (AUG-CC-PVTZ AUX)
    Blend: AUG-CC-PVTZ-RI
    Molecular point group: c1

    Geometry (in Angstrom), charge = 0, multiplicity = 1:

       Center              X                  Y                   Z               Mass
    ------------   -----------------  -----------------  -----------------  -----------------
         O           -1.963383071247     1.676423830520     0.190462480744    15.994914619570
         O            1.663413928753    -1.183037169480    -0.672098519256    15.994914619570
         O           -3.269777071247    -0.034463169480    -0.509288519256    15.994914619570
         N            0.227541928753     0.287276830520     0.299826480744    14.003074004430
         C           -0.934175071247    -0.475845169480    -0.105299519256    12.000000000000
         C           -1.188798071247    -1.676896169480     0.808409480744    12.000000000000
         C            2.606413928753     0.795139830520     0.372616480744    12.000000000000
         C            1.328990928753    -0.247156669480    -0.118774919256    12.000000000000
         C           -2.176971071247     0.380282830520    -0.176274519256    12.000000000000
         C            3.961648928753     0.297995830520    -0.107160519256    12.000000000000
         H           -0.754399071247    -0.852826169480    -1.120025519256     1.007825032230
         H            0.089682928753     1.205920830520     0.702541480744     1.007825032230
         H           -1.355779071247    -1.340791169480     1.835049480744     1.007825032230
         H           -2.063532071247    -2.233298169480     0.464843480744     1.007825032230
         H           -0.311434071247    -2.323853169480     0.779787480744     1.007825032230
         H            2.402038928753     1.804574830520    -0.009889519256     1.007825032230
         H            2.588277928753     0.872927830520     1.466701480744     1.007825032230
         H            4.167017928753    -0.699742169480     0.286387480744     1.007825032230
         H            3.983552928753     0.233371830520    -1.196494519256     1.007825032230
         H            4.754332928753     0.976177830520     0.221917480744     1.007825032230
         H           -2.837011071247     2.113996830520     0.110533480744     1.007825032230

  Basis Set: AUG-CC-PVTZ
    Blend: AUG-CC-PVTZ
  Basis Set: (AUG-CC-PVTZ AUX)
    Blend: AUG-CC-PVTZ-JKFIT
	 Reference Energy          =    -512.8471792913882155 [Eh]
	 Singles Energy            =      -0.0000000000000000 [Eh]
	 Same-Spin Energy          =      -0.5104573490486770 [Eh]
	 Opposite-Spin Energy      =      -1.6129884334475810 [Eh]
	 Correlation Energy        =      -2.1234457824962583 [Eh]
	 Total Energy              =    -514.9706250738844346 [Eh]

	 ================> DF-SCS-MP2 Energies <==================
	-----------------------------------------------------------
	 SCS Same-Spin Scale       =       0.3333333333333333 [-]
	 SCS Opposite-Spin Scale   =       1.2000000000000000 [-]
	 SCS Same-Spin Energy      =      -0.1701524496828923 [Eh]
	 SCS Opposite-Spin Energy  =      -1.9355861201370972 [Eh]
	 SCS Correlation Energy    =      -2.1057385698199895 [Eh]
	 SCS Total Energy          =    -514.9529178612082205 [Eh]
	-----------------------------------------------------------

  Dipole Moment: [D]
     X:    -1.1067      Y:     2.6520      Z:     1.6960     Total:     3.3368

*** Psi4 exiting successfully. Buy a developer a beer!
