                               Psi4 1.3.2 release

  ==> Input File <==

--------------------------------------------------------------------------
#psi4
#
memory 32 gb

molecule  {
0 1
  O       -2.0218319     1.6752616     0.1782183
  O        1.6511300    -1.1930600    -0.6768240
  O       -3.2979025    -0.0056413    -0.5077055
  N        0.2152580     0.2772540     0.2951010
  C       -0.9464590    -0.4858680    -0.1100250
  C       -1.2010820    -1.6869190     0.8036840
  C        2.5941300     0.7851170     0.3678910
  C        1.4652130    -0.1360080    -0.0663740
  C       -2.1892550     0.3702600    -0.1810000
  C        3.9493650     0.2879730    -0.1118860
  H       -0.7666830    -0.8628490    -1.1247510
  H        0.0773990     1.1958980     0.6978160
  H       -1.3680630    -1.3508140     1.8303240
  H       -2.0758160    -2.2433210     0.4601180
  H       -0.3237180    -2.3338760     0.7750620
  H        2.3897550     1.7945520    -0.0146150
  H        2.5759940     0.8629050     1.4619760
  H        4.1547340    -0.7097650     0.2816620
  H        3.9712690     0.2233490    -1.2012200
  H        4.7420490     0.9661550     0.2171920
  H       -2.8492950     2.1039740     0.1058080
units angstrom
no_reorient  #important for SAPT in psi4, default
symmetry c1  #important for SAPT in psi4, default
}

set PROPERTIES_ORIGIN ["COM"]
properties('MP2/aug-cc-pvtz', properties = ['dipole'])
--------------------------------------------------------------------------

    Molecular point group: c1
  Charge       = 0
  Multiplicity = 1
  Basis Set: AUG-CC-PVTZ
    Blend: AUG-CC-PVTZ
  Basis Set: (AUG-CC-PVTZ AUX)
    Blend: AUG-CC-PVTZ-JKFIT

    Orbital Energies [Eh]
    ---------------------

    Doubly Occupied:

       1A    -20.625792     2A    -20.560737     3A    -20.526226
       4A    -15.594769     5A    -11.404399     6A    -11.357827
       7A    -11.300815     8A    -11.248604     9A    -11.229082
      10A    -11.220311    11A     -1.482726    12A     -1.382320
      13A     -1.370276    14A     -1.247801    15A     -1.077056
      16A     -1.037606    17A     -0.931742    18A     -0.887842
      19A     -0.824419    20A     -0.793599    21A     -0.733029
      22A     -0.713652    23A     -0.684313    24A     -0.666025
      25A     -0.642024    26A     -0.632946    27A     -0.610156
      28A     -0.604210    29A     -0.582812    30A     -0.548394
      31A     -0.544835    32A     -0.525408    33A     -0.521502
      34A     -0.520109    35A     -0.496624    36A     -0.487615
      37A     -0.467567    38A     -0.430373    39A     -0.402362

  @DF-RHF Final Energy:  -512.88682661982443

   => Energetics <=

    Nuclear Repulsion Energy =            547.7427105922661212
    One-Electron Energy =               -1787.4232617753300474
    Two-Electron Energy =                 726.7937245632394934
    Total Energy =                       -512.8868266198244328
  Basis Set: (AUG-CC-PVTZ AUX)
    Blend: AUG-CC-PVTZ-RI
    Molecular point group: c1

    Geometry (in Angstrom), charge = 0, multiplicity = 1:

       Center              X                  Y                   Z               Mass
    ------------   -----------------  -----------------  -----------------  -----------------
         O           -2.014995436044     1.670001872430     0.178351915595    15.994914619570
         O            1.657966463956    -1.198319727570    -0.676690384405    15.994914619570
         O           -3.291066036044    -0.010901027570    -0.507571884405    15.994914619570
         N            0.222094463956     0.271994272430     0.295234615595    14.003074004430
         C           -0.939622536044    -0.491127727570    -0.109891384405    12.000000000000
         C           -1.194245536044    -1.692178727570     0.803817615595    12.000000000000
         C            2.600966463956     0.779857272430     0.368024615595    12.000000000000
         C            1.472049463956    -0.141267727570    -0.066240384405    12.000000000000
         C           -2.182418536044     0.365000272430    -0.180866384405    12.000000000000
         C            3.956201463956     0.282713272430    -0.111752384405    12.000000000000
         H           -0.759846536044    -0.868108727570    -1.124617384405     1.007825032230
         H            0.084235463956     1.190638272430     0.697949615595     1.007825032230
         H           -1.361226536044    -1.356073727570     1.830457615595     1.007825032230
         H           -2.068979536044    -2.248580727570     0.460251615595     1.007825032230
         H           -0.316881536044    -2.339135727570     0.775195615595     1.007825032230
         H            2.396591463956     1.789292272430    -0.014481384405     1.007825032230
         H            2.582830463956     0.857645272430     1.462109615595     1.007825032230
         H            4.161570463956    -0.715024727570     0.281795615595     1.007825032230
         H            3.978105463956     0.218089272430    -1.201086384405     1.007825032230
         H            4.748885463956     0.960895272430     0.217325615595     1.007825032230
         H           -2.842458536044     2.098714272430     0.105941615595     1.007825032230

  Basis Set: AUG-CC-PVTZ
    Blend: AUG-CC-PVTZ
  Basis Set: (AUG-CC-PVTZ AUX)
    Blend: AUG-CC-PVTZ-JKFIT
	 Reference Energy          =    -512.8868266198244328 [Eh]
	 Singles Energy            =      -0.0000000000000000 [Eh]
	 Same-Spin Energy          =      -0.5103318344824259 [Eh]
	 Opposite-Spin Energy      =      -1.6128874472495935 [Eh]
	 Correlation Energy        =      -2.1232192817320197 [Eh]
	 Total Energy              =    -515.0100459015563956 [Eh]

	 ================> DF-SCS-MP2 Energies <==================
	-----------------------------------------------------------
	 SCS Same-Spin Scale       =       0.3333333333333333 [-]
	 SCS Opposite-Spin Scale   =       1.2000000000000000 [-]
	 SCS Same-Spin Energy      =      -0.1701106114941420 [Eh]
	 SCS Opposite-Spin Energy  =      -1.9354649366995123 [Eh]
	 SCS Correlation Energy    =      -2.1055755481936540 [Eh]
	 SCS Total Energy          =    -514.9924021680180886 [Eh]
	-----------------------------------------------------------

  Dipole Moment: [D]
     X:     0.1459      Y:     3.1449      Z:     1.9658     Total:     3.7116

*** Psi4 exiting successfully. Buy a developer a beer!
