                               Psi4 1.3.2 release

  ==> Input File <==

--------------------------------------------------------------------------
#psi4
#
memory 32 gb

molecule  {
0 1
  O       -1.9756670     1.6664010     0.1857370
  O        1.6511300    -1.1930600    -0.6768240
  O       -3.2820610    -0.0444860    -0.5140140
  N        0.2188677     0.2611725     0.3142540
  C       -0.9464590    -0.4858680    -0.1100250
  C       -1.1796981    -1.6801288     0.8181783
  C        2.5941300     0.7851170     0.3678910
  C        1.4652130    -0.1360080    -0.0663740
  C       -2.1892550     0.3702600    -0.1810000
  C        3.9493650     0.2879730    -0.1118860
  H       -0.7666830    -0.8628490    -1.1247510
  H        0.0773990     1.1958980     0.6978160
  H       -1.3680630    -1.3508140     1.8303240
  H       -2.0758160    -2.2433210     0.4601180
  H       -0.3237180    -2.3338760     0.7750620
  H        2.3897550     1.7945520    -0.0146150
  H        2.5759940     0.8629050     1.4619760
  H        4.1547340    -0.7097650     0.2816620
  H        3.9712690     0.2233490    -1.2012200
  H        4.7420490     0.9661550     0.2171920
  H       -2.8492950     2.1039740     0.1058080
units angstrom
no_reorient  #important for SAPT in psi4, default
symmetry c1  #important for SAPT in psi4, default
}

set PROPERTIES_ORIGIN ["COM"]
properties('MP2/aug-cc-pvtz', properties = ['dipole'])
--------------------------------------------------------------------------

    Molecular point group: c1
  Charge       = 0
  Multiplicity = 1
  Basis Set: AUG-CC-PVTZ
    Blend: AUG-CC-PVTZ
  Basis Set: (AUG-CC-PVTZ AUX)
    Blend: AUG-CC-PVTZ-JKFIT

    Orbital Energies [Eh]
    ---------------------

    Doubly Occupied:

       1A    -20.636641     2A    -20.564539     3A    -20.524017
       4A    -15.592447     5A    -11.405670     6A    -11.355464
       7A    -11.296439     8A    -11.247466     9A    -11.226407
      10A    -11.219406    11A     -1.479023    12A     -1.380674
      13A     -1.374125    14A     -1.245218    15A     -1.074866
      16A     -1.035242    17A     -0.927714    18A     -0.885653
      19A     -0.816204    20A     -0.791658    21A     -0.731202
      22A     -0.714905    23A     -0.683245    24A     -0.665960
      25A     -0.641409    26A     -0.633758    27A     -0.611984
      28A     -0.601410    29A     -0.579417    30A     -0.547724
      31A     -0.541927    32A     -0.523711    33A     -0.519892
      34A     -0.519255    35A     -0.497456    36A     -0.488594
      37A     -0.468817    38A     -0.428528    39A     -0.400055

  @DF-RHF Final Energy:  -512.88462132969653

   => Energetics <=

    Nuclear Repulsion Energy =            548.2816436164978313
    One-Electron Energy =               -1788.5762864535352037
    Two-Electron Energy =                 727.4100215073408435
    Total Energy =                       -512.8846213296965288
  Basis Set: (AUG-CC-PVTZ AUX)
    Blend: AUG-CC-PVTZ-RI
    Molecular point group: c1

    Geometry (in Angstrom), charge = 0, multiplicity = 1:

       Center              X                  Y                   Z               Mass
    ------------   -----------------  -----------------  -----------------  -----------------
         O           -1.977784185396     1.667391537140     0.182689550333    15.994914619570
         O            1.649012814604    -1.192069462860    -0.679871449667    15.994914619570
         O           -3.284178185396    -0.043495462860    -0.517061449667    15.994914619570
         N            0.216750514604     0.262163037140     0.311206550333    14.003074004430
         C           -0.948576185396    -0.484877462860    -0.113072449667    12.000000000000
         C           -1.181815285396    -1.679138262860     0.815130850333    12.000000000000
         C            2.592012814604     0.786107537140     0.364843550333    12.000000000000
         C            1.463095814604    -0.135017462860    -0.069421449667    12.000000000000
         C           -2.191372185396     0.371250537140    -0.184047449667    12.000000000000
         C            3.947247814604     0.288963537140    -0.114933449667    12.000000000000
         H           -0.768800185396    -0.861858462860    -1.127798449667     1.007825032230
         H            0.075281814604     1.196888537140     0.694768550333     1.007825032230
         H           -1.370180185396    -1.349823462860     1.827276550333     1.007825032230
         H           -2.077933185396    -2.242330462860     0.457070550333     1.007825032230
         H           -0.325835185396    -2.332885462860     0.772014550333     1.007825032230
         H            2.387637814604     1.795542537140    -0.017662449667     1.007825032230
         H            2.573876814604     0.863895537140     1.458928550333     1.007825032230
         H            4.152616814604    -0.708774462860     0.278614550333     1.007825032230
         H            3.969151814604     0.224339537140    -1.204267449667     1.007825032230
         H            4.739931814604     0.967145537140     0.214144550333     1.007825032230
         H           -2.851412185396     2.104964537140     0.102760550333     1.007825032230

  Basis Set: AUG-CC-PVTZ
    Blend: AUG-CC-PVTZ
  Basis Set: (AUG-CC-PVTZ AUX)
    Blend: AUG-CC-PVTZ-JKFIT
	 Reference Energy          =    -512.8846213296965288 [Eh]
	 Singles Energy            =      -0.0000000000000000 [Eh]
	 Same-Spin Energy          =      -0.5114611600737045 [Eh]
	 Opposite-Spin Energy      =      -1.6152007476095451 [Eh]
	 Correlation Energy        =      -2.1266619076832498 [Eh]
	 Total Energy              =    -515.0112832373797573 [Eh]

	 ================> DF-SCS-MP2 Energies <==================
	-----------------------------------------------------------
	 SCS Same-Spin Scale       =       0.3333333333333333 [-]
	 SCS Opposite-Spin Scale   =       1.2000000000000000 [-]
	 SCS Same-Spin Energy      =      -0.1704870533579015 [Eh]
	 SCS Opposite-Spin Energy  =      -1.9382408971314540 [Eh]
	 SCS Correlation Energy    =      -2.1087279504893557 [Eh]
	 SCS Total Energy          =    -514.9933492801858392 [Eh]
	-----------------------------------------------------------

  Dipole Moment: [D]
     X:    -0.0710      Y:     3.3569      Z:     1.9331     Total:     3.8744

*** Psi4 exiting successfully. Buy a developer a beer!
