                               Psi4 1.4a3.dev225

  ==> Input File <==

--------------------------------------------------------------------------
#psi4
#
memory 32 gb

molecule  {
0 1
  O        2.1858500    -1.4843500     0.4466430
  O       -1.5901990     1.2021140    -0.7742790
  O        3.2899360     0.0893000    -0.7567370
  N       -0.1552130    -0.3501220     0.0655300
  C        0.9973750     0.5138300    -0.1038320
  C        1.1366130     1.5332170     1.0331740
  C       -2.5208420    -0.9251940    -0.0919400
  C       -1.4008270     0.0814870    -0.2899980
  C        2.2880950    -0.2849705    -0.2208339
  C       -3.8280260    -0.2360070     0.2837800
  H        0.8752740     1.0541530    -1.0466610
  H       -0.0274960    -1.2421660     0.5250420
  H        1.2555520     1.0181310     1.9903510
  H        2.0023980     2.1787030     0.8613650
  H        0.2327940     2.1443920     1.0604580
  H       -2.6404080    -1.4674310    -1.0380590
  H       -2.2372030    -1.6677960     0.6628800
  H       -3.7417830     0.2575120     1.2553170
  H       -4.0728600     0.5241080    -0.4590610
  H       -4.6456460    -0.9595500     0.3374610
  H        3.0673500    -1.9023430     0.3513230
units angstrom
no_reorient  #important for SAPT in psi4, default
symmetry c1  #important for SAPT in psi4, default
}

set PROPERTIES_ORIGIN ["COM"]
properties('MP2/aug-cc-pvtz', properties = ['dipole'])
--------------------------------------------------------------------------

    Molecular point group: c1
  Charge       = 0
  Multiplicity = 1
  Basis Set: AUG-CC-PVTZ
    Blend: AUG-CC-PVTZ
  Basis Set: (AUG-CC-PVTZ AUX)
    Blend: AUG-CC-PVTZ-JKFIT

    Orbital Energies [Eh]
    ---------------------

    Doubly Occupied:

       1A    -20.631055     2A    -20.568864     3A    -20.521977
       4A    -15.595199     5A    -11.402367     6A    -11.356305
       7A    -11.296026     8A    -11.247287     9A    -11.232203
      10A    -11.222020    11A     -1.477381    12A     -1.381924
      13A     -1.378429    14A     -1.244626    15A     -1.074716
      16A     -1.036325    17A     -0.925261    18A     -0.885223
      19A     -0.818748    20A     -0.793511    21A     -0.726854
      22A     -0.715803    23A     -0.679928    24A     -0.659732
      25A     -0.643469    26A     -0.635651    27A     -0.611849
      28A     -0.598331    29A     -0.583689    30A     -0.556253
      31A     -0.551428    32A     -0.527874    33A     -0.523277
      34A     -0.513206    35A     -0.501980    36A     -0.488920
      37A     -0.469094    38A     -0.427057    39A     -0.399579

  @DF-RHF Final Energy:  -512.88713304235034

   => Energetics <=

    Nuclear Repulsion Energy =            547.8130646324558484
    One-Electron Energy =               -1787.5935504606509312
    Two-Electron Energy =                 726.8933527858448542
    Total Energy =                       -512.8871330423503423
  Basis Set: (AUG-CC-PVTZ AUX)
    Blend: AUG-CC-PVTZ-RI
    Molecular point group: c1

    Geometry (in Angstrom), charge = 0, multiplicity = 1:

       Center              X                  Y                   Z               Mass
    ------------   -----------------  -----------------  -----------------  -----------------
         O            2.116677783520    -1.485292943458     0.478123502175    15.994914619570
         O           -1.659371216480     1.201171056542    -0.742798497825    15.994914619570
         O            3.220763783520     0.088357056542    -0.725256497825    15.994914619570
         N           -0.224385216480    -0.351064943458     0.097010502175    14.003074004430
         C            0.928202783520     0.512887056542    -0.072351497825    12.000000000000
         C            1.067440783520     1.532274056542     1.064654502175    12.000000000000
         C           -2.590014216480    -0.926136943458    -0.060459497825    12.000000000000
         C           -1.469999216480     0.080544056542    -0.258517497825    12.000000000000
         C            2.218922783520    -0.285913443458    -0.189353397825    12.000000000000
         C           -3.897198216480    -0.236949943458     0.315260502175    12.000000000000
         H            0.806101783520     1.053210056542    -1.015180497825     1.007825032230
         H           -0.096668216480    -1.243108943458     0.556522502175     1.007825032230
         H            1.186379783520     1.017188056542     2.021831502175     1.007825032230
         H            1.933225783520     2.177760056542     0.892845502175     1.007825032230
         H            0.163621783520     2.143449056542     1.091938502175     1.007825032230
         H           -2.709580216480    -1.468373943458    -1.006578497825     1.007825032230
         H           -2.306375216480    -1.668738943458     0.694360502175     1.007825032230
         H           -3.810955216480     0.256569056542     1.286797502175     1.007825032230
         H           -4.142032216480     0.523165056542    -0.427580497825     1.007825032230
         H           -4.714818216480    -0.960492943458     0.368941502175     1.007825032230
         H            2.998177783520    -1.903285943458     0.382803502175     1.007825032230

  Basis Set: AUG-CC-PVTZ
    Blend: AUG-CC-PVTZ
  Basis Set: (AUG-CC-PVTZ AUX)
    Blend: AUG-CC-PVTZ-JKFIT
	 Reference Energy          =    -512.8871330423503423 [Eh]
	 Singles Energy            =      -0.0000000000000000 [Eh]
	 Same-Spin Energy          =      -0.5108109090670867 [Eh]
	 Opposite-Spin Energy      =      -1.6144526765143659 [Eh]
	 Correlation Energy        =      -2.1252635855814526 [Eh]
	 Total Energy              =    -515.0123966279318211 [Eh]

	 ================> DF-SCS-MP2 Energies <==================
	-----------------------------------------------------------
	 SCS Same-Spin Scale       =       0.3333333333333333 [-]
	 SCS Opposite-Spin Scale   =       1.2000000000000000 [-]
	 SCS Same-Spin Energy      =      -0.1702703030223622 [Eh]
	 SCS Opposite-Spin Energy  =      -1.9373432118172389 [Eh]
	 SCS Correlation Energy    =      -2.1076135148396009 [Eh]
	 SCS Total Energy          =    -514.9947465571899556 [Eh]
	-----------------------------------------------------------

  Dipole Moment: [D]
     X:     0.2493      Y:    -3.2287      Z:     2.2145     Total:     3.9231

*** Psi4 exiting successfully. Buy a developer a beer!
