                               Psi4 1.3.2 release

  ==> Input File <==

--------------------------------------------------------------------------
#psi4
#
memory 32 gb

molecule  {
0 1
  O       -1.9756670     1.6664010     0.1857370
  O        1.6511300    -1.1930600    -0.6768240
  O       -3.2820610    -0.0444860    -0.5140140
  N        0.2152580     0.2772540     0.2951010
  C       -0.9464590    -0.4858680    -0.1100250
  C       -1.2010820    -1.6869190     0.8036840
  C        2.5941300     0.7851170     0.3678910
  C        1.4895804    -0.1760637    -0.0415145
  C       -2.1892550     0.3702600    -0.1810000
  C        3.9493650     0.2879730    -0.1118860
  H       -0.7666830    -0.8628490    -1.1247510
  H        0.0773990     1.1958980     0.6978160
  H       -1.3680630    -1.3508140     1.8303240
  H       -2.0758160    -2.2433210     0.4601180
  H       -0.3237180    -2.3338760     0.7750620
  H        2.4223217     1.8065875     0.0016684
  H        2.5759940     0.8629050     1.4619760
  H        4.1547340    -0.7097650     0.2816620
  H        3.9712690     0.2233490    -1.2012200
  H        4.7420490     0.9661550     0.2171920
  H       -2.8492950     2.1039740     0.1058080
units angstrom
no_reorient  #important for SAPT in psi4, default
symmetry c1  #important for SAPT in psi4, default
}

set PROPERTIES_ORIGIN ["COM"]
properties('MP2/aug-cc-pvtz', properties = ['dipole'])
--------------------------------------------------------------------------

    Molecular point group: c1
  Charge       = 0
  Multiplicity = 1
  Basis Set: AUG-CC-PVTZ
    Blend: AUG-CC-PVTZ
  Basis Set: (AUG-CC-PVTZ AUX)
    Blend: AUG-CC-PVTZ-JKFIT

    Orbital Energies [Eh]
    ---------------------

    Doubly Occupied:

       1A    -20.634064     2A    -20.562040     3A    -20.531815
       4A    -15.586337     5A    -11.402882     6A    -11.357843
       7A    -11.293595     8A    -11.247503     9A    -11.225607
      10A    -11.219976    11A     -1.476513    12A     -1.397126
      13A     -1.371807    14A     -1.238585    15A     -1.073137
      16A     -1.033432    17A     -0.925559    18A     -0.884185
      19A     -0.813989    20A     -0.786803    21A     -0.729353
      22A     -0.712874    23A     -0.684823    24A     -0.664520
      25A     -0.641849    26A     -0.634989    27A     -0.609176
      28A     -0.606526    29A     -0.580523    30A     -0.545022
      31A     -0.544412    32A     -0.525721    33A     -0.522011
      34A     -0.519410    35A     -0.497114    36A     -0.490647
      37A     -0.466743    38A     -0.431540    39A     -0.397986

  @DF-RHF Final Energy:  -512.88493875706797

   => Energetics <=

    Nuclear Repulsion Energy =            548.0682331158174065
    One-Electron Energy =               -1788.1702683736452855
    Two-Electron Energy =                 727.2170965007600216
    Total Energy =                       -512.8849387570679710
  Basis Set: (AUG-CC-PVTZ AUX)
    Blend: AUG-CC-PVTZ-RI
    Molecular point group: c1

    Geometry (in Angstrom), charge = 0, multiplicity = 1:

       Center              X                  Y                   Z               Mass
    ------------   -----------------  -----------------  -----------------  -----------------
         O           -1.977908788375     1.669630607726     0.183567776288    15.994914619570
         O            1.648888211625    -1.189830392274    -0.678993223712    15.994914619570
         O           -3.284302788375    -0.041256392274    -0.516183223712    15.994914619570
         N            0.213016211625     0.280483607726     0.292931776288    14.003074004430
         C           -0.948700788375    -0.482638392274    -0.112194223712    12.000000000000
         C           -1.203323788375    -1.683689392274     0.801514776288    12.000000000000
         C            2.591888211625     0.788346607726     0.365721776288    12.000000000000
         C            1.487338611625    -0.172834092274    -0.043683723712    12.000000000000
         C           -2.191496788375     0.373489607726    -0.183169223712    12.000000000000
         C            3.947123211625     0.291202607726    -0.114055223712    12.000000000000
         H           -0.768924788375    -0.859619392274    -1.126920223712     1.007825032230
         H            0.075157211625     1.199127607726     0.695646776288     1.007825032230
         H           -1.370304788375    -1.347584392274     1.828154776288     1.007825032230
         H           -2.078057788375    -2.240091392274     0.457948776288     1.007825032230
         H           -0.325959788375    -2.330646392274     0.772892776288     1.007825032230
         H            2.420079911625     1.809817107726    -0.000500823712     1.007825032230
         H            2.573752211625     0.866134607726     1.459806776288     1.007825032230
         H            4.152492211625    -0.706535392274     0.279492776288     1.007825032230
         H            3.969027211625     0.226578607726    -1.203389223712     1.007825032230
         H            4.739807211625     0.969384607726     0.215022776288     1.007825032230
         H           -2.851536788375     2.107203607726     0.103638776288     1.007825032230

  Basis Set: AUG-CC-PVTZ
    Blend: AUG-CC-PVTZ
  Basis Set: (AUG-CC-PVTZ AUX)
    Blend: AUG-CC-PVTZ-JKFIT
	 Reference Energy          =    -512.8849387570679710 [Eh]
	 Singles Energy            =      -0.0000000000000000 [Eh]
	 Same-Spin Energy          =      -0.5110165354441553 [Eh]
	 Opposite-Spin Energy      =      -1.6143290538153496 [Eh]
	 Correlation Energy        =      -2.1253455892595050 [Eh]
	 Total Energy              =    -515.0102843463274667 [Eh]

	 ================> DF-SCS-MP2 Energies <==================
	-----------------------------------------------------------
	 SCS Same-Spin Scale       =       0.3333333333333333 [-]
	 SCS Opposite-Spin Scale   =       1.2000000000000000 [-]
	 SCS Same-Spin Energy      =      -0.1703388451480518 [Eh]
	 SCS Opposite-Spin Energy  =      -1.9371948645784194 [Eh]
	 SCS Correlation Energy    =      -2.1075337097264710 [Eh]
	 SCS Total Energy          =    -514.9924724667944247 [Eh]
	-----------------------------------------------------------

  Dipole Moment: [D]
     X:     0.1871      Y:     3.1978      Z:     1.8973     Total:     3.7230

*** Psi4 exiting successfully. Buy a developer a beer!
