                               Psi4 1.3.2 release

  ==> Input File <==

--------------------------------------------------------------------------
#psi4
#
memory 32 gb

molecule  {
0 1
  O       -1.9756670     1.6664010     0.1857370
  O        1.6511300    -1.1930600    -0.6768240
  O       -3.2820610    -0.0444860    -0.5140140
  N        0.2152580     0.2772540     0.2951010
  C       -0.9464590    -0.4858680    -0.1100250
  C       -1.2010820    -1.6869190     0.8036840
  C        2.5941300     0.7851170     0.3678910
  C        1.4652130    -0.1360080    -0.0663740
  C       -2.1892550     0.3702600    -0.1810000
  C        3.9493650     0.2879730    -0.1118860
  H       -0.7666830    -0.8628490    -1.1247510
  H        0.0910151     1.1051649     0.6580404
  H       -1.3680630    -1.3508140     1.8303240
  H       -2.0758160    -2.2433210     0.4601180
  H       -0.3237180    -2.3338760     0.7750620
  H        2.3897550     1.7945520    -0.0146150
  H        2.5759940     0.8629050     1.4619760
  H        4.1547340    -0.7097650     0.2816620
  H        3.9712690     0.2233490    -1.2012200
  H        4.7420490     0.9661550     0.2171920
  H       -2.8492950     2.1039740     0.1058080
units angstrom
no_reorient  #important for SAPT in psi4, default
symmetry c1  #important for SAPT in psi4, default
}

set PROPERTIES_ORIGIN ["COM"]
properties('MP2/aug-cc-pvtz', properties = ['dipole'])
--------------------------------------------------------------------------

    Molecular point group: c1
  Charge       = 0
  Multiplicity = 1
  Basis Set: AUG-CC-PVTZ
    Blend: AUG-CC-PVTZ
  Basis Set: (AUG-CC-PVTZ AUX)
    Blend: AUG-CC-PVTZ-JKFIT

    Orbital Energies [Eh]
    ---------------------

    Doubly Occupied:

       1A    -20.635541     2A    -20.563745     3A    -20.525562
       4A    -15.583585     5A    -11.404769     6A    -11.357068
       7A    -11.296626     8A    -11.248300     9A    -11.227244
      10A    -11.220089    11A     -1.478143    12A     -1.382597
      13A     -1.373332    14A     -1.258158    15A     -1.076500
      16A     -1.038706    17A     -0.928539    18A     -0.887276
      19A     -0.828826    20A     -0.801726    21A     -0.733620
      22A     -0.716489    23A     -0.683740    24A     -0.667937
      25A     -0.641937    26A     -0.634247    27A     -0.610025
      28A     -0.606262    29A     -0.583136    30A     -0.546990
      31A     -0.544209    32A     -0.526068    33A     -0.520973
      34A     -0.519703    35A     -0.497852    36A     -0.488531
      37A     -0.468032    38A     -0.429968    39A     -0.402689

  @DF-RHF Final Energy:  -512.87983264741672

   => Energetics <=

    Nuclear Repulsion Energy =            548.8244197985534356
    One-Electron Energy =               -1789.5310286254393759
    Two-Electron Energy =                 727.8267761794692206
    Total Energy =                       -512.8798326474167197
  Basis Set: (AUG-CC-PVTZ AUX)
    Blend: AUG-CC-PVTZ-RI
    Molecular point group: c1

    Geometry (in Angstrom), charge = 0, multiplicity = 1:

       Center              X                  Y                   Z               Mass
    ------------   -----------------  -----------------  -----------------  -----------------
         O           -1.975761553734     1.667031272835     0.186013506912    15.994914619570
         O            1.651035446266    -1.192429727165    -0.676547493088    15.994914619570
         O           -3.282155553734    -0.043855727165    -0.513737493088    15.994914619570
         N            0.215163446266     0.277884272835     0.295377506912    14.003074004430
         C           -0.946553553734    -0.485237727165    -0.109748493088    12.000000000000
         C           -1.201176553734    -1.686288727165     0.803960506912    12.000000000000
         C            2.594035446266     0.785747272835     0.368167506912    12.000000000000
         C            1.465118446266    -0.135377727165    -0.066097493088    12.000000000000
         C           -2.189349553734     0.370890272835    -0.180723493088    12.000000000000
         C            3.949270446266     0.288603272835    -0.111609493088    12.000000000000
         H           -0.766777553734    -0.862218727165    -1.124474493088     1.007825032230
         H            0.090920546266     1.105795172835     0.658316906912     1.007825032230
         H           -1.368157553734    -1.350183727165     1.830600506912     1.007825032230
         H           -2.075910553734    -2.242690727165     0.460394506912     1.007825032230
         H           -0.323812553734    -2.333245727165     0.775338506912     1.007825032230
         H            2.389660446266     1.795182272835    -0.014338493088     1.007825032230
         H            2.575899446266     0.863535272835     1.462252506912     1.007825032230
         H            4.154639446266    -0.709134727165     0.281938506912     1.007825032230
         H            3.971174446266     0.223979272835    -1.200943493088     1.007825032230
         H            4.741954446266     0.966785272835     0.217468506912     1.007825032230
         H           -2.849389553734     2.104604272835     0.106084506912     1.007825032230

  Basis Set: AUG-CC-PVTZ
    Blend: AUG-CC-PVTZ
  Basis Set: (AUG-CC-PVTZ AUX)
    Blend: AUG-CC-PVTZ-JKFIT
	 Reference Energy          =    -512.8798326474167197 [Eh]
	 Singles Energy            =      -0.0000000000000000 [Eh]
	 Same-Spin Energy          =      -0.5105177307073495 [Eh]
	 Opposite-Spin Energy      =      -1.6133107878011652 [Eh]
	 Correlation Energy        =      -2.1238285185085148 [Eh]
	 Total Energy              =    -515.0036611659252230 [Eh]

	 ================> DF-SCS-MP2 Energies <==================
	-----------------------------------------------------------
	 SCS Same-Spin Scale       =       0.3333333333333333 [-]
	 SCS Opposite-Spin Scale   =       1.2000000000000000 [-]
	 SCS Same-Spin Energy      =      -0.1701725769024498 [Eh]
	 SCS Opposite-Spin Energy  =      -1.9359729453613981 [Eh]
	 SCS Correlation Energy    =      -2.1061455222638479 [Eh]
	 SCS Total Energy          =    -514.9859781696806067 [Eh]
	-----------------------------------------------------------

  Dipole Moment: [D]
     X:     0.0145      Y:     3.2286      Z:     1.9249     Total:     3.7589

*** Psi4 exiting successfully. Buy a developer a beer!
