                               Psi4 1.4a3.dev225

  ==> Input File <==

--------------------------------------------------------------------------
#psi4
#
memory 32 gb

molecule  {
0 1
  O        2.1858500    -1.4843500     0.4466430
  O       -1.5901990     1.2021140    -0.7742790
  O        3.2899360     0.0893000    -0.7567370
  N       -0.1552130    -0.3501220     0.0655300
  C        0.9973750     0.5138300    -0.1038320
  C        1.1347969     1.5199212     1.0183441
  C       -2.5208420    -0.9251940    -0.0919400
  C       -1.4008270     0.0814870    -0.2899980
  C        2.2713450    -0.2912280    -0.2118740
  C       -3.8280260    -0.2360070     0.2837800
  H        0.8752740     1.0541530    -1.0466610
  H       -0.0274960    -1.2421660     0.5250420
  H        1.2555520     1.0181310     1.9903510
  H        2.0023980     2.1787030     0.8613650
  H        0.2327940     2.1443920     1.0604580
  H       -2.6404080    -1.4674310    -1.0380590
  H       -2.2372030    -1.6677960     0.6628800
  H       -3.7417830     0.2575120     1.2553170
  H       -4.0728600     0.5241080    -0.4590610
  H       -4.6456460    -0.9595500     0.3374610
  H        3.0673500    -1.9023430     0.3513230
units angstrom
no_reorient  #important for SAPT in psi4, default
symmetry c1  #important for SAPT in psi4, default
}

set PROPERTIES_ORIGIN ["COM"]
properties('MP2/aug-cc-pvtz', properties = ['dipole'])
--------------------------------------------------------------------------

    Molecular point group: c1
  Charge       = 0
  Multiplicity = 1
  Basis Set: AUG-CC-PVTZ
    Blend: AUG-CC-PVTZ
  Basis Set: (AUG-CC-PVTZ AUX)
    Blend: AUG-CC-PVTZ-JKFIT

    Orbital Energies [Eh]
    ---------------------

    Doubly Occupied:

       1A    -20.634678     2A    -20.565424     3A    -20.522648
       4A    -15.595847     5A    -11.404234     6A    -11.356945
       7A    -11.296016     8A    -11.247761     9A    -11.233393
      10A    -11.222395    11A     -1.476761    12A     -1.379541
      13A     -1.372926    14A     -1.246563    15A     -1.077699
      16A     -1.038806    17A     -0.927001    18A     -0.886670
      19A     -0.822063    20A     -0.794706    21A     -0.728105
      22A     -0.714659    23A     -0.680655    24A     -0.661209
      25A     -0.643305    26A     -0.634701    27A     -0.611054
      28A     -0.598742    29A     -0.586628    30A     -0.555990
      31A     -0.549084    32A     -0.525529    33A     -0.523622
      34A     -0.513344    35A     -0.497828    36A     -0.487958
      37A     -0.469222    38A     -0.427575    39A     -0.401378

  @DF-RHF Final Energy:  -512.88572469699056

   => Energetics <=

    Nuclear Repulsion Energy =            548.2705605693136022
    One-Electron Energy =               -1788.4872395376505665
    Two-Electron Energy =                 727.3309542713463998
    Total Energy =                       -512.8857246969905646
  Basis Set: (AUG-CC-PVTZ AUX)
    Blend: AUG-CC-PVTZ-RI
    Molecular point group: c1

    Geometry (in Angstrom), charge = 0, multiplicity = 1:

       Center              X                  Y                   Z               Mass
    ------------   -----------------  -----------------  -----------------  -----------------
         O            2.118213505731    -1.483675563551     0.478609047841    15.994914619570
         O           -1.657835494269     1.202788436449    -0.742312952159    15.994914619570
         O            3.222299505731     0.089974436449    -0.724770952159    15.994914619570
         N           -0.222849494269    -0.349447563551     0.097496047841    14.003074004430
         C            0.929738505731     0.514504436449    -0.071865952159    12.000000000000
         C            1.067160405731     1.520595636449     1.050310147841    12.000000000000
         C           -2.588478494269    -0.924519563551    -0.059973952159    12.000000000000
         C           -1.468463494269     0.082161436449    -0.258031952159    12.000000000000
         C            2.203708505731    -0.290553563551    -0.179907952159    12.000000000000
         C           -3.895662494269    -0.235332563551     0.315746047841    12.000000000000
         H            0.807637505731     1.054827436449    -1.014694952159     1.007825032230
         H           -0.095132494269    -1.241491563551     0.557008047841     1.007825032230
         H            1.187915505731     1.018805436449     2.022317047841     1.007825032230
         H            1.934761505731     2.179377436449     0.893331047841     1.007825032230
         H            0.165157505731     2.145066436449     1.092424047841     1.007825032230
         H           -2.708044494269    -1.466756563551    -1.006092952159     1.007825032230
         H           -2.304839494269    -1.667121563551     0.694846047841     1.007825032230
         H           -3.809419494269     0.258186436449     1.287283047841     1.007825032230
         H           -4.140496494269     0.524782436449    -0.427094952159     1.007825032230
         H           -4.713282494269    -0.958875563551     0.369427047841     1.007825032230
         H            2.999713505731    -1.901668563551     0.383289047841     1.007825032230

  Basis Set: AUG-CC-PVTZ
    Blend: AUG-CC-PVTZ
  Basis Set: (AUG-CC-PVTZ AUX)
    Blend: AUG-CC-PVTZ-JKFIT
	 Reference Energy          =    -512.8857246969905646 [Eh]
	 Singles Energy            =      -0.0000000000000000 [Eh]
	 Same-Spin Energy          =      -0.5113330992794940 [Eh]
	 Opposite-Spin Energy      =      -1.6152679402174270 [Eh]
	 Correlation Energy        =      -2.1266010394969213 [Eh]
	 Total Energy              =    -515.0123257364874689 [Eh]

	 ================> DF-SCS-MP2 Energies <==================
	-----------------------------------------------------------
	 SCS Same-Spin Scale       =       0.3333333333333333 [-]
	 SCS Opposite-Spin Scale   =       1.2000000000000000 [-]
	 SCS Same-Spin Energy      =      -0.1704443664264980 [Eh]
	 SCS Opposite-Spin Energy  =      -1.9383215282609123 [Eh]
	 SCS Correlation Energy    =      -2.1087658946874104 [Eh]
	 SCS Total Energy          =    -514.9944905916779589 [Eh]
	-----------------------------------------------------------

  Dipole Moment: [D]
     X:     0.1429      Y:    -3.2873      Z:     2.2900     Total:     4.0088

*** Psi4 exiting successfully. Buy a developer a beer!
