                               Psi4 1.3.2 release

  ==> Input File <==

--------------------------------------------------------------------------
#psi4
#
memory 32 gb

molecule  {
0 1
  O       -1.9756670     1.6664010     0.1857370
  O        1.6511300    -1.1930600    -0.6768240
  O       -3.2820610    -0.0444860    -0.5140140
  N        0.2152580     0.2772540     0.2951010
  C       -0.8662178    -0.4331582    -0.0820424
  C       -1.2010820    -1.6869190     0.8036840
  C        2.5941300     0.7851170     0.3678910
  C        1.4652130    -0.1360080    -0.0663740
  C       -2.1892550     0.3702600    -0.1810000
  C        3.9493650     0.2879730    -0.1118860
  H       -0.7666830    -0.8628490    -1.1247510
  H        0.0773990     1.1958980     0.6978160
  H       -1.3680630    -1.3508140     1.8303240
  H       -2.0758160    -2.2433210     0.4601180
  H       -0.3237180    -2.3338760     0.7750620
  H        2.3897550     1.7945520    -0.0146150
  H        2.5759940     0.8629050     1.4619760
  H        4.1547340    -0.7097650     0.2816620
  H        3.9712690     0.2233490    -1.2012200
  H        4.7420490     0.9661550     0.2171920
  H       -2.8492950     2.1039740     0.1058080
units angstrom
no_reorient  #important for SAPT in psi4, default
symmetry c1  #important for SAPT in psi4, default
}

set PROPERTIES_ORIGIN ["COM"]
properties('MP2/aug-cc-pvtz', properties = ['dipole'])
--------------------------------------------------------------------------

    Molecular point group: c1
  Charge       = 0
  Multiplicity = 1
  Basis Set: AUG-CC-PVTZ
    Blend: AUG-CC-PVTZ
  Basis Set: (AUG-CC-PVTZ AUX)
    Blend: AUG-CC-PVTZ-JKFIT

    Orbital Energies [Eh]
    ---------------------

    Doubly Occupied:

       1A    -20.632675     2A    -20.562859     3A    -20.529914
       4A    -15.595828     5A    -11.403996     6A    -11.360721
       7A    -11.295264     8A    -11.250656     9A    -11.224618
      10A    -11.221712    11A     -1.475785    12A     -1.388704
      13A     -1.370898    14A     -1.271183    15A     -1.073784
      16A     -1.028341    17A     -0.925779    18A     -0.887949
      19A     -0.818226    20A     -0.802448    21A     -0.737070
      22A     -0.713182    23A     -0.690484    24A     -0.662772
      25A     -0.643393    26A     -0.634017    27A     -0.608040
      28A     -0.601349    29A     -0.587983    30A     -0.547146
      31A     -0.533636    32A     -0.531708    33A     -0.522216
      34A     -0.515126    35A     -0.498277    36A     -0.486733
      37A     -0.460726    38A     -0.433789    39A     -0.395295

  @DF-RHF Final Energy:  -512.87335670132688

   => Energetics <=

    Nuclear Repulsion Energy =            549.0883376772576412
    One-Electron Energy =               -1790.0748244960759621
    Two-Electron Energy =                 728.1131301174914370
    Total Energy =                       -512.8733567013268839
  Basis Set: (AUG-CC-PVTZ AUX)
    Blend: AUG-CC-PVTZ-RI
    Molecular point group: c1

    Geometry (in Angstrom), charge = 0, multiplicity = 1:

       Center              X                  Y                   Z               Mass
    ------------   -----------------  -----------------  -----------------  -----------------
         O           -1.982304231624     1.662040983588     0.183422564896    15.994914619570
         O            1.644492768376    -1.197420016412    -0.679138435104    15.994914619570
         O           -3.288698231624    -0.048846016412    -0.516328435104    15.994914619570
         N            0.208620768376     0.272893983588     0.292786564896    14.003074004430
         C           -0.872855031624    -0.437518216412    -0.084356835104    12.000000000000
         C           -1.207719231624    -1.691279016412     0.801369564896    12.000000000000
         C            2.587492768376     0.780756983588     0.365576564896    12.000000000000
         C            1.458575768376    -0.140368016412    -0.068688435104    12.000000000000
         C           -2.195892231624     0.365899983588    -0.183314435104    12.000000000000
         C            3.942727768376     0.283612983588    -0.114200435104    12.000000000000
         H           -0.773320231624    -0.867209016412    -1.127065435104     1.007825032230
         H            0.070761768376     1.191537983588     0.695501564896     1.007825032230
         H           -1.374700231624    -1.355174016412     1.828009564896     1.007825032230
         H           -2.082453231624    -2.247681016412     0.457803564896     1.007825032230
         H           -0.330355231624    -2.338236016412     0.772747564896     1.007825032230
         H            2.383117768376     1.790191983588    -0.016929435104     1.007825032230
         H            2.569356768376     0.858544983588     1.459661564896     1.007825032230
         H            4.148096768376    -0.714125016412     0.279347564896     1.007825032230
         H            3.964631768376     0.218988983588    -1.203534435104     1.007825032230
         H            4.735411768376     0.961794983588     0.214877564896     1.007825032230
         H           -2.855932231624     2.099613983588     0.103493564896     1.007825032230

  Basis Set: AUG-CC-PVTZ
    Blend: AUG-CC-PVTZ
  Basis Set: (AUG-CC-PVTZ AUX)
    Blend: AUG-CC-PVTZ-JKFIT
	 Reference Energy          =    -512.8733567013268839 [Eh]
	 Singles Energy            =      -0.0000000000000000 [Eh]
	 Same-Spin Energy          =      -0.5124471765107940 [Eh]
	 Opposite-Spin Energy      =      -1.6160070019742039 [Eh]
	 Correlation Energy        =      -2.1284541784849980 [Eh]
	 Total Energy              =    -515.0018108798118419 [Eh]

	 ================> DF-SCS-MP2 Energies <==================
	-----------------------------------------------------------
	 SCS Same-Spin Scale       =       0.3333333333333333 [-]
	 SCS Opposite-Spin Scale   =       1.2000000000000000 [-]
	 SCS Same-Spin Energy      =      -0.1708157255035980 [Eh]
	 SCS Opposite-Spin Energy  =      -1.9392084023690446 [Eh]
	 SCS Correlation Energy    =      -2.1100241278726424 [Eh]
	 SCS Total Energy          =    -514.9833808291995183 [Eh]
	-----------------------------------------------------------

  Dipole Moment: [D]
     X:     0.2693      Y:     3.4399      Z:     1.9649     Total:     3.9707

*** Psi4 exiting successfully. Buy a developer a beer!
