                               Psi4 1.3.2 release

  ==> Input File <==

--------------------------------------------------------------------------
#psi4
#
memory 32 gb

molecule  {
0 1
  O       -1.9756670     1.6664010     0.1857370
  O        1.6511300    -1.1930600    -0.6768240
  O       -3.2820610    -0.0444860    -0.5140140
  N        0.2152580     0.2772540     0.2951010
  C       -0.9757963    -0.4477189    -0.0946072
  C       -1.2010820    -1.6869190     0.8036840
  C        2.5941300     0.7851170     0.3678910
  C        1.4652130    -0.1360080    -0.0663740
  C       -2.1892550     0.3702600    -0.1810000
  C        3.9493650     0.2879730    -0.1118860
  H       -0.7666830    -0.8628490    -1.1247510
  H        0.0425228     1.1916600     0.6939939
  H       -1.3680630    -1.3508140     1.8303240
  H       -2.0758160    -2.2433210     0.4601180
  H       -0.3237180    -2.3338760     0.7750620
  H        2.3897550     1.7945520    -0.0146150
  H        2.5759940     0.8629050     1.4619760
  H        4.1547340    -0.7097650     0.2816620
  H        3.9712690     0.2233490    -1.2012200
  H        4.7420490     0.9661550     0.2171920
  H       -2.8492950     2.1039740     0.1058080
units angstrom
no_reorient  #important for SAPT in psi4, default
symmetry c1  #important for SAPT in psi4, default
}

set PROPERTIES_ORIGIN ["COM"]
properties('MP2/aug-cc-pvtz', properties = ['dipole'])
--------------------------------------------------------------------------

    Molecular point group: c1
  Charge       = 0
  Multiplicity = 1
  Basis Set: AUG-CC-PVTZ
    Blend: AUG-CC-PVTZ
  Basis Set: (AUG-CC-PVTZ AUX)
    Blend: AUG-CC-PVTZ-JKFIT

    Orbital Energies [Eh]
    ---------------------

    Doubly Occupied:

       1A    -20.636494     2A    -20.564078     3A    -20.525232
       4A    -15.592782     5A    -11.404847     6A    -11.357785
       7A    -11.295817     8A    -11.247760     9A    -11.228729
      10A    -11.219582    11A     -1.480419    12A     -1.380722
      13A     -1.374615    14A     -1.245893    15A     -1.075963
      16A     -1.036675    17A     -0.932536    18A     -0.888163
      19A     -0.813065    20A     -0.795587    21A     -0.734025
      22A     -0.715215    23A     -0.683149    24A     -0.666725
      25A     -0.641558    26A     -0.630857    27A     -0.611964
      28A     -0.601256    29A     -0.576941    30A     -0.549083
      31A     -0.544460    32A     -0.523384    33A     -0.519630
      34A     -0.517098    35A     -0.498003    36A     -0.486060
      37A     -0.471570    38A     -0.429688    39A     -0.398539

  @DF-RHF Final Energy:  -512.88176569675738

   => Energetics <=

    Nuclear Repulsion Energy =            548.5072990930026435
    One-Electron Energy =               -1788.9862344240675611
    Two-Electron Energy =                 727.5971696343074200
    Total Energy =                       -512.8817656967573839
  Basis Set: (AUG-CC-PVTZ AUX)
    Blend: AUG-CC-PVTZ-RI
    Molecular point group: c1

    Geometry (in Angstrom), charge = 0, multiplicity = 1:

       Center              X                  Y                   Z               Mass
    ------------   -----------------  -----------------  -----------------  -----------------
         O           -1.972998001003     1.663274834548     0.184488432811    15.994914619570
         O            1.653798998997    -1.196186165452    -0.678072567189    15.994914619570
         O           -3.279392001003    -0.047612165452    -0.515262567189    15.994914619570
         N            0.217926998997     0.274127834548     0.293852432811    14.003074004430
         C           -0.973127301003    -0.450845065452    -0.095855767189    12.000000000000
         C           -1.198413001003    -1.690045165452     0.802435432811    12.000000000000
         C            2.596798998997     0.781990834548     0.366642432811    12.000000000000
         C            1.467881998997    -0.139134165452    -0.067622567189    12.000000000000
         C           -2.186586001003     0.367133834548    -0.182248567189    12.000000000000
         C            3.952033998997     0.284846834548    -0.113134567189    12.000000000000
         H           -0.764014001003    -0.865975165452    -1.125999567189     1.007825032230
         H            0.045191798997     1.188533834548     0.692745332811     1.007825032230
         H           -1.365394001003    -1.353940165452     1.829075432811     1.007825032230
         H           -2.073147001003    -2.246447165452     0.458869432811     1.007825032230
         H           -0.321049001003    -2.337002165452     0.773813432811     1.007825032230
         H            2.392423998997     1.791425834548    -0.015863567189     1.007825032230
         H            2.578662998997     0.859778834548     1.460727432811     1.007825032230
         H            4.157402998997    -0.712891165452     0.280413432811     1.007825032230
         H            3.973937998997     0.220222834548    -1.202468567189     1.007825032230
         H            4.744717998997     0.963028834548     0.215943432811     1.007825032230
         H           -2.846626001003     2.100847834548     0.104559432811     1.007825032230

  Basis Set: AUG-CC-PVTZ
    Blend: AUG-CC-PVTZ
  Basis Set: (AUG-CC-PVTZ AUX)
    Blend: AUG-CC-PVTZ-JKFIT
	 Reference Energy          =    -512.8817656967573839 [Eh]
	 Singles Energy            =      -0.0000000000000000 [Eh]
	 Same-Spin Energy          =      -0.5119210976266079 [Eh]
	 Opposite-Spin Energy      =      -1.6158078601859791 [Eh]
	 Correlation Energy        =      -2.1277289578125869 [Eh]
	 Total Energy              =    -515.0094946545699486 [Eh]

	 ================> DF-SCS-MP2 Energies <==================
	-----------------------------------------------------------
	 SCS Same-Spin Scale       =       0.3333333333333333 [-]
	 SCS Opposite-Spin Scale   =       1.2000000000000000 [-]
	 SCS Same-Spin Energy      =      -0.1706403658755359 [Eh]
	 SCS Opposite-Spin Energy  =      -1.9389694322231747 [Eh]
	 SCS Correlation Energy    =      -2.1096097980987105 [Eh]
	 SCS Total Energy          =    -514.9913754948561291 [Eh]
	-----------------------------------------------------------

  Dipole Moment: [D]
     X:    -0.0326      Y:     3.3082      Z:     1.9617     Total:     3.8462

*** Psi4 exiting successfully. Buy a developer a beer!
