                               Psi4 1.3.2 release

  ==> Input File <==

--------------------------------------------------------------------------
#psi4
#
memory 32 gb

molecule  {
0 1
  O       -1.9871490     1.6688065     0.1837292
  O        1.6511300    -1.1930600    -0.6768240
  O       -3.2820610    -0.0444860    -0.5140140
  N        0.2152580     0.2772540     0.2951010
  C       -0.9534482    -0.4962550    -0.1141584
  C       -1.2010820    -1.6869190     0.8036840
  C        2.5941300     0.7851170     0.3678910
  C        1.4652130    -0.1360080    -0.0663740
  C       -2.1892550     0.3702600    -0.1810000
  C        3.9493650     0.2879730    -0.1118860
  H       -0.7666830    -0.8628490    -1.1247510
  H        0.0773990     1.1958980     0.6978160
  H       -1.3680630    -1.3508140     1.8303240
  H       -2.0758160    -2.2433210     0.4601180
  H       -0.3237180    -2.3338760     0.7750620
  H        2.3897550     1.7945520    -0.0146150
  H        2.5759940     0.8629050     1.4619760
  H        4.1547340    -0.7097650     0.2816620
  H        3.9712690     0.2233490    -1.2012200
  H        4.7420490     0.9661550     0.2171920
  H       -2.8492950     2.1039740     0.1058080
units angstrom
no_reorient  #important for SAPT in psi4, default
symmetry c1  #important for SAPT in psi4, default
}

set PROPERTIES_ORIGIN ["COM"]
properties('MP2/aug-cc-pvtz', properties = ['dipole'])
--------------------------------------------------------------------------

    Molecular point group: c1
  Charge       = 0
  Multiplicity = 1
  Basis Set: AUG-CC-PVTZ
    Blend: AUG-CC-PVTZ
  Basis Set: (AUG-CC-PVTZ AUX)
    Blend: AUG-CC-PVTZ-JKFIT

    Orbital Energies [Eh]
    ---------------------

    Doubly Occupied:

       1A    -20.634790     2A    -20.563335     3A    -20.524197
       4A    -15.592138     5A    -11.404824     6A    -11.355744
       7A    -11.297385     8A    -11.247295     9A    -11.227211
      10A    -11.219331    11A     -1.479679    12A     -1.380067
      13A     -1.373799    14A     -1.242911    15A     -1.075494
      16A     -1.036494    17A     -0.928656    18A     -0.885239
      19A     -0.819038    20A     -0.791323    21A     -0.730270
      22A     -0.715032    23A     -0.682222    24A     -0.666087
      25A     -0.641052    26A     -0.633444    27A     -0.611029
      28A     -0.602706    29A     -0.580703    30A     -0.547452
      31A     -0.544352    32A     -0.523139    33A     -0.521466
      34A     -0.519139    35A     -0.497210    36A     -0.488498
      37A     -0.468072    38A     -0.428324    39A     -0.400863

  @DF-RHF Final Energy:  -512.88675528199178

   => Energetics <=

    Nuclear Repulsion Energy =            547.9898019666426308
    One-Electron Energy =               -1787.9930903003651110
    Two-Electron Energy =                 727.1165330517308121
    Total Energy =                       -512.8867552819917819
  Basis Set: (AUG-CC-PVTZ AUX)
    Blend: AUG-CC-PVTZ-RI
    Molecular point group: c1

    Geometry (in Angstrom), charge = 0, multiplicity = 1:

       Center              X                  Y                   Z               Mass
    ------------   -----------------  -----------------  -----------------  -----------------
         O           -1.985304909572     1.669400413044     0.184292654090    15.994914619570
         O            1.652974090428    -1.192466086956    -0.676260545910    15.994914619570
         O           -3.280216909572    -0.043892086956    -0.513450545910    15.994914619570
         N            0.217102090428     0.277847913044     0.295664454090    14.003074004430
         C           -0.951604109572    -0.495661086956    -0.113594945910    12.000000000000
         C           -1.199237909572    -1.686325086956     0.804247454090    12.000000000000
         C            2.595974090428     0.785710913044     0.368454454090    12.000000000000
         C            1.467057090428    -0.135414086956    -0.065810545910    12.000000000000
         C           -2.187410909572     0.370853913044    -0.180436545910    12.000000000000
         C            3.951209090428     0.288566913044    -0.111322545910    12.000000000000
         H           -0.764838909572    -0.862255086956    -1.124187545910     1.007825032230
         H            0.079243090428     1.196491913044     0.698379454090     1.007825032230
         H           -1.366218909572    -1.350220086956     1.830887454090     1.007825032230
         H           -2.073971909572    -2.242727086956     0.460681454090     1.007825032230
         H           -0.321873909572    -2.333282086956     0.775625454090     1.007825032230
         H            2.391599090428     1.795145913044    -0.014051545910     1.007825032230
         H            2.577838090428     0.863498913044     1.462539454090     1.007825032230
         H            4.156578090428    -0.709171086956     0.282225454090     1.007825032230
         H            3.973113090428     0.223942913044    -1.200656545910     1.007825032230
         H            4.743893090428     0.966748913044     0.217755454090     1.007825032230
         H           -2.847450909572     2.104567913044     0.106371454090     1.007825032230

  Basis Set: AUG-CC-PVTZ
    Blend: AUG-CC-PVTZ
  Basis Set: (AUG-CC-PVTZ AUX)
    Blend: AUG-CC-PVTZ-JKFIT
	 Reference Energy          =    -512.8867552819917819 [Eh]
	 Singles Energy            =      -0.0000000000000000 [Eh]
	 Same-Spin Energy          =      -0.5110353435999255 [Eh]
	 Opposite-Spin Energy      =      -1.6144192403963771 [Eh]
	 Correlation Energy        =      -2.1254545839963024 [Eh]
	 Total Energy              =    -515.0122098659880976 [Eh]

	 ================> DF-SCS-MP2 Energies <==================
	-----------------------------------------------------------
	 SCS Same-Spin Scale       =       0.3333333333333333 [-]
	 SCS Opposite-Spin Scale   =       1.2000000000000000 [-]
	 SCS Same-Spin Energy      =      -0.1703451145333085 [Eh]
	 SCS Opposite-Spin Energy  =      -1.9373030884756524 [Eh]
	 SCS Correlation Energy    =      -2.1076482030089609 [Eh]
	 SCS Total Energy          =    -514.9944034850007029 [Eh]
	-----------------------------------------------------------

  Dipole Moment: [D]
     X:    -0.0592      Y:     3.2846      Z:     1.9633     Total:     3.8271

*** Psi4 exiting successfully. Buy a developer a beer!
