                               Psi4 1.3.2 release

  ==> Input File <==

--------------------------------------------------------------------------
#psi4
#
memory 32 gb

molecule  {
0 1
  O       -1.9756670     1.6664010     0.1857370
  O        1.6511300    -1.1930600    -0.6768240
  O       -3.2820610    -0.0444860    -0.5140140
  N        0.2152580     0.2772540     0.2951010
  C       -0.9464590    -0.4858680    -0.1100250
  C       -1.2010820    -1.6869190     0.8036840
  C        2.5941300     0.7851170     0.3678910
  C        1.4350985     0.0352111     0.0325054
  C       -2.1892550     0.3702600    -0.1810000
  C        3.9493650     0.2879730    -0.1118860
  H       -0.7666830    -0.8628490    -1.1247510
  H        0.0773990     1.1958980     0.6978160
  H       -1.3680630    -1.3508140     1.8303240
  H       -2.0758160    -2.2433210     0.4601180
  H       -0.3237180    -2.3338760     0.7750620
  H        2.3897550     1.7945520    -0.0146150
  H        2.5759940     0.8629050     1.4619760
  H        4.1547340    -0.7097650     0.2816620
  H        3.9712690     0.2233490    -1.2012200
  H        4.7420490     0.9661550     0.2171920
  H       -2.8492950     2.1039740     0.1058080
units angstrom
no_reorient  #important for SAPT in psi4, default
symmetry c1  #important for SAPT in psi4, default
}

set PROPERTIES_ORIGIN ["COM"]
properties('MP2/aug-cc-pvtz', properties = ['dipole'])
--------------------------------------------------------------------------

    Molecular point group: c1
  Charge       = 0
  Multiplicity = 1
  Basis Set: AUG-CC-PVTZ
    Blend: AUG-CC-PVTZ
  Basis Set: (AUG-CC-PVTZ AUX)
    Blend: AUG-CC-PVTZ-JKFIT

    Orbital Energies [Eh]
    ---------------------

    Doubly Occupied:

       1A    -20.643071     2A    -20.571010     3A    -20.484564
       4A    -15.620809     5A    -11.413110     6A    -11.356237
       7A    -11.309427     8A    -11.253199     9A    -11.231984
      10A    -11.222052    11A     -1.485855    12A     -1.380730
      13A     -1.340431    14A     -1.205014    15A     -1.095690
      16A     -1.053789    17A     -0.938526    18A     -0.905879
      19A     -0.828562    20A     -0.810532    21A     -0.745352
      22A     -0.720891    23A     -0.685428    24A     -0.674529
      25A     -0.651245    26A     -0.638393    27A     -0.617915
      28A     -0.596857    29A     -0.558646    30A     -0.546537
      31A     -0.543739    32A     -0.537748    33A     -0.522889
      34A     -0.503175    35A     -0.482349    36A     -0.475361
      37A     -0.469142    38A     -0.398412    39A     -0.377755

  @DF-RHF Final Energy:  -512.82102294172660

   => Energetics <=

    Nuclear Repulsion Energy =            547.8136107719176380
    One-Electron Energy =               -1787.4756019858357377
    Two-Electron Energy =                 726.8409682721915033
    Total Energy =                       -512.8210229417265964
  Basis Set: (AUG-CC-PVTZ AUX)
    Blend: AUG-CC-PVTZ-RI
    Molecular point group: c1

    Geometry (in Angstrom), charge = 0, multiplicity = 1:

       Center              X                  Y                   Z               Mass
    ------------   -----------------  -----------------  -----------------  -----------------
         O           -1.973175997931     1.652238312904     0.177558232030    15.994914619570
         O            1.653621002069    -1.207222687096    -0.685002767970    15.994914619570
         O           -3.279569997931    -0.058648687096    -0.522192767970    15.994914619570
         N            0.217749002069     0.263091312904     0.286922232030    14.003074004430
         C           -0.943967997931    -0.500030687096    -0.118203767970    12.000000000000
         C           -1.198590997931    -1.701081687096     0.795505232030    12.000000000000
         C            2.596621002069     0.770954312904     0.359712232030    12.000000000000
         C            1.437589502069     0.021048412904     0.024326632030    12.000000000000
         C           -2.186763997931     0.356097312904    -0.189178767970    12.000000000000
         C            3.951856002069     0.273810312904    -0.120064767970    12.000000000000
         H           -0.764191997931    -0.877011687096    -1.132929767970     1.007825032230
         H            0.079890002069     1.181735312904     0.689637232030     1.007825032230
         H           -1.365571997931    -1.364976687096     1.822145232030     1.007825032230
         H           -2.073324997931    -2.257483687096     0.451939232030     1.007825032230
         H           -0.321226997931    -2.348038687096     0.766883232030     1.007825032230
         H            2.392246002069     1.780389312904    -0.022793767970     1.007825032230
         H            2.578485002069     0.848742312904     1.453797232030     1.007825032230
         H            4.157225002069    -0.723927687096     0.273483232030     1.007825032230
         H            3.973760002069     0.209186312904    -1.209398767970     1.007825032230
         H            4.744540002069     0.951992312904     0.209013232030     1.007825032230
         H           -2.846803997931     2.089811312904     0.097629232030     1.007825032230

  Basis Set: AUG-CC-PVTZ
    Blend: AUG-CC-PVTZ
  Basis Set: (AUG-CC-PVTZ AUX)
    Blend: AUG-CC-PVTZ-JKFIT
	 Reference Energy          =    -512.8210229417265964 [Eh]
	 Singles Energy            =      -0.0000000000000000 [Eh]
	 Same-Spin Energy          =      -0.5157092004386206 [Eh]
	 Opposite-Spin Energy      =      -1.6233675005382500 [Eh]
	 Correlation Energy        =      -2.1390767009768705 [Eh]
	 Total Energy              =    -514.9600996427034261 [Eh]

	 ================> DF-SCS-MP2 Energies <==================
	-----------------------------------------------------------
	 SCS Same-Spin Scale       =       0.3333333333333333 [-]
	 SCS Opposite-Spin Scale   =       1.2000000000000000 [-]
	 SCS Same-Spin Energy      =      -0.1719030668128735 [Eh]
	 SCS Opposite-Spin Energy  =      -1.9480410006458999 [Eh]
	 SCS Correlation Energy    =      -2.1199440674587735 [Eh]
	 SCS Total Energy          =    -514.9409670091853286 [Eh]
	-----------------------------------------------------------

  Dipole Moment: [D]
     X:    -0.7050      Y:     4.1094      Z:     2.5270     Total:     4.8755

*** Psi4 exiting successfully. Buy a developer a beer!
