                               Psi4 1.3.2 release

  ==> Input File <==

--------------------------------------------------------------------------
#psi4
#
memory 32 gb

molecule  {
0 1
  O       -1.9756670     1.6664010     0.1857370
  O        1.6511300    -1.1930600    -0.6768240
  O       -3.2820610    -0.0444860    -0.5140140
  N        0.2152580     0.2772540     0.2951010
  C       -0.9464590    -0.4858680    -0.1100250
  C       -1.1844447    -1.6084411     0.7439813
  C        2.5941300     0.7851170     0.3678910
  C        1.4652130    -0.1360080    -0.0663740
  C       -2.1892550     0.3702600    -0.1810000
  C        3.9493650     0.2879730    -0.1118860
  H       -0.7666830    -0.8628490    -1.1247510
  H        0.0773990     1.1958980     0.6978160
  H       -1.3680630    -1.3508140     1.8303240
  H       -2.0758160    -2.2433210     0.4601180
  H       -0.3237180    -2.3338760     0.7750620
  H        2.3897550     1.7945520    -0.0146150
  H        2.5759940     0.8629050     1.4619760
  H        4.1547340    -0.7097650     0.2816620
  H        3.9712690     0.2233490    -1.2012200
  H        4.7420490     0.9661550     0.2171920
  H       -2.8492950     2.1039740     0.1058080
units angstrom
no_reorient  #important for SAPT in psi4, default
symmetry c1  #important for SAPT in psi4, default
}

set PROPERTIES_ORIGIN ["COM"]
properties('MP2/aug-cc-pvtz', properties = ['dipole'])
--------------------------------------------------------------------------

    Molecular point group: c1
  Charge       = 0
  Multiplicity = 1
  Basis Set: AUG-CC-PVTZ
    Blend: AUG-CC-PVTZ
  Basis Set: (AUG-CC-PVTZ AUX)
    Blend: AUG-CC-PVTZ-JKFIT

    Orbital Energies [Eh]
    ---------------------

    Doubly Occupied:

       1A    -20.636701     2A    -20.564841     3A    -20.524553
       4A    -15.592041     5A    -11.405568     6A    -11.356288
       7A    -11.293105     8A    -11.247572     9A    -11.229914
      10A    -11.219495    11A     -1.479322    12A     -1.380901
      13A     -1.374475    14A     -1.248666    15A     -1.084432
      16A     -1.041904    17A     -0.924100    18A     -0.885913
      19A     -0.814908    20A     -0.792815    21A     -0.733812
      22A     -0.715406    23A     -0.685684    24A     -0.667449
      25A     -0.641384    26A     -0.637788    27A     -0.611818
      28A     -0.605024    29A     -0.592379    30A     -0.545675
      31A     -0.536073    32A     -0.519530    33A     -0.518098
      34A     -0.509582    35A     -0.495197    36A     -0.489051
      37A     -0.465021    38A     -0.428115    39A     -0.404376

  @DF-RHF Final Energy:  -512.87444946285837

   => Energetics <=

    Nuclear Repulsion Energy =            550.1722237161958446
    One-Electron Energy =               -1792.2953889334455653
    Two-Electron Energy =                 729.2487157543912417
    Total Energy =                       -512.8744494628583652
  Basis Set: (AUG-CC-PVTZ AUX)
    Blend: AUG-CC-PVTZ-RI
    Molecular point group: c1

    Geometry (in Angstrom), charge = 0, multiplicity = 1:

       Center              X                  Y                   Z               Mass
    ------------   -----------------  -----------------  -----------------  -----------------
         O           -1.977043141685     1.659909537377     0.190675583180    15.994914619570
         O            1.649753858315    -1.199551462623    -0.671885416820    15.994914619570
         O           -3.283437141685    -0.050977462623    -0.509075416820    15.994914619570
         N            0.213881858315     0.270762537377     0.300039583180    14.003074004430
         C           -0.947835141685    -0.492359462623    -0.105086416820    12.000000000000
         C           -1.185820841685    -1.614932562623     0.748919883180    12.000000000000
         C            2.592753858315     0.778625537377     0.372829583180    12.000000000000
         C            1.463836858315    -0.142499462623    -0.061435416820    12.000000000000
         C           -2.190631141685     0.363768537377    -0.176061416820    12.000000000000
         C            3.947988858315     0.281481537377    -0.106947416820    12.000000000000
         H           -0.768059141685    -0.869340462623    -1.119812416820     1.007825032230
         H            0.076022858315     1.189406537377     0.702754583180     1.007825032230
         H           -1.369439141685    -1.357305462623     1.835262583180     1.007825032230
         H           -2.077192141685    -2.249812462623     0.465056583180     1.007825032230
         H           -0.325094141685    -2.340367462623     0.780000583180     1.007825032230
         H            2.388378858315     1.788060537377    -0.009676416820     1.007825032230
         H            2.574617858315     0.856413537377     1.466914583180     1.007825032230
         H            4.153357858315    -0.716256462623     0.286600583180     1.007825032230
         H            3.969892858315     0.216857537377    -1.196281416820     1.007825032230
         H            4.740672858315     0.959663537377     0.222130583180     1.007825032230
         H           -2.850671141685     2.097482537377     0.110746583180     1.007825032230

  Basis Set: AUG-CC-PVTZ
    Blend: AUG-CC-PVTZ
  Basis Set: (AUG-CC-PVTZ AUX)
    Blend: AUG-CC-PVTZ-JKFIT
	 Reference Energy          =    -512.8744494628583652 [Eh]
	 Singles Energy            =      -0.0000000000000000 [Eh]
	 Same-Spin Energy          =      -0.5123960911652631 [Eh]
	 Opposite-Spin Energy      =      -1.6162695904731281 [Eh]
	 Correlation Energy        =      -2.1286656816383913 [Eh]
	 Total Energy              =    -515.0031151444967463 [Eh]

	 ================> DF-SCS-MP2 Energies <==================
	-----------------------------------------------------------
	 SCS Same-Spin Scale       =       0.3333333333333333 [-]
	 SCS Opposite-Spin Scale   =       1.2000000000000000 [-]
	 SCS Same-Spin Energy      =      -0.1707986970550877 [Eh]
	 SCS Opposite-Spin Energy  =      -1.9395235085677536 [Eh]
	 SCS Correlation Energy    =      -2.1103222056228415 [Eh]
	 SCS Total Energy          =    -514.9847716684812440 [Eh]
	-----------------------------------------------------------

  Dipole Moment: [D]
     X:    -0.0751      Y:     3.3074      Z:     1.9439     Total:     3.8371

*** Psi4 exiting successfully. Buy a developer a beer!
