                               Psi4 1.3.2 release

  ==> Input File <==

--------------------------------------------------------------------------
#psi4
#
memory 32 gb

molecule  {
0 1
  O       -1.9756670     1.6664010     0.1857370
  O        1.6511300    -1.1930600    -0.6768240
  O       -3.2820610    -0.0444860    -0.5140140
  N        0.2152580     0.2772540     0.2951010
  C       -0.9464590    -0.4858680    -0.1100250
  C       -1.2010820    -1.6869190     0.8036840
  C        2.5941300     0.7851170     0.3678910
  C        1.4652130    -0.1360080    -0.0663740
  C       -2.1069945     0.3135930    -0.1763022
  C        3.9493650     0.2879730    -0.1118860
  H       -0.7666830    -0.8628490    -1.1247510
  H        0.0773990     1.1958980     0.6978160
  H       -1.3680630    -1.3508140     1.8303240
  H       -2.0758160    -2.2433210     0.4601180
  H       -0.3237180    -2.3338760     0.7750620
  H        2.3897550     1.7945520    -0.0146150
  H        2.5759940     0.8629050     1.4619760
  H        4.1547340    -0.7097650     0.2816620
  H        3.9712690     0.2233490    -1.2012200
  H        4.7420490     0.9661550     0.2171920
  H       -2.8492950     2.1039740     0.1058080
units angstrom
no_reorient  #important for SAPT in psi4, default
symmetry c1  #important for SAPT in psi4, default
}

set PROPERTIES_ORIGIN ["COM"]
properties('MP2/aug-cc-pvtz', properties = ['dipole'])
--------------------------------------------------------------------------

    Molecular point group: c1
  Charge       = 0
  Multiplicity = 1
  Basis Set: AUG-CC-PVTZ
    Blend: AUG-CC-PVTZ
  Basis Set: (AUG-CC-PVTZ AUX)
    Blend: AUG-CC-PVTZ-JKFIT

    Orbital Energies [Eh]
    ---------------------

    Doubly Occupied:

       1A    -20.626581     2A    -20.558488     3A    -20.528962
       4A    -15.597926     5A    -11.413178     6A    -11.360426
       7A    -11.300043     8A    -11.250339     9A    -11.234927
      10A    -11.221671    11A     -1.451072    12A     -1.385080
      13A     -1.336421    14A     -1.254505    15A     -1.091094
      16A     -1.045940    17A     -0.942157    18A     -0.890779
      19A     -0.818597    20A     -0.792172    21A     -0.736072
      22A     -0.700203    23A     -0.686416    24A     -0.665539
      25A     -0.642773    26A     -0.623441    27A     -0.606429
      28A     -0.599658    29A     -0.582175    30A     -0.553105
      31A     -0.547437    32A     -0.527362    33A     -0.524785
      34A     -0.521841    35A     -0.496649    36A     -0.474947
      37A     -0.465403    38A     -0.433094    39A     -0.405951

  @DF-RHF Final Energy:  -512.86342912538760

   => Energetics <=

    Nuclear Repulsion Energy =            548.6519473243272387
    One-Electron Energy =               -1789.2434727290362844
    Two-Electron Energy =                 727.7280962793214485
    Total Energy =                       -512.8634291253875972
  Basis Set: (AUG-CC-PVTZ AUX)
    Blend: AUG-CC-PVTZ-RI
    Molecular point group: c1

    Geometry (in Angstrom), charge = 0, multiplicity = 1:

       Center              X                  Y                   Z               Mass
    ------------   -----------------  -----------------  -----------------  -----------------
         O           -1.982471260987     1.671088246130     0.185348601303    15.994914619570
         O            1.644325739013    -1.188372753870    -0.677212398697    15.994914619570
         O           -3.288865260987    -0.039798753870    -0.514402398697    15.994914619570
         N            0.208453739013     0.281941246130     0.294712601303    14.003074004430
         C           -0.953263260987    -0.481180753870    -0.110413398697    12.000000000000
         C           -1.207886260987    -1.682231753870     0.803295601303    12.000000000000
         C            2.587325739013     0.789804246130     0.367502601303    12.000000000000
         C            1.458408739013    -0.131320753870    -0.066762398697    12.000000000000
         C           -2.113798760987     0.318280246130    -0.176690598697    12.000000000000
         C            3.942560739013     0.292660246130    -0.112274398697    12.000000000000
         H           -0.773487260987    -0.858161753870    -1.125139398697     1.007825032230
         H            0.070594739013     1.200585246130     0.697427601303     1.007825032230
         H           -1.374867260987    -1.346126753870     1.829935601303     1.007825032230
         H           -2.082620260987    -2.238633753870     0.459729601303     1.007825032230
         H           -0.330522260987    -2.329188753870     0.774673601303     1.007825032230
         H            2.382950739013     1.799239246130    -0.015003398697     1.007825032230
         H            2.569189739013     0.867592246130     1.461587601303     1.007825032230
         H            4.147929739013    -0.705077753870     0.281273601303     1.007825032230
         H            3.964464739013     0.228036246130    -1.201608398697     1.007825032230
         H            4.735244739013     0.970842246130     0.216803601303     1.007825032230
         H           -2.856099260987     2.108661246130     0.105419601303     1.007825032230

  Basis Set: AUG-CC-PVTZ
    Blend: AUG-CC-PVTZ
  Basis Set: (AUG-CC-PVTZ AUX)
    Blend: AUG-CC-PVTZ-JKFIT
	 Reference Energy          =    -512.8634291253875972 [Eh]
	 Singles Energy            =      -0.0000000000000000 [Eh]
	 Same-Spin Energy          =      -0.5138908583928629 [Eh]
	 Opposite-Spin Energy      =      -1.6199105063369852 [Eh]
	 Correlation Energy        =      -2.1338013647298482 [Eh]
	 Total Energy              =    -514.9972304901174311 [Eh]

	 ================> DF-SCS-MP2 Energies <==================
	-----------------------------------------------------------
	 SCS Same-Spin Scale       =       0.3333333333333333 [-]
	 SCS Opposite-Spin Scale   =       1.2000000000000000 [-]
	 SCS Same-Spin Energy      =      -0.1712969527976209 [Eh]
	 SCS Opposite-Spin Energy  =      -1.9438926076043821 [Eh]
	 SCS Correlation Energy    =      -2.1151895604020030 [Eh]
	 SCS Total Energy          =    -514.9786186857895700 [Eh]
	-----------------------------------------------------------

  Dipole Moment: [D]
     X:     0.4669      Y:     2.9249      Z:     2.0027     Total:     3.5754

*** Psi4 exiting successfully. Buy a developer a beer!
