                               Psi4 1.3.2 release

  ==> Input File <==

--------------------------------------------------------------------------
#psi4
#
memory 32 gb

molecule  {
0 1
  O       -1.9987205     1.6710294     0.1820329
  O        1.6511300    -1.1930600    -0.6768240
  O       -3.2901494    -0.0251239    -0.5109100
  N        0.2152580     0.2772540     0.2951010
  C       -0.9464590    -0.4858680    -0.1100250
  C       -1.2010820    -1.6869190     0.8036840
  C        2.5941300     0.7851170     0.3678910
  C        1.4652130    -0.1360080    -0.0663740
  C       -2.1892550     0.3702600    -0.1810000
  C        3.9493650     0.2879730    -0.1118860
  H       -0.7666830    -0.8628490    -1.1247510
  H        0.0773990     1.1958980     0.6978160
  H       -1.3680630    -1.3508140     1.8303240
  H       -2.0758160    -2.2433210     0.4601180
  H       -0.3237180    -2.3338760     0.7750620
  H        2.3897550     1.7945520    -0.0146150
  H        2.5759940     0.8629050     1.4619760
  H        4.1547340    -0.7097650     0.2816620
  H        3.9712690     0.2233490    -1.2012200
  H        4.7420490     0.9661550     0.2171920
  H       -2.8492950     2.1039740     0.1058080
units angstrom
no_reorient  #important for SAPT in psi4, default
symmetry c1  #important for SAPT in psi4, default
}

set PROPERTIES_ORIGIN ["COM"]
properties('MP2/aug-cc-pvtz', properties = ['dipole'])
--------------------------------------------------------------------------

    Molecular point group: c1
  Charge       = 0
  Multiplicity = 1
  Basis Set: AUG-CC-PVTZ
    Blend: AUG-CC-PVTZ
  Basis Set: (AUG-CC-PVTZ AUX)
    Blend: AUG-CC-PVTZ-JKFIT

    Orbital Energies [Eh]
    ---------------------

    Doubly Occupied:

       1A    -20.630988     2A    -20.562282     3A    -20.525409
       4A    -15.593575     5A    -11.404538     6A    -11.356986
       7A    -11.298622     8A    -11.248083     9A    -11.227988
      10A    -11.219909    11A     -1.480470    12A     -1.381485
      13A     -1.371893    14A     -1.246576    15A     -1.075976
      16A     -1.036640    17A     -0.929703    18A     -0.886595
      19A     -0.820473    20A     -0.792931    21A     -0.731808
      22A     -0.714342    23A     -0.683625    24A     -0.665776
      25A     -0.641624    26A     -0.633140    27A     -0.610357
      28A     -0.603455    29A     -0.581841    30A     -0.547453
      31A     -0.544378    32A     -0.524764    33A     -0.521006
      34A     -0.519638    35A     -0.497010    36A     -0.488040
      37A     -0.467867    38A     -0.429584    39A     -0.401316

  @DF-RHF Final Energy:  -512.88728022919122

   => Energetics <=

    Nuclear Repulsion Energy =            547.9589306666881612
    One-Electron Energy =               -1787.8961244742747567
    Two-Electron Energy =                 727.0499135783952624
    Total Energy =                       -512.8872802291912194
  Basis Set: (AUG-CC-PVTZ AUX)
    Blend: AUG-CC-PVTZ-RI
    Molecular point group: c1

    Geometry (in Angstrom), charge = 0, multiplicity = 1:

       Center              X                  Y                   Z               Mass
    ------------   -----------------  -----------------  -----------------  -----------------
         O           -1.995286957350     1.668384313789     0.182099249892    15.994914619570
         O            1.654563542650    -1.195705086211    -0.676757650108    15.994914619570
         O           -3.286715857350    -0.027768986211    -0.510843650108    15.994914619570
         N            0.218691542650     0.274608913789     0.295167349892    14.003074004430
         C           -0.943025457350    -0.488513086211    -0.109958650108    12.000000000000
         C           -1.197648457350    -1.689564086211     0.803750349892    12.000000000000
         C            2.597563542650     0.782471913789     0.367957349892    12.000000000000
         C            1.468646542650    -0.138653086211    -0.066307650108    12.000000000000
         C           -2.185821457350     0.367614913789    -0.180933650108    12.000000000000
         C            3.952798542650     0.285327913789    -0.111819650108    12.000000000000
         H           -0.763249457350    -0.865494086211    -1.124684650108     1.007825032230
         H            0.080832542650     1.193252913789     0.697882349892     1.007825032230
         H           -1.364629457350    -1.353459086211     1.830390349892     1.007825032230
         H           -2.072382457350    -2.245966086211     0.460184349892     1.007825032230
         H           -0.320284457350    -2.336521086211     0.775128349892     1.007825032230
         H            2.393188542650     1.791906913789    -0.014548650108     1.007825032230
         H            2.579427542650     0.860259913789     1.462042349892     1.007825032230
         H            4.158167542650    -0.712410086211     0.281728349892     1.007825032230
         H            3.974702542650     0.220703913789    -1.201153650108     1.007825032230
         H            4.745482542650     0.963509913789     0.217258349892     1.007825032230
         H           -2.845861457350     2.101328913789     0.105874349892     1.007825032230

  Basis Set: AUG-CC-PVTZ
    Blend: AUG-CC-PVTZ
  Basis Set: (AUG-CC-PVTZ AUX)
    Blend: AUG-CC-PVTZ-JKFIT
	 Reference Energy          =    -512.8872802291912194 [Eh]
	 Singles Energy            =      -0.0000000000000000 [Eh]
	 Same-Spin Energy          =      -0.5108348540450500 [Eh]
	 Opposite-Spin Energy      =      -1.6138865012577934 [Eh]
	 Correlation Energy        =      -2.1247213553028432 [Eh]
	 Total Energy              =    -515.0120015844941008 [Eh]

	 ================> DF-SCS-MP2 Energies <==================
	-----------------------------------------------------------
	 SCS Same-Spin Scale       =       0.3333333333333333 [-]
	 SCS Opposite-Spin Scale   =       1.2000000000000000 [-]
	 SCS Same-Spin Energy      =      -0.1702782846816833 [Eh]
	 SCS Opposite-Spin Energy  =      -1.9366638015093520 [Eh]
	 SCS Correlation Energy    =      -2.1069420861910353 [Eh]
	 SCS Total Energy          =    -514.9942223153822169 [Eh]
	-----------------------------------------------------------

  Dipole Moment: [D]
     X:     0.0504      Y:     3.2309      Z:     1.9635     Total:     3.7811

*** Psi4 exiting successfully. Buy a developer a beer!
