                               Psi4 1.3.2 release

  ==> Input File <==

--------------------------------------------------------------------------
#psi4
#
memory 32 gb

molecule  {
0 1
  O       -1.9756670     1.6664010     0.1857370
  O        1.5871324    -1.2021685    -0.6771201
  O       -3.2820610    -0.0444860    -0.5140140
  N        0.2152580     0.2772540     0.2951010
  C       -0.9464590    -0.4858680    -0.1100250
  C       -1.2010820    -1.6869190     0.8036840
  C        2.5395435     0.8337066     0.3994356
  C        1.4652130    -0.1360080    -0.0663740
  C       -2.1892550     0.3702600    -0.1810000
  C        3.9493650     0.2879730    -0.1118860
  H       -0.7666830    -0.8628490    -1.1247510
  H        0.0773990     1.1958980     0.6978160
  H       -1.3680630    -1.3508140     1.8303240
  H       -2.0758160    -2.2433210     0.4601180
  H       -0.3237180    -2.3338760     0.7750620
  H        2.3897550     1.7945520    -0.0146150
  H        2.5759940     0.8629050     1.4619760
  H        4.1547340    -0.7097650     0.2816620
  H        3.9712690     0.2233490    -1.2012200
  H        4.7420490     0.9661550     0.2171920
  H       -2.8492950     2.1039740     0.1058080
units angstrom
no_reorient  #important for SAPT in psi4, default
symmetry c1  #important for SAPT in psi4, default
}

set PROPERTIES_ORIGIN ["COM"]
properties('MP2/aug-cc-pvtz', properties = ['dipole'])
--------------------------------------------------------------------------

    Molecular point group: c1
  Charge       = 0
  Multiplicity = 1
  Basis Set: AUG-CC-PVTZ
    Blend: AUG-CC-PVTZ
  Basis Set: (AUG-CC-PVTZ AUX)
    Blend: AUG-CC-PVTZ-JKFIT

    Orbital Energies [Eh]
    ---------------------

    Doubly Occupied:

       1A    -20.634458     2A    -20.562105     3A    -20.525792
       4A    -15.588233     5A    -11.402857     6A    -11.357102
       7A    -11.293362     8A    -11.247656     9A    -11.225002
      10A    -11.224929    11A     -1.476859    12A     -1.382386
      13A     -1.371959    14A     -1.241567    15A     -1.073976
      16A     -1.028873    17A     -0.925693    18A     -0.887151
      19A     -0.815036    20A     -0.793293    21A     -0.731953
      22A     -0.713023    23A     -0.681705    24A     -0.664283
      25A     -0.649077    26A     -0.633133    27A     -0.608341
      28A     -0.602401    29A     -0.579360    30A     -0.543781
      31A     -0.541804    32A     -0.526222    33A     -0.522658
      34A     -0.506001    35A     -0.502100    36A     -0.489634
      37A     -0.465741    38A     -0.431039    39A     -0.397862

  @DF-RHF Final Energy:  -512.87865367669167

   => Energetics <=

    Nuclear Repulsion Energy =            548.4182602511206142
    One-Electron Energy =               -1788.8970197740761705
    Two-Electron Energy =                 727.6001058462637729
    Total Energy =                       -512.8786536766916697
  Basis Set: (AUG-CC-PVTZ AUX)
    Blend: AUG-CC-PVTZ-RI
    Molecular point group: c1

    Geometry (in Angstrom), charge = 0, multiplicity = 1:

       Center              X                  Y                   Z               Mass
    ------------   -----------------  -----------------  -----------------  -----------------
         O           -1.964095796672     1.663386036619     0.183160574920    15.994914619570
         O            1.598703603328    -1.205183463381    -0.679696525080    15.994914619570
         O           -3.270489796672    -0.047500963381    -0.516590425080    15.994914619570
         N            0.226829203328     0.274239036619     0.292524574920    14.003074004430
         C           -0.934887796672    -0.488882963381    -0.112601425080    12.000000000000
         C           -1.189510796672    -1.689933963381     0.801107574920    12.000000000000
         C            2.551114703328     0.830691636619     0.396859174920    12.000000000000
         C            1.476784203328    -0.139022963381    -0.068950425080    12.000000000000
         C           -2.177683796672     0.367245036619    -0.183576425080    12.000000000000
         C            3.960936203328     0.284958036619    -0.114462425080    12.000000000000
         H           -0.755111796672    -0.865863963381    -1.127327425080     1.007825032230
         H            0.088970203328     1.192883036619     0.695239574920     1.007825032230
         H           -1.356491796672    -1.353828963381     1.827747574920     1.007825032230
         H           -2.064244796672    -2.246335963381     0.457541574920     1.007825032230
         H           -0.312146796672    -2.336890963381     0.772485574920     1.007825032230
         H            2.401326203328     1.791537036619    -0.017191425080     1.007825032230
         H            2.587565203328     0.859890036619     1.459399574920     1.007825032230
         H            4.166305203328    -0.712779963381     0.279085574920     1.007825032230
         H            3.982840203328     0.220334036619    -1.203796425080     1.007825032230
         H            4.753620203328     0.963140036619     0.214615574920     1.007825032230
         H           -2.837723796672     2.100959036619     0.103231574920     1.007825032230

  Basis Set: AUG-CC-PVTZ
    Blend: AUG-CC-PVTZ
  Basis Set: (AUG-CC-PVTZ AUX)
    Blend: AUG-CC-PVTZ-JKFIT
	 Reference Energy          =    -512.8786536766916697 [Eh]
	 Singles Energy            =      -0.0000000000000000 [Eh]
	 Same-Spin Energy          =      -0.5114266838010186 [Eh]
	 Opposite-Spin Energy      =      -1.6155120821078555 [Eh]
	 Correlation Energy        =      -2.1269387659088741 [Eh]
	 Total Energy              =    -515.0055924426005731 [Eh]

	 ================> DF-SCS-MP2 Energies <==================
	-----------------------------------------------------------
	 SCS Same-Spin Scale       =       0.3333333333333333 [-]
	 SCS Opposite-Spin Scale   =       1.2000000000000000 [-]
	 SCS Same-Spin Energy      =      -0.1704755612670062 [Eh]
	 SCS Opposite-Spin Energy  =      -1.9386144985294265 [Eh]
	 SCS Correlation Energy    =      -2.1090900597964328 [Eh]
	 SCS Total Energy          =    -514.9877437364881416 [Eh]
	-----------------------------------------------------------

  Dipole Moment: [D]
     X:     0.1546      Y:     3.3567      Z:     1.9649     Total:     3.8926

*** Psi4 exiting successfully. Buy a developer a beer!
