                               Psi4 1.3.2 release

  ==> Input File <==

--------------------------------------------------------------------------
#psi4
#
memory 32 gb

molecule  {
0 1
  O       -1.9756670     1.6664010     0.1857370
  O        1.6511300    -1.1930600    -0.6768240
  O       -3.2820610    -0.0444860    -0.5140140
  N        0.2152580     0.2772540     0.2951010
  C       -0.9389021    -0.4952618    -0.1138030
  C       -1.2010820    -1.6869190     0.8036840
  C        2.5941300     0.7851170     0.3678910
  C        1.4652130    -0.1360080    -0.0663740
  C       -2.1892550     0.3702600    -0.1810000
  C        3.9493650     0.2879730    -0.1118860
  H       -0.7666830    -0.8628490    -1.1247510
  H        0.0861459     1.1967828     0.6986950
  H       -1.3680630    -1.3508140     1.8303240
  H       -2.0758160    -2.2433210     0.4601180
  H       -0.3237180    -2.3338760     0.7750620
  H        2.3897550     1.7945520    -0.0146150
  H        2.5759940     0.8629050     1.4619760
  H        4.1547340    -0.7097650     0.2816620
  H        3.9712690     0.2233490    -1.2012200
  H        4.7420490     0.9661550     0.2171920
  H       -2.8492950     2.1039740     0.1058080
units angstrom
no_reorient  #important for SAPT in psi4, default
symmetry c1  #important for SAPT in psi4, default
}

set PROPERTIES_ORIGIN ["COM"]
properties('MP2/aug-cc-pvtz', properties = ['dipole'])
--------------------------------------------------------------------------

    Molecular point group: c1
  Charge       = 0
  Multiplicity = 1
  Basis Set: AUG-CC-PVTZ
    Blend: AUG-CC-PVTZ
  Basis Set: (AUG-CC-PVTZ AUX)
    Blend: AUG-CC-PVTZ-JKFIT

    Orbital Energies [Eh]
    ---------------------

    Doubly Occupied:

       1A    -20.635778     2A    -20.563635     3A    -20.524468
       4A    -15.592314     5A    -11.404605     6A    -11.355768
       7A    -11.296674     8A    -11.247534     9A    -11.226537
      10A    -11.219505    11A     -1.477896    12A     -1.380695
      13A     -1.373198    14A     -1.245266    15A     -1.074756
      16A     -1.035526    17A     -0.926634    18A     -0.884718
      19A     -0.817624    20A     -0.791582    21A     -0.730065
      22A     -0.714351    23A     -0.683005    24A     -0.665335
      25A     -0.641196    26A     -0.634040    27A     -0.609800
      28A     -0.602985    29A     -0.581835    30A     -0.546491
      31A     -0.543225    32A     -0.524270    33A     -0.521265
      34A     -0.519301    35A     -0.497394    36A     -0.488658
      37A     -0.466668    38A     -0.428592    39A     -0.400604

  @DF-RHF Final Energy:  -512.88600103314866

   => Energetics <=

    Nuclear Repulsion Energy =            548.1247516818767735
    One-Electron Energy =               -1788.2739200000723940
    Two-Electron Energy =                 727.2631672850470750
    Total Energy =                       -512.8860010331486592
  Basis Set: (AUG-CC-PVTZ AUX)
    Blend: AUG-CC-PVTZ-RI
    Molecular point group: c1

    Geometry (in Angstrom), charge = 0, multiplicity = 1:

       Center              X                  Y                   Z               Mass
    ------------   -----------------  -----------------  -----------------  -----------------
         O           -1.976352807587     1.667171827325     0.186043583147    15.994914619570
         O            1.650444192413    -1.192289172675    -0.676517416853    15.994914619570
         O           -3.282746807587    -0.043715172675    -0.513707416853    15.994914619570
         N            0.214572192413     0.278024827325     0.295407583147    14.003074004430
         C           -0.939587907587    -0.494490972675    -0.113496416853    12.000000000000
         C           -1.201767807587    -1.686148172675     0.803990583147    12.000000000000
         C            2.593444192413     0.785887827325     0.368197583147    12.000000000000
         C            1.464527192413    -0.135237172675    -0.066067416853    12.000000000000
         C           -2.189940807587     0.371030827325    -0.180693416853    12.000000000000
         C            3.948679192413     0.288743827325    -0.111579416853    12.000000000000
         H           -0.767368807587    -0.862078172675    -1.124444416853     1.007825032230
         H            0.085460092413     1.197553627325     0.699001583147     1.007825032230
         H           -1.368748807587    -1.350043172675     1.830630583147     1.007825032230
         H           -2.076501807587    -2.242550172675     0.460424583147     1.007825032230
         H           -0.324403807587    -2.333105172675     0.775368583147     1.007825032230
         H            2.389069192413     1.795322827325    -0.014308416853     1.007825032230
         H            2.575308192413     0.863675827325     1.462282583147     1.007825032230
         H            4.154048192413    -0.708994172675     0.281968583147     1.007825032230
         H            3.970583192413     0.224119827325    -1.200913416853     1.007825032230
         H            4.741363192413     0.966925827325     0.217498583147     1.007825032230
         H           -2.849980807587     2.104744827325     0.106114583147     1.007825032230

  Basis Set: AUG-CC-PVTZ
    Blend: AUG-CC-PVTZ
  Basis Set: (AUG-CC-PVTZ AUX)
    Blend: AUG-CC-PVTZ-JKFIT
	 Reference Energy          =    -512.8860010331486592 [Eh]
	 Singles Energy            =      -0.0000000000000000 [Eh]
	 Same-Spin Energy          =      -0.5112798521395634 [Eh]
	 Opposite-Spin Energy      =      -1.6148378731208881 [Eh]
	 Correlation Energy        =      -2.1261177252604515 [Eh]
	 Total Energy              =    -515.0121187584090876 [Eh]

	 ================> DF-SCS-MP2 Energies <==================
	-----------------------------------------------------------
	 SCS Same-Spin Scale       =       0.3333333333333333 [-]
	 SCS Opposite-Spin Scale   =       1.2000000000000000 [-]
	 SCS Same-Spin Energy      =      -0.1704266173798545 [Eh]
	 SCS Opposite-Spin Energy  =      -1.9378054477450657 [Eh]
	 SCS Correlation Energy    =      -2.1082320651249202 [Eh]
	 SCS Total Energy          =    -514.9942330982735257 [Eh]
	-----------------------------------------------------------

  Dipole Moment: [D]
     X:    -0.0439      Y:     3.3144      Z:     1.9610     Total:     3.8513

*** Psi4 exiting successfully. Buy a developer a beer!
