                               Psi4 1.4a3.dev225

  ==> Input File <==

--------------------------------------------------------------------------
#psi4
#
memory 32 gb

molecule  {
0 1
  O        2.1858500    -1.4843500     0.4466430
  O       -1.5901990     1.2021140    -0.7742790
  O        3.2899360     0.0893000    -0.7567370
  N       -0.1552130    -0.3501220     0.0655300
  C        0.9973750     0.5138300    -0.1038320
  C        1.1366130     1.5332170     1.0331740
  C       -2.5208420    -0.9251940    -0.0919400
  C       -1.4008270     0.0814870    -0.2899980
  C        2.2682144    -0.3349172    -0.1877607
  C       -3.8280260    -0.2360070     0.2837800
  H        0.8752740     1.0541530    -1.0466610
  H       -0.0274960    -1.2421660     0.5250420
  H        1.2555520     1.0181310     1.9903510
  H        2.0023980     2.1787030     0.8613650
  H        0.2327940     2.1443920     1.0604580
  H       -2.6404080    -1.4674310    -1.0380590
  H       -2.2372030    -1.6677960     0.6628800
  H       -3.7417830     0.2575120     1.2553170
  H       -4.0728600     0.5241080    -0.4590610
  H       -4.6456460    -0.9595500     0.3374610
  H        3.0673500    -1.9023430     0.3513230
units angstrom
no_reorient  #important for SAPT in psi4, default
symmetry c1  #important for SAPT in psi4, default
}

set PROPERTIES_ORIGIN ["COM"]
properties('MP2/aug-cc-pvtz', properties = ['dipole'])
--------------------------------------------------------------------------

    Molecular point group: c1
  Charge       = 0
  Multiplicity = 1
  Basis Set: AUG-CC-PVTZ
    Blend: AUG-CC-PVTZ
  Basis Set: (AUG-CC-PVTZ AUX)
    Blend: AUG-CC-PVTZ-JKFIT

    Orbital Energies [Eh]
    ---------------------

    Doubly Occupied:

       1A    -20.648789     2A    -20.557070     3A    -20.522391
       4A    -15.595280     5A    -11.404738     6A    -11.356477
       7A    -11.295905     8A    -11.247669     9A    -11.231355
      10A    -11.222363    11A     -1.496959    12A     -1.379130
      13A     -1.360432    14A     -1.245579    15A     -1.074144
      16A     -1.035357    17A     -0.929391    18A     -0.888432
      19A     -0.831127    20A     -0.797011    21A     -0.730188
      22A     -0.718761    23A     -0.680513    24A     -0.668304
      25A     -0.642820    26A     -0.636162    27A     -0.605490
      28A     -0.599134    29A     -0.585552    30A     -0.555428
      31A     -0.547329    32A     -0.526900    33A     -0.523375
      34A     -0.512794    35A     -0.494391    36A     -0.481542
      37A     -0.465176    38A     -0.427057    39A     -0.398954

  @DF-RHF Final Energy:  -512.88265688891454

   => Energetics <=

    Nuclear Repulsion Energy =            547.9266857127935282
    One-Electron Energy =               -1787.7797452928020903
    Two-Electron Energy =                 726.9704026910939092
    Total Energy =                       -512.8826568889145392
  Basis Set: (AUG-CC-PVTZ AUX)
    Blend: AUG-CC-PVTZ-RI
    Molecular point group: c1

    Geometry (in Angstrom), charge = 0, multiplicity = 1:

       Center              X                  Y                   Z               Mass
    ------------   -----------------  -----------------  -----------------  -----------------
         O            2.118322236527    -1.481161528862     0.475387803896    15.994914619570
         O           -1.657726763473     1.205302471138    -0.745534196104    15.994914619570
         O            3.222408236527     0.092488471138    -0.727992196104    15.994914619570
         N           -0.222740763473    -0.346933528862     0.094274803896    14.003074004430
         C            0.929847236527     0.517018471138    -0.075087196104    12.000000000000
         C            1.069085236527     1.536405471138     1.061918803896    12.000000000000
         C           -2.588369763473    -0.922005528862    -0.063195196104    12.000000000000
         C           -1.468354763473     0.084675471138    -0.261253196104    12.000000000000
         C            2.200686636527    -0.331728728862    -0.159015896104    12.000000000000
         C           -3.895553763473    -0.232818528862     0.312524803896    12.000000000000
         H            0.807746236527     1.057341471138    -1.017916196104     1.007825032230
         H           -0.095023763473    -1.238977528862     0.553786803896     1.007825032230
         H            1.188024236527     1.021319471138     2.019095803896     1.007825032230
         H            1.934870236527     2.181891471138     0.890109803896     1.007825032230
         H            0.165266236527     2.147580471138     1.089202803896     1.007825032230
         H           -2.707935763473    -1.464242528862    -1.009314196104     1.007825032230
         H           -2.304730763473    -1.664607528862     0.691624803896     1.007825032230
         H           -3.809310763473     0.260700471138     1.284061803896     1.007825032230
         H           -4.140387763473     0.527296471138    -0.430316196104     1.007825032230
         H           -4.713173763473    -0.956361528862     0.366205803896     1.007825032230
         H            2.999822236527    -1.899154528862     0.380067803896     1.007825032230

  Basis Set: AUG-CC-PVTZ
    Blend: AUG-CC-PVTZ
  Basis Set: (AUG-CC-PVTZ AUX)
    Blend: AUG-CC-PVTZ-JKFIT
	 Reference Energy          =    -512.8826568889145392 [Eh]
	 Singles Energy            =      -0.0000000000000000 [Eh]
	 Same-Spin Energy          =      -0.5113986209609597 [Eh]
	 Opposite-Spin Energy      =      -1.6152089867565123 [Eh]
	 Correlation Energy        =      -2.1266076077174718 [Eh]
	 Total Energy              =    -515.0092644966319995 [Eh]

	 ================> DF-SCS-MP2 Energies <==================
	-----------------------------------------------------------
	 SCS Same-Spin Scale       =       0.3333333333333333 [-]
	 SCS Opposite-Spin Scale   =       1.2000000000000000 [-]
	 SCS Same-Spin Energy      =      -0.1704662069869866 [Eh]
	 SCS Opposite-Spin Energy  =      -1.9382507841078147 [Eh]
	 SCS Correlation Energy    =      -2.1087169910948012 [Eh]
	 SCS Total Energy          =    -514.9913738800092915 [Eh]
	-----------------------------------------------------------

  Dipole Moment: [D]
     X:     0.0927      Y:    -3.6200      Z:     2.4761     Total:     4.3868

*** Psi4 exiting successfully. Buy a developer a beer!
