                               Psi4 1.3.2 release

  ==> Input File <==

--------------------------------------------------------------------------
#psi4
#
memory 32 gb

molecule  {
0 1
  O       -1.9756670     1.6664010     0.1857370
  O        1.6511300    -1.1930600    -0.6768240
  O       -3.2820610    -0.0444860    -0.5140140
  N        0.2152580     0.2772540     0.2951010
  C       -0.9899230    -0.4283102    -0.0867191
  C       -1.2010820    -1.6869190     0.8036840
  C        2.5941300     0.7851170     0.3678910
  C        1.4652130    -0.1360080    -0.0663740
  C       -2.1892550     0.3702600    -0.1810000
  C        3.9493650     0.2879730    -0.1118860
  H       -0.7666830    -0.8628490    -1.1247510
  H        0.0251610     1.1891228     0.6919004
  H       -1.3680630    -1.3508140     1.8303240
  H       -2.0758160    -2.2433210     0.4601180
  H       -0.3237180    -2.3338760     0.7750620
  H        2.3897550     1.7945520    -0.0146150
  H        2.5759940     0.8629050     1.4619760
  H        4.1547340    -0.7097650     0.2816620
  H        3.9712690     0.2233490    -1.2012200
  H        4.7420490     0.9661550     0.2171920
  H       -2.8492950     2.1039740     0.1058080
units angstrom
no_reorient  #important for SAPT in psi4, default
symmetry c1  #important for SAPT in psi4, default
}

set PROPERTIES_ORIGIN ["COM"]
properties('MP2/aug-cc-pvtz', properties = ['dipole'])
--------------------------------------------------------------------------

    Molecular point group: c1
  Charge       = 0
  Multiplicity = 1
  Basis Set: AUG-CC-PVTZ
    Blend: AUG-CC-PVTZ
  Basis Set: (AUG-CC-PVTZ AUX)
    Blend: AUG-CC-PVTZ-JKFIT

    Orbital Energies [Eh]
    ---------------------

    Doubly Occupied:

       1A    -20.636573     2A    -20.563991     3A    -20.525638
       4A    -15.593085     5A    -11.404554     6A    -11.358688
       7A    -11.295731     8A    -11.247909     9A    -11.229887
      10A    -11.219660    11A     -1.481308    12A     -1.380861
      13A     -1.374967    14A     -1.246302    15A     -1.076783
      16A     -1.037458    17A     -0.934952    18A     -0.889538
      19A     -0.811328    20A     -0.797328    21A     -0.735472
      22A     -0.715361    23A     -0.683520    24A     -0.667432
      25A     -0.641734    26A     -0.629892    27A     -0.612421
      28A     -0.600404    29A     -0.574961    30A     -0.550854
      31A     -0.544219    32A     -0.522899    33A     -0.519654
      34A     -0.515918    35A     -0.498156    36A     -0.484957
      37A     -0.472671    38A     -0.430201    39A     -0.397480

  @DF-RHF Final Energy:  -512.87716288238494

   => Energetics <=

    Nuclear Repulsion Energy =            548.6707719316831344
    One-Electron Energy =               -1789.2863772112232255
    Two-Electron Energy =                 727.7384423971550405
    Total Energy =                       -512.8771628823849369
  Basis Set: (AUG-CC-PVTZ AUX)
    Blend: AUG-CC-PVTZ-RI
    Molecular point group: c1

    Geometry (in Angstrom), charge = 0, multiplicity = 1:

       Center              X                  Y                   Z               Mass
    ------------   -----------------  -----------------  -----------------  -----------------
         O           -1.971708878250     1.661687041313     0.183850500539    15.994914619570
         O            1.655088121750    -1.197773958687    -0.678710499461    15.994914619570
         O           -3.278102878250    -0.049199958687    -0.515900499461    15.994914619570
         N            0.219216121750     0.272540041313     0.293214500539    14.003074004430
         C           -0.985964878250    -0.433024158687    -0.088605599461    12.000000000000
         C           -1.197123878250    -1.691632958687     0.801797500539    12.000000000000
         C            2.598088121750     0.780403041313     0.366004500539    12.000000000000
         C            1.469171121750    -0.140721958687    -0.068260499461    12.000000000000
         C           -2.185296878250     0.365546041313    -0.182886499461    12.000000000000
         C            3.953323121750     0.283259041313    -0.113772499461    12.000000000000
         H           -0.762724878250    -0.867562958687    -1.126637499461     1.007825032230
         H            0.029119121750     1.184408841313     0.690013900539     1.007825032230
         H           -1.364104878250    -1.355527958687     1.828437500539     1.007825032230
         H           -2.071857878250    -2.248034958687     0.458231500539     1.007825032230
         H           -0.319759878250    -2.338589958687     0.773175500539     1.007825032230
         H            2.393713121750     1.789838041313    -0.016501499461     1.007825032230
         H            2.579952121750     0.858191041313     1.460089500539     1.007825032230
         H            4.158692121750    -0.714478958687     0.279775500539     1.007825032230
         H            3.975227121750     0.218635041313    -1.203106499461     1.007825032230
         H            4.746007121750     0.961441041313     0.215305500539     1.007825032230
         H           -2.845336878250     2.099260041313     0.103921500539     1.007825032230

  Basis Set: AUG-CC-PVTZ
    Blend: AUG-CC-PVTZ
  Basis Set: (AUG-CC-PVTZ AUX)
    Blend: AUG-CC-PVTZ-JKFIT
	 Reference Energy          =    -512.8771628823849369 [Eh]
	 Singles Energy            =      -0.0000000000000000 [Eh]
	 Same-Spin Energy          =      -0.5123018710404856 [Eh]
	 Opposite-Spin Energy      =      -1.6164173584672688 [Eh]
	 Correlation Energy        =      -2.1287192295077544 [Eh]
	 Total Energy              =    -515.0058821118926744 [Eh]

	 ================> DF-SCS-MP2 Energies <==================
	-----------------------------------------------------------
	 SCS Same-Spin Scale       =       0.3333333333333333 [-]
	 SCS Opposite-Spin Scale   =       1.2000000000000000 [-]
	 SCS Same-Spin Energy      =      -0.1707672903468285 [Eh]
	 SCS Opposite-Spin Energy  =      -1.9397008301607224 [Eh]
	 SCS Correlation Energy    =      -2.1104681205075511 [Eh]
	 SCS Total Energy          =    -514.9876310028924991 [Eh]
	-----------------------------------------------------------

  Dipole Moment: [D]
     X:    -0.0178      Y:     3.2985      Z:     1.9633     Total:     3.8386

*** Psi4 exiting successfully. Buy a developer a beer!
