                               Psi4 1.3.2 release

  ==> Input File <==

--------------------------------------------------------------------------
#psi4
#
memory 32 gb

molecule  {
0 1
  O       -1.9756670     1.6664010     0.1857370
  O        1.6511300    -1.1930600    -0.6768240
  O       -3.2820610    -0.0444860    -0.5140140
  N        0.2152580     0.2772540     0.2951010
  C       -0.9464590    -0.4858680    -0.1100250
  C       -1.2010820    -1.6869190     0.8036840
  C        2.5941300     0.7851170     0.3678910
  C        1.2820995    -0.0754667    -0.0134193
  C       -2.1892550     0.3702600    -0.1810000
  C        3.9493650     0.2879730    -0.1118860
  H       -0.7666830    -0.8628490    -1.1247510
  H        0.0773990     1.1958980     0.6978160
  H       -1.3680630    -1.3508140     1.8303240
  H       -2.0758160    -2.2433210     0.4601180
  H       -0.3237180    -2.3338760     0.7750620
  H        2.3897550     1.7945520    -0.0146150
  H        2.5759940     0.8629050     1.4619760
  H        4.1547340    -0.7097650     0.2816620
  H        3.9712690     0.2233490    -1.2012200
  H        4.7420490     0.9661550     0.2171920
  H       -2.8492950     2.1039740     0.1058080
units angstrom
no_reorient  #important for SAPT in psi4, default
symmetry c1  #important for SAPT in psi4, default
}

set PROPERTIES_ORIGIN ["COM"]
properties('MP2/aug-cc-pvtz', properties = ['dipole'])
--------------------------------------------------------------------------

    Molecular point group: c1
  Charge       = 0
  Multiplicity = 1
  Basis Set: AUG-CC-PVTZ
    Blend: AUG-CC-PVTZ
  Basis Set: (AUG-CC-PVTZ AUX)
    Blend: AUG-CC-PVTZ-JKFIT

    Orbital Energies [Eh]
    ---------------------

    Doubly Occupied:

       1A    -20.649141     2A    -20.575965     3A    -20.485364
       4A    -15.625296     5A    -11.418091     6A    -11.338874
       7A    -11.314237     8A    -11.245837     9A    -11.238923
      10A    -11.211077    11A     -1.491772    12A     -1.389260
      13A     -1.384722    14A     -1.240508    15A     -1.096548
      16A     -1.027547    17A     -0.946081    18A     -0.878484
      19A     -0.849577    20A     -0.828378    21A     -0.754198
      22A     -0.727974    23A     -0.690507    24A     -0.651831
      25A     -0.646566    26A     -0.641791    27A     -0.622595
      28A     -0.601933    29A     -0.562250    30A     -0.554727
      31A     -0.552597    32A     -0.527788    33A     -0.520379
      34A     -0.501407    35A     -0.487228    36A     -0.482795
      37A     -0.475447    38A     -0.393750    39A     -0.387980

  @DF-RHF Final Energy:  -512.81612911463981

   => Energetics <=

    Nuclear Repulsion Energy =            549.7599351954664826
    One-Electron Energy =               -1791.1132797971811215
    Two-Electron Energy =                 728.5372154870747181
    Total Energy =                       -512.8161291146398071
  Basis Set: (AUG-CC-PVTZ AUX)
    Blend: AUG-CC-PVTZ-RI
    Molecular point group: c1

    Geometry (in Angstrom), charge = 0, multiplicity = 1:

       Center              X                  Y                   Z               Mass
    ------------   -----------------  -----------------  -----------------  -----------------
         O           -1.960520461092     1.661393189571     0.181356960994    15.994914619570
         O            1.666276538908    -1.198067810429    -0.681204039006    15.994914619570
         O           -3.266914461092    -0.049493810429    -0.518394039006    15.994914619570
         N            0.230404538908     0.272246189571     0.290720960994    14.003074004430
         C           -0.931312461092    -0.490875810429    -0.114405039006    12.000000000000
         C           -1.185935461092    -1.691926810429     0.799303960994    12.000000000000
         C            2.609276538908     0.780109189571     0.363510960994    12.000000000000
         C            1.297246038908    -0.080474510429    -0.017799339006    12.000000000000
         C           -2.174108461092     0.365252189571    -0.185380039006    12.000000000000
         C            3.964511538908     0.282965189571    -0.116266039006    12.000000000000
         H           -0.751536461092    -0.867856810429    -1.129131039006     1.007825032230
         H            0.092545538908     1.190890189571     0.693435960994     1.007825032230
         H           -1.352916461092    -1.355821810429     1.825943960994     1.007825032230
         H           -2.060669461092    -2.248328810429     0.455737960994     1.007825032230
         H           -0.308571461092    -2.338883810429     0.770681960994     1.007825032230
         H            2.404901538908     1.789544189571    -0.018995039006     1.007825032230
         H            2.591140538908     0.857897189571     1.457595960994     1.007825032230
         H            4.169880538908    -0.714772810429     0.277281960994     1.007825032230
         H            3.986415538908     0.218341189571    -1.205600039006     1.007825032230
         H            4.757195538908     0.961147189571     0.212811960994     1.007825032230
         H           -2.834148461092     2.098966189571     0.101427960994     1.007825032230

  Basis Set: AUG-CC-PVTZ
    Blend: AUG-CC-PVTZ
  Basis Set: (AUG-CC-PVTZ AUX)
    Blend: AUG-CC-PVTZ-JKFIT
	 Reference Energy          =    -512.8161291146398071 [Eh]
	 Singles Energy            =      -0.0000000000000000 [Eh]
	 Same-Spin Energy          =      -0.5130305496712582 [Eh]
	 Opposite-Spin Energy      =      -1.6180166897689379 [Eh]
	 Correlation Energy        =      -2.1310472394401963 [Eh]
	 Total Energy              =    -514.9471763540800566 [Eh]

	 ================> DF-SCS-MP2 Energies <==================
	-----------------------------------------------------------
	 SCS Same-Spin Scale       =       0.3333333333333333 [-]
	 SCS Opposite-Spin Scale   =       1.2000000000000000 [-]
	 SCS Same-Spin Energy      =      -0.1710101832237527 [Eh]
	 SCS Opposite-Spin Energy  =      -1.9416200277227254 [Eh]
	 SCS Correlation Energy    =      -2.1126302109464783 [Eh]
	 SCS Total Energy          =    -514.9287593255862703 [Eh]
	-----------------------------------------------------------

  Dipole Moment: [D]
     X:    -1.6399      Y:     3.7961      Z:     2.4492     Total:     4.8061

*** Psi4 exiting successfully. Buy a developer a beer!
