                               Psi4 1.3.2 release

  ==> Input File <==

--------------------------------------------------------------------------
#psi4
#
memory 32 gb

molecule  {
0 1
  O       -1.9756670     1.6664010     0.1857370
  O        1.6511300    -1.1930600    -0.6768240
  O       -3.2820610    -0.0444860    -0.5140140
  N        0.2152580     0.2772540     0.2951010
  C       -0.9464590    -0.4858680    -0.1100250
  C       -1.2010820    -1.6869190     0.8036840
  C        2.5941300     0.7851170     0.3678910
  C        1.4711770    -0.1461291    -0.0602076
  C       -2.1892550     0.3702600    -0.1810000
  C        3.9493650     0.2879730    -0.1118860
  H       -0.7666830    -0.8628490    -1.1247510
  H        0.0773990     1.1958980     0.6978160
  H       -1.3680630    -1.3508140     1.8303240
  H       -2.0758160    -2.2433210     0.4601180
  H       -0.3237180    -2.3338760     0.7750620
  H        2.3978749     1.7976768    -0.0105871
  H        2.5759940     0.8629050     1.4619760
  H        4.1547340    -0.7097650     0.2816620
  H        3.9712690     0.2233490    -1.2012200
  H        4.7420490     0.9661550     0.2171920
  H       -2.8492950     2.1039740     0.1058080
units angstrom
no_reorient  #important for SAPT in psi4, default
symmetry c1  #important for SAPT in psi4, default
}

set PROPERTIES_ORIGIN ["COM"]
properties('MP2/aug-cc-pvtz', properties = ['dipole'])
--------------------------------------------------------------------------

    Molecular point group: c1
  Charge       = 0
  Multiplicity = 1
  Basis Set: AUG-CC-PVTZ
    Blend: AUG-CC-PVTZ
  Basis Set: (AUG-CC-PVTZ AUX)
    Blend: AUG-CC-PVTZ-JKFIT

    Orbital Energies [Eh]
    ---------------------

    Doubly Occupied:

       1A    -20.635506     2A    -20.563361     3A    -20.526378
       4A    -15.590877     5A    -11.404299     6A    -11.356513
       7A    -11.295723     8A    -11.247500     9A    -11.226576
      10A    -11.219609    11A     -1.477960    12A     -1.384648
      13A     -1.373129    14A     -1.243845    15A     -1.074402
      16A     -1.035159    17A     -0.927229    18A     -0.885080
      19A     -0.816019    20A     -0.790953    21A     -0.730400
      22A     -0.714155    23A     -0.683445    24A     -0.665329
      25A     -0.641269    26A     -0.633682    27A     -0.609955
      28A     -0.603852    29A     -0.580903    30A     -0.546162
      31A     -0.543985    32A     -0.524269    33A     -0.520864
      34A     -0.519499    35A     -0.497352    36A     -0.488955
      37A     -0.467543    38A     -0.429658    39A     -0.399846

  @DF-RHF Final Energy:  -512.88624169796765

   => Energetics <=

    Nuclear Repulsion Energy =            548.1706494520302613
    One-Electron Energy =               -1788.3620065893903757
    Two-Electron Energy =                 727.3051154393925799
    Total Energy =                       -512.8862416979676482
  Basis Set: (AUG-CC-PVTZ AUX)
    Blend: AUG-CC-PVTZ-RI
    Molecular point group: c1

    Geometry (in Angstrom), charge = 0, multiplicity = 1:

       Center              X                  Y                   Z               Mass
    ------------   -----------------  -----------------  -----------------  -----------------
         O           -1.976216692771     1.667216425783     0.185199142169    15.994914619570
         O            1.650580307229    -1.192244574217    -0.677361857831    15.994914619570
         O           -3.282610692771    -0.043670574217    -0.514551857831    15.994914619570
         N            0.214708307229     0.278069425783     0.294563142169    14.003074004430
         C           -0.947008692771    -0.485052574217    -0.110562857831    12.000000000000
         C           -1.201631692771    -1.686103574217     0.803146142169    12.000000000000
         C            2.593580307229     0.785932425783     0.367353142169    12.000000000000
         C            1.470627307229    -0.145313674217    -0.060745457831    12.000000000000
         C           -2.189804692771     0.371075425783    -0.181537857831    12.000000000000
         C            3.948815307229     0.288788425783    -0.112423857831    12.000000000000
         H           -0.767232692771    -0.862033574217    -1.125288857831     1.007825032230
         H            0.076849307229     1.196713425783     0.697278142169     1.007825032230
         H           -1.368612692771    -1.349998574217     1.829786142169     1.007825032230
         H           -2.076365692771    -2.242505574217     0.459580142169     1.007825032230
         H           -0.324267692771    -2.333060574217     0.774524142169     1.007825032230
         H            2.397325207229     1.798492225783    -0.011124957831     1.007825032230
         H            2.575444307229     0.863720425783     1.461438142169     1.007825032230
         H            4.154184307229    -0.708949574217     0.281124142169     1.007825032230
         H            3.970719307229     0.224164425783    -1.201757857831     1.007825032230
         H            4.741499307229     0.966970425783     0.216654142169     1.007825032230
         H           -2.849844692771     2.104789425783     0.105270142169     1.007825032230

  Basis Set: AUG-CC-PVTZ
    Blend: AUG-CC-PVTZ
  Basis Set: (AUG-CC-PVTZ AUX)
    Blend: AUG-CC-PVTZ-JKFIT
	 Reference Energy          =    -512.8862416979676482 [Eh]
	 Singles Energy            =      -0.0000000000000000 [Eh]
	 Same-Spin Energy          =      -0.5112642613190281 [Eh]
	 Opposite-Spin Energy      =      -1.6147623028766269 [Eh]
	 Correlation Energy        =      -2.1260265641956551 [Eh]
	 Total Energy              =    -515.0122682621632748 [Eh]

	 ================> DF-SCS-MP2 Energies <==================
	-----------------------------------------------------------
	 SCS Same-Spin Scale       =       0.3333333333333333 [-]
	 SCS Opposite-Spin Scale   =       1.2000000000000000 [-]
	 SCS Same-Spin Energy      =      -0.1704214204396760 [Eh]
	 SCS Opposite-Spin Energy  =      -1.9377147634519523 [Eh]
	 SCS Correlation Energy    =      -2.1081361838916282 [Eh]
	 SCS Total Energy          =    -514.9943778818592364 [Eh]
	-----------------------------------------------------------

  Dipole Moment: [D]
     X:     0.0119      Y:     3.2863      Z:     1.9444     Total:     3.8185

*** Psi4 exiting successfully. Buy a developer a beer!
