                               Psi4 1.3.2 release

  ==> Input File <==

--------------------------------------------------------------------------
#psi4
#
memory 32 gb

molecule  {
0 1
  O       -1.9756670     1.6664010     0.1857370
  O        1.6511300    -1.1930600    -0.6768240
  O       -3.2820610    -0.0444860    -0.5140140
  N        0.2133204     0.2852079     0.2854778
  C       -0.9464590    -0.4858680    -0.1100250
  C       -1.2117453    -1.6901771     0.7963322
  C        2.5941300     0.7851170     0.3678910
  C        1.4652130    -0.1360080    -0.0663740
  C       -2.1892550     0.3702600    -0.1810000
  C        3.9493650     0.2879730    -0.1118860
  H       -0.7666830    -0.8628490    -1.1247510
  H        0.0773990     1.1958980     0.6978160
  H       -1.3680630    -1.3508140     1.8303240
  H       -2.0758160    -2.2433210     0.4601180
  H       -0.3237180    -2.3338760     0.7750620
  H        2.3897550     1.7945520    -0.0146150
  H        2.5759940     0.8629050     1.4619760
  H        4.1547340    -0.7097650     0.2816620
  H        3.9712690     0.2233490    -1.2012200
  H        4.7420490     0.9661550     0.2171920
  H       -2.8492950     2.1039740     0.1058080
units angstrom
no_reorient  #important for SAPT in psi4, default
symmetry c1  #important for SAPT in psi4, default
}

set PROPERTIES_ORIGIN ["COM"]
properties('MP2/aug-cc-pvtz', properties = ['dipole'])
--------------------------------------------------------------------------

    Molecular point group: c1
  Charge       = 0
  Multiplicity = 1
  Basis Set: AUG-CC-PVTZ
    Blend: AUG-CC-PVTZ
  Basis Set: (AUG-CC-PVTZ AUX)
    Blend: AUG-CC-PVTZ-JKFIT

    Orbital Energies [Eh]
    ---------------------

    Doubly Occupied:

       1A    -20.635634     2A    -20.563410     3A    -20.524964
       4A    -15.592375     5A    -11.404297     6A    -11.356537
       7A    -11.296432     8A    -11.247644     9A    -11.227227
      10A    -11.219582    11A     -1.478129    12A     -1.380703
      13A     -1.373237    14A     -1.245398    15A     -1.074943
      16A     -1.035897    17A     -0.927851    18A     -0.885302
      19A     -0.817001    20A     -0.792578    21A     -0.730678
      22A     -0.714392    23A     -0.682806    24A     -0.665386
      25A     -0.641186    26A     -0.633195    27A     -0.609587
      28A     -0.603433    29A     -0.581929    30A     -0.548388
      31A     -0.542532    32A     -0.525326    33A     -0.519943
      34A     -0.518463    35A     -0.497520    36A     -0.487974
      37A     -0.467350    38A     -0.428981    39A     -0.400349

  @DF-RHF Final Energy:  -512.88583045989139

   => Energetics <=

    Nuclear Repulsion Energy =            548.1551788116332773
    One-Electron Energy =               -1788.3249014864666151
    Two-Electron Energy =                 727.2838922149419432
    Total Energy =                       -512.8858304598913946
  Basis Set: (AUG-CC-PVTZ AUX)
    Blend: AUG-CC-PVTZ-RI
    Molecular point group: c1

    Geometry (in Angstrom), charge = 0, multiplicity = 1:

       Center              X                  Y                   Z               Mass
    ------------   -----------------  -----------------  -----------------  -----------------
         O           -1.974597908099     1.665902710445     0.187274168857    15.994914619570
         O            1.652199091901    -1.193558289555    -0.675286831143    15.994914619570
         O           -3.280991908099    -0.044984289555    -0.512476831143    15.994914619570
         N            0.214389491901     0.284709610445     0.287014968857    14.003074004430
         C           -0.945389908099    -0.486366289555    -0.108487831143    12.000000000000
         C           -1.210676208099    -1.690675389555     0.797869368857    12.000000000000
         C            2.595199091901     0.784618710445     0.369428168857    12.000000000000
         C            1.466282091901    -0.136506289555    -0.064836831143    12.000000000000
         C           -2.188185908099     0.369761710445    -0.179462831143    12.000000000000
         C            3.950434091901     0.287474710445    -0.110348831143    12.000000000000
         H           -0.765613908099    -0.863347289555    -1.123213831143     1.007825032230
         H            0.078468091901     1.195399710445     0.699353168857     1.007825032230
         H           -1.366993908099    -1.351312289555     1.831861168857     1.007825032230
         H           -2.074746908099    -2.243819289555     0.461655168857     1.007825032230
         H           -0.322648908099    -2.334374289555     0.776599168857     1.007825032230
         H            2.390824091901     1.794053710445    -0.013077831143     1.007825032230
         H            2.577063091901     0.862406710445     1.463513168857     1.007825032230
         H            4.155803091901    -0.710263289555     0.283199168857     1.007825032230
         H            3.972338091901     0.222850710445    -1.199682831143     1.007825032230
         H            4.743118091901     0.965656710445     0.218729168857     1.007825032230
         H           -2.848225908099     2.103475710445     0.107345168857     1.007825032230

  Basis Set: AUG-CC-PVTZ
    Blend: AUG-CC-PVTZ
  Basis Set: (AUG-CC-PVTZ AUX)
    Blend: AUG-CC-PVTZ-JKFIT
	 Reference Energy          =    -512.8858304598913946 [Eh]
	 Singles Energy            =      -0.0000000000000000 [Eh]
	 Same-Spin Energy          =      -0.5113483413174582 [Eh]
	 Opposite-Spin Energy      =      -1.6149068589965723 [Eh]
	 Correlation Energy        =      -2.1262552003140307 [Eh]
	 Total Energy              =    -515.0120856602054573 [Eh]

	 ================> DF-SCS-MP2 Energies <==================
	-----------------------------------------------------------
	 SCS Same-Spin Scale       =       0.3333333333333333 [-]
	 SCS Opposite-Spin Scale   =       1.2000000000000000 [-]
	 SCS Same-Spin Energy      =      -0.1704494471058194 [Eh]
	 SCS Opposite-Spin Energy  =      -1.9378882307958867 [Eh]
	 SCS Correlation Energy    =      -2.1083376779017060 [Eh]
	 SCS Total Energy          =    -514.9941681377930536 [Eh]
	-----------------------------------------------------------

  Dipole Moment: [D]
     X:    -0.0274      Y:     3.2945      Z:     1.9739     Total:     3.8406

*** Psi4 exiting successfully. Buy a developer a beer!
