                               Psi4 1.3.2 release

  ==> Input File <==

--------------------------------------------------------------------------
#psi4
#
memory 32 gb

molecule  {
0 1
  O       -1.9756670     1.6664010     0.1857370
  O        1.6511300    -1.1930600    -0.6768240
  O       -3.2820610    -0.0444860    -0.5140140
  N        0.2106138     0.2676085     0.2898727
  C       -0.9464590    -0.4858680    -0.1100250
  C       -1.2010820    -1.6869190     0.8036840
  C        2.6029077     0.7769259     0.3622441
  C        1.4652130    -0.1360080    -0.0663740
  C       -2.1892550     0.3702600    -0.1810000
  C        3.9493650     0.2879730    -0.1118860
  H       -0.7666830    -0.8628490    -1.1247510
  H        0.0773990     1.1958980     0.6978160
  H       -1.3680630    -1.3508140     1.8303240
  H       -2.0758160    -2.2433210     0.4601180
  H       -0.3237180    -2.3338760     0.7750620
  H        2.3897550     1.7945520    -0.0146150
  H        2.5759940     0.8629050     1.4619760
  H        4.1547340    -0.7097650     0.2816620
  H        3.9712690     0.2233490    -1.2012200
  H        4.7420490     0.9661550     0.2171920
  H       -2.8492950     2.1039740     0.1058080
units angstrom
no_reorient  #important for SAPT in psi4, default
symmetry c1  #important for SAPT in psi4, default
}

set PROPERTIES_ORIGIN ["COM"]
properties('MP2/aug-cc-pvtz', properties = ['dipole'])
--------------------------------------------------------------------------

    Molecular point group: c1
  Charge       = 0
  Multiplicity = 1
  Basis Set: AUG-CC-PVTZ
    Blend: AUG-CC-PVTZ
  Basis Set: (AUG-CC-PVTZ AUX)
    Blend: AUG-CC-PVTZ-JKFIT

    Orbital Energies [Eh]
    ---------------------

    Doubly Occupied:

       1A    -20.635966     2A    -20.563743     3A    -20.523778
       4A    -15.592857     5A    -11.404763     6A    -11.355964
       7A    -11.295725     8A    -11.248918     9A    -11.226490
      10A    -11.219358    11A     -1.478424    12A     -1.380815
      13A     -1.373492    14A     -1.246095    15A     -1.075439
      16A     -1.036832    17A     -0.928012    18A     -0.885730
      19A     -0.816433    20A     -0.790621    21A     -0.731663
      22A     -0.714173    23A     -0.683930    24A     -0.665430
      25A     -0.640620    26A     -0.633199    27A     -0.610378
      28A     -0.601974    29A     -0.581305    30A     -0.547229
      31A     -0.544084    32A     -0.527579    33A     -0.520204
      34A     -0.519128    35A     -0.496541    36A     -0.486886
      37A     -0.467838    38A     -0.428480    39A     -0.399204

  @DF-RHF Final Energy:  -512.88524989759333

   => Energetics <=

    Nuclear Repulsion Energy =            548.3921564112913529
    One-Electron Energy =               -1788.7962130860194065
    Two-Electron Energy =                 727.5188067771347278
    Total Energy =                       -512.8852498975933258
  Basis Set: (AUG-CC-PVTZ AUX)
    Blend: AUG-CC-PVTZ-RI
    Molecular point group: c1

    Geometry (in Angstrom), charge = 0, multiplicity = 1:

       Center              X                  Y                   Z               Mass
    ------------   -----------------  -----------------  -----------------  -----------------
         O           -1.975944747806     1.668009510599     0.186708933389    15.994914619570
         O            1.650852252194    -1.191451489401    -0.675852066611    15.994914619570
         O           -3.282338747806    -0.042877489401    -0.513042066611    15.994914619570
         N            0.210336052194     0.269217010599     0.290844633389    14.003074004430
         C           -0.946736747806    -0.484259489401    -0.109053066611    12.000000000000
         C           -1.201359747806    -1.685310489401     0.804655933389    12.000000000000
         C            2.602629952194     0.778534410599     0.363216033389    12.000000000000
         C            1.464935252194    -0.134399489401    -0.065402066611    12.000000000000
         C           -2.189532747806     0.371868510599    -0.180028066611    12.000000000000
         C            3.949087252194     0.289581510599    -0.110914066611    12.000000000000
         H           -0.766960747806    -0.861240489401    -1.123779066611     1.007825032230
         H            0.077121252194     1.197506510599     0.698787933389     1.007825032230
         H           -1.368340747806    -1.349205489401     1.831295933389     1.007825032230
         H           -2.076093747806    -2.241712489401     0.461089933389     1.007825032230
         H           -0.323995747806    -2.332267489401     0.776033933389     1.007825032230
         H            2.389477252194     1.796160510599    -0.013643066611     1.007825032230
         H            2.575716252194     0.864513510599     1.462947933389     1.007825032230
         H            4.154456252194    -0.708156489401     0.282633933389     1.007825032230
         H            3.970991252194     0.224957510599    -1.200248066611     1.007825032230
         H            4.741771252194     0.967763510599     0.218163933389     1.007825032230
         H           -2.849572747806     2.105582510599     0.106779933389     1.007825032230

  Basis Set: AUG-CC-PVTZ
    Blend: AUG-CC-PVTZ
  Basis Set: (AUG-CC-PVTZ AUX)
    Blend: AUG-CC-PVTZ-JKFIT
	 Reference Energy          =    -512.8852498975933258 [Eh]
	 Singles Energy            =      -0.0000000000000000 [Eh]
	 Same-Spin Energy          =      -0.5115555939333354 [Eh]
	 Opposite-Spin Energy      =      -1.6151207930756879 [Eh]
	 Correlation Energy        =      -2.1266763870090233 [Eh]
	 Total Energy              =    -515.0119262846023958 [Eh]

	 ================> DF-SCS-MP2 Energies <==================
	-----------------------------------------------------------
	 SCS Same-Spin Scale       =       0.3333333333333333 [-]
	 SCS Opposite-Spin Scale   =       1.2000000000000000 [-]
	 SCS Same-Spin Energy      =      -0.1705185313111118 [Eh]
	 SCS Opposite-Spin Energy  =      -1.9381449516908253 [Eh]
	 SCS Correlation Energy    =      -2.1086634830019371 [Eh]
	 SCS Total Energy          =    -514.9939133805952451 [Eh]
	-----------------------------------------------------------

  Dipole Moment: [D]
     X:    -0.0163      Y:     3.3367      Z:     1.9672     Total:     3.8734

*** Psi4 exiting successfully. Buy a developer a beer!
