                               Psi4 1.4a3.dev225

  ==> Input File <==

--------------------------------------------------------------------------
#psi4
#
memory 32 gb

molecule  {
0 1
  O        2.1858500    -1.4843500     0.4466430
  O       -1.5901990     1.2021140    -0.7742790
  O        3.2899360     0.0893000    -0.7567370
  N       -0.1552130    -0.3501220     0.0655300
  C        0.9973750     0.5138300    -0.1038320
  C        1.1366130     1.5332170     1.0331740
  C       -2.5208420    -0.9251940    -0.0919400
  C       -1.4008270     0.0814870    -0.2899980
  C        2.2544812    -0.2805713    -0.2104438
  C       -3.8280260    -0.2360070     0.2837800
  H        0.8752740     1.0541530    -1.0466610
  H       -0.0274960    -1.2421660     0.5250420
  H        1.2555520     1.0181310     1.9903510
  H        2.0023980     2.1787030     0.8613650
  H        0.2327940     2.1443920     1.0604580
  H       -2.6404080    -1.4674310    -1.0380590
  H       -2.2372030    -1.6677960     0.6628800
  H       -3.7417830     0.2575120     1.2553170
  H       -4.0728600     0.5241080    -0.4590610
  H       -4.6456460    -0.9595500     0.3374610
  H        3.0673500    -1.9023430     0.3513230
units angstrom
no_reorient  #important for SAPT in psi4, default
symmetry c1  #important for SAPT in psi4, default
}

set PROPERTIES_ORIGIN ["COM"]
properties('MP2/aug-cc-pvtz', properties = ['dipole'])
--------------------------------------------------------------------------

    Molecular point group: c1
  Charge       = 0
  Multiplicity = 1
  Basis Set: AUG-CC-PVTZ
    Blend: AUG-CC-PVTZ
  Basis Set: (AUG-CC-PVTZ AUX)
    Blend: AUG-CC-PVTZ-JKFIT

    Orbital Energies [Eh]
    ---------------------

    Doubly Occupied:

       1A    -20.632704     2A    -20.564288     3A    -20.523526
       4A    -15.597061     5A    -11.405699     6A    -11.357774
       7A    -11.297496     8A    -11.248321     9A    -11.234507
      10A    -11.222850    11A     -1.471231    12A     -1.380363
      13A     -1.365222    14A     -1.247728    15A     -1.078823
      16A     -1.039710    17A     -0.930737    18A     -0.887668
      19A     -0.822554    20A     -0.794884    21A     -0.728381
      22A     -0.711679    23A     -0.680683    24A     -0.659762
      25A     -0.642540    26A     -0.632680    27A     -0.610835
      28A     -0.599572    29A     -0.584706    30A     -0.557107
      31A     -0.551070    32A     -0.529171    33A     -0.524208
      34A     -0.513833    35A     -0.496743    36A     -0.485941
      37A     -0.470144    38A     -0.428502    39A     -0.401767

  @DF-RHF Final Energy:  -512.88420558377425

   => Energetics <=

    Nuclear Repulsion Energy =            547.9691294084756237
    One-Electron Energy =               -1787.8817353559620642
    Two-Electron Energy =                 727.0284003637123078
    Total Energy =                       -512.8842055837742464
  Basis Set: (AUG-CC-PVTZ AUX)
    Blend: AUG-CC-PVTZ-RI
    Molecular point group: c1

    Geometry (in Angstrom), charge = 0, multiplicity = 1:

       Center              X                  Y                   Z               Mass
    ------------   -----------------  -----------------  -----------------  -----------------
         O            2.119458198321    -1.485656829743     0.477264069804    15.994914619570
         O           -1.656590801679     1.200807170257    -0.743657930196    15.994914619570
         O            3.223544198321     0.087993170257    -0.726115930196    15.994914619570
         N           -0.221604801679    -0.351428829743     0.096151069804    14.003074004430
         C            0.930983198321     0.512523170257    -0.073210930196    12.000000000000
         C            1.070221198321     1.531910170257     1.063795069804    12.000000000000
         C           -2.587233801679    -0.926500829743    -0.061318930196    12.000000000000
         C           -1.467218801679     0.080180170257    -0.259376930196    12.000000000000
         C            2.188089398321    -0.281878129743    -0.179822730196    12.000000000000
         C           -3.894417801679    -0.237313829743     0.314401069804    12.000000000000
         H            0.808882198321     1.052846170257    -1.016039930196     1.007825032230
         H           -0.093887801679    -1.243472829743     0.555663069804     1.007825032230
         H            1.189160198321     1.016824170257     2.020972069804     1.007825032230
         H            1.936006198321     2.177396170257     0.891986069804     1.007825032230
         H            0.166402198321     2.143085170257     1.091079069804     1.007825032230
         H           -2.706799801679    -1.468737829743    -1.007437930196     1.007825032230
         H           -2.303594801679    -1.669102829743     0.693501069804     1.007825032230
         H           -3.808174801679     0.256205170257     1.285938069804     1.007825032230
         H           -4.139251801679     0.522801170257    -0.428439930196     1.007825032230
         H           -4.712037801679    -0.960856829743     0.368082069804     1.007825032230
         H            3.000958198321    -1.903649829743     0.381944069804     1.007825032230

  Basis Set: AUG-CC-PVTZ
    Blend: AUG-CC-PVTZ
  Basis Set: (AUG-CC-PVTZ AUX)
    Blend: AUG-CC-PVTZ-JKFIT
	 Reference Energy          =    -512.8842055837742464 [Eh]
	 Singles Energy            =      -0.0000000000000000 [Eh]
	 Same-Spin Energy          =      -0.5116117014846723 [Eh]
	 Opposite-Spin Energy      =      -1.6159553909393995 [Eh]
	 Correlation Energy        =      -2.1275670924240719 [Eh]
	 Total Energy              =    -515.0117726761983477 [Eh]

	 ================> DF-SCS-MP2 Energies <==================
	-----------------------------------------------------------
	 SCS Same-Spin Scale       =       0.3333333333333333 [-]
	 SCS Opposite-Spin Scale   =       1.2000000000000000 [-]
	 SCS Same-Spin Energy      =      -0.1705372338282241 [Eh]
	 SCS Opposite-Spin Energy  =      -1.9391464691272793 [Eh]
	 SCS Correlation Energy    =      -2.1096837029555036 [Eh]
	 SCS Total Energy          =    -514.9938892867297682 [Eh]
	-----------------------------------------------------------

  Dipole Moment: [D]
     X:     0.0299      Y:    -3.2211      Z:     2.3032     Total:     3.9599

*** Psi4 exiting successfully. Buy a developer a beer!
