                               Psi4 1.3.2 release

  ==> Input File <==

--------------------------------------------------------------------------
#psi4
#
memory 32 gb

molecule  {
0 1
  O       -1.9756670     1.6664010     0.1857370
  O        1.6298881    -1.1966855    -0.6766352
  O       -3.2820610    -0.0444860    -0.5140140
  N        0.2061130     0.2576571     0.2850973
  C       -0.9464590    -0.4858680    -0.1100250
  C       -1.2010820    -1.6869190     0.8036840
  C        2.5941300     0.7851170     0.3678910
  C        1.4652130    -0.1360080    -0.0663740
  C       -2.1892550     0.3702600    -0.1810000
  C        3.9493650     0.2879730    -0.1118860
  H       -0.7666830    -0.8628490    -1.1247510
  H        0.0773990     1.1958980     0.6978160
  H       -1.3680630    -1.3508140     1.8303240
  H       -2.0758160    -2.2433210     0.4601180
  H       -0.3237180    -2.3338760     0.7750620
  H        2.3897550     1.7945520    -0.0146150
  H        2.5759940     0.8629050     1.4619760
  H        4.1547340    -0.7097650     0.2816620
  H        3.9712690     0.2233490    -1.2012200
  H        4.7420490     0.9661550     0.2171920
  H       -2.8492950     2.1039740     0.1058080
units angstrom
no_reorient  #important for SAPT in psi4, default
symmetry c1  #important for SAPT in psi4, default
}

set PROPERTIES_ORIGIN ["COM"]
properties('MP2/aug-cc-pvtz', properties = ['dipole'])
--------------------------------------------------------------------------

    Molecular point group: c1
  Charge       = 0
  Multiplicity = 1
  Basis Set: AUG-CC-PVTZ
    Blend: AUG-CC-PVTZ
  Basis Set: (AUG-CC-PVTZ AUX)
    Blend: AUG-CC-PVTZ-JKFIT

    Orbital Energies [Eh]
    ---------------------

    Doubly Occupied:

       1A    -20.635452     2A    -20.563138     3A    -20.523380
       4A    -15.591949     5A    -11.404143     6A    -11.356002
       7A    -11.294016     8A    -11.249950     9A    -11.225435
      10A    -11.221032    11A     -1.477893    12A     -1.381469
      13A     -1.372924    14A     -1.245584    15A     -1.075389
      16A     -1.035436    17A     -0.927550    18A     -0.886650
      19A     -0.815876    20A     -0.789028    21A     -0.732714
      22A     -0.713242    23A     -0.684598    24A     -0.664840
      25A     -0.642001    26A     -0.632869    27A     -0.609826
      28A     -0.601130    29A     -0.580888    30A     -0.546027
      31A     -0.543395    32A     -0.525884    33A     -0.520958
      34A     -0.519552    35A     -0.497860    36A     -0.487898
      37A     -0.467141    38A     -0.429266    39A     -0.397316

  @DF-RHF Final Energy:  -512.88448047745192

   => Energetics <=

    Nuclear Repulsion Energy =            548.6340848100198855
    One-Electron Energy =               -1789.2977238908517847
    Two-Electron Energy =                 727.7791586033799831
    Total Energy =                       -512.8844804774519162
  Basis Set: (AUG-CC-PVTZ AUX)
    Blend: AUG-CC-PVTZ-RI
    Molecular point group: c1

    Geometry (in Angstrom), charge = 0, multiplicity = 1:

       Center              X                  Y                   Z               Mass
    ------------   -----------------  -----------------  -----------------  -----------------
         O           -1.972442258136     1.668692242353     0.186681965337    15.994914619570
         O            1.633112841864    -1.194394257647    -0.675690234663    15.994914619570
         O           -3.278836258136    -0.042194757647    -0.513069034663    15.994914619570
         N            0.209337741864     0.259948342353     0.286042265337    14.003074004430
         C           -0.943234258136    -0.483576757647    -0.109080034663    12.000000000000
         C           -1.197857258136    -1.684627757647     0.804628965337    12.000000000000
         C            2.597354741864     0.787408242353     0.368835965337    12.000000000000
         C            1.468437741864    -0.133716757647    -0.065429034663    12.000000000000
         C           -2.186030258136     0.372551242353    -0.180055034663    12.000000000000
         C            3.952589741864     0.290264242353    -0.110941034663    12.000000000000
         H           -0.763458258136    -0.860557757647    -1.123806034663     1.007825032230
         H            0.080623741864     1.198189242353     0.698760965337     1.007825032230
         H           -1.364838258136    -1.348522757647     1.831268965337     1.007825032230
         H           -2.072591258136    -2.241029757647     0.461062965337     1.007825032230
         H           -0.320493258136    -2.331584757647     0.776006965337     1.007825032230
         H            2.392979741864     1.796843242353    -0.013670034663     1.007825032230
         H            2.579218741864     0.865196242353     1.462920965337     1.007825032230
         H            4.157958741864    -0.707473757647     0.282606965337     1.007825032230
         H            3.974493741864     0.225640242353    -1.200275034663     1.007825032230
         H            4.745273741864     0.968446242353     0.218136965337     1.007825032230
         H           -2.846070258136     2.106265242353     0.106752965337     1.007825032230

  Basis Set: AUG-CC-PVTZ
    Blend: AUG-CC-PVTZ
  Basis Set: (AUG-CC-PVTZ AUX)
    Blend: AUG-CC-PVTZ-JKFIT
	 Reference Energy          =    -512.8844804774519162 [Eh]
	 Singles Energy            =      -0.0000000000000000 [Eh]
	 Same-Spin Energy          =      -0.5116649201527641 [Eh]
	 Opposite-Spin Energy      =      -1.6152795325139551 [Eh]
	 Correlation Energy        =      -2.1269444526667192 [Eh]
	 Total Energy              =    -515.0114249301186646 [Eh]

	 ================> DF-SCS-MP2 Energies <==================
	-----------------------------------------------------------
	 SCS Same-Spin Scale       =       0.3333333333333333 [-]
	 SCS Opposite-Spin Scale   =       1.2000000000000000 [-]
	 SCS Same-Spin Energy      =      -0.1705549733842547 [Eh]
	 SCS Opposite-Spin Energy  =      -1.9383354390167460 [Eh]
	 SCS Correlation Energy    =      -2.1088904124010006 [Eh]
	 SCS Total Energy          =    -514.9933708898529403 [Eh]
	-----------------------------------------------------------

  Dipole Moment: [D]
     X:     0.0757      Y:     3.3764      Z:     1.9756     Total:     3.9127

*** Psi4 exiting successfully. Buy a developer a beer!
