                               Psi4 1.3.2 release

  ==> Input File <==

--------------------------------------------------------------------------
#psi4
#
memory 32 gb

molecule  {
0 1
  O       -1.9756670     1.6664010     0.1857370
  O        1.6511300    -1.1930600    -0.6768240
  O       -3.2820610    -0.0444860    -0.5140140
  N        0.2152580     0.2772540     0.2951010
  C       -0.9676573    -0.4928389    -0.1247050
  C       -1.2010820    -1.6869190     0.8036840
  C        2.5941300     0.7851170     0.3678910
  C        1.4652130    -0.1360080    -0.0663740
  C       -2.1892550     0.3702600    -0.1810000
  C        3.9493650     0.2879730    -0.1118860
  H       -0.7666830    -0.8628490    -1.1247510
  H        0.0773990     1.1958980     0.6978160
  H       -1.3680630    -1.3508140     1.8303240
  H       -2.0779199    -2.2308701     0.4458393
  H       -0.3237180    -2.3338760     0.7750620
  H        2.3897550     1.7945520    -0.0146150
  H        2.5759940     0.8629050     1.4619760
  H        4.1547340    -0.7097650     0.2816620
  H        3.9712690     0.2233490    -1.2012200
  H        4.7420490     0.9661550     0.2171920
  H       -2.8492950     2.1039740     0.1058080
units angstrom
no_reorient  #important for SAPT in psi4, default
symmetry c1  #important for SAPT in psi4, default
}

set PROPERTIES_ORIGIN ["COM"]
properties('MP2/aug-cc-pvtz', properties = ['dipole'])
--------------------------------------------------------------------------

    Molecular point group: c1
  Charge       = 0
  Multiplicity = 1
  Basis Set: AUG-CC-PVTZ
    Blend: AUG-CC-PVTZ
  Basis Set: (AUG-CC-PVTZ AUX)
    Blend: AUG-CC-PVTZ-JKFIT

    Orbital Energies [Eh]
    ---------------------

    Doubly Occupied:

       1A    -20.636893     2A    -20.564208     3A    -20.523309
       4A    -15.591116     5A    -11.405099     6A    -11.354983
       7A    -11.296570     8A    -11.246775     9A    -11.228002
      10A    -11.218947    11A     -1.479363    12A     -1.378931
      13A     -1.374471    14A     -1.239688    15A     -1.075494
      16A     -1.036590    17A     -0.928718    18A     -0.884780
      19A     -0.817327    20A     -0.790114    21A     -0.729948
      22A     -0.715131    23A     -0.680912    24A     -0.666891
      25A     -0.640663    26A     -0.633221    27A     -0.612494
      28A     -0.601549    29A     -0.577805    30A     -0.549553
      31A     -0.544077    32A     -0.522300    33A     -0.520989
      34A     -0.518736    35A     -0.497441    36A     -0.488498
      37A     -0.469992    38A     -0.427505    39A     -0.399863

  @DF-RHF Final Energy:  -512.88531028780744

   => Energetics <=

    Nuclear Repulsion Energy =            548.0253302291574755
    One-Electron Energy =               -1788.0833903822335742
    Two-Electron Energy =                 727.1727498652685426
    Total Energy =                       -512.8853102878074424
  Basis Set: (AUG-CC-PVTZ AUX)
    Blend: AUG-CC-PVTZ-RI
    Molecular point group: c1

    Geometry (in Angstrom), charge = 0, multiplicity = 1:

       Center              X                  Y                   Z               Mass
    ------------   -----------------  -----------------  -----------------  -----------------
         O           -1.973898898755     1.666891064162     0.187050658274    15.994914619570
         O            1.652898101245    -1.192569935838    -0.675510341726    15.994914619570
         O           -3.280292898755    -0.043995935838    -0.512700341726    15.994914619570
         N            0.217026101245     0.277744064162     0.296414658274    14.003074004430
         C           -0.965889198755    -0.492348835838    -0.123391341726    12.000000000000
         C           -1.199313898755    -1.686428935838     0.804997658274    12.000000000000
         C            2.595898101245     0.785607064162     0.369204658274    12.000000000000
         C            1.466981101245    -0.135517935838    -0.065060341726    12.000000000000
         C           -2.187486898755     0.370750064162    -0.179686341726    12.000000000000
         C            3.951133101245     0.288463064162    -0.110572341726    12.000000000000
         H           -0.764914898755    -0.862358935838    -1.123437341726     1.007825032230
         H            0.079167101245     1.196388064162     0.699129658274     1.007825032230
         H           -1.366294898755    -1.350323935838     1.831637658274     1.007825032230
         H           -2.076151798755    -2.230380035838     0.447152958274     1.007825032230
         H           -0.321949898755    -2.333385935838     0.776375658274     1.007825032230
         H            2.391523101245     1.795042064162    -0.013301341726     1.007825032230
         H            2.577762101245     0.863395064162     1.463289658274     1.007825032230
         H            4.156502101245    -0.709274935838     0.282975658274     1.007825032230
         H            3.973037101245     0.223839064162    -1.199906341726     1.007825032230
         H            4.743817101245     0.966645064162     0.218505658274     1.007825032230
         H           -2.847526898755     2.104464064162     0.107121658274     1.007825032230

  Basis Set: AUG-CC-PVTZ
    Blend: AUG-CC-PVTZ
  Basis Set: (AUG-CC-PVTZ AUX)
    Blend: AUG-CC-PVTZ-JKFIT
	 Reference Energy          =    -512.8853102878074424 [Eh]
	 Singles Energy            =      -0.0000000000000000 [Eh]
	 Same-Spin Energy          =      -0.5112663560753435 [Eh]
	 Opposite-Spin Energy      =      -1.6150050290721063 [Eh]
	 Correlation Energy        =      -2.1262713851474500 [Eh]
	 Total Energy              =    -515.0115816729548897 [Eh]

	 ================> DF-SCS-MP2 Energies <==================
	-----------------------------------------------------------
	 SCS Same-Spin Scale       =       0.3333333333333333 [-]
	 SCS Opposite-Spin Scale   =       1.2000000000000000 [-]
	 SCS Same-Spin Energy      =      -0.1704221186917812 [Eh]
	 SCS Opposite-Spin Energy  =      -1.9380060348865276 [Eh]
	 SCS Correlation Energy    =      -2.1084281535783087 [Eh]
	 SCS Total Energy          =    -514.9937384413857444 [Eh]
	-----------------------------------------------------------

  Dipole Moment: [D]
     X:    -0.1190      Y:     3.2966      Z:     1.9500     Total:     3.8320

*** Psi4 exiting successfully. Buy a developer a beer!
