                               Psi4 1.3.2 release

  ==> Input File <==

--------------------------------------------------------------------------
#psi4
#
memory 32 gb

molecule  {
0 1
  O       -1.9756670     1.6664010     0.1857370
  O        1.6085107    -1.1994559    -0.6772075
  O       -3.2820610    -0.0444860    -0.5140140
  N        0.2152580     0.2772540     0.2951010
  C       -0.9464590    -0.4858680    -0.1100250
  C       -1.2010820    -1.6869190     0.8036840
  C        2.5580738     0.8177989     0.3890584
  C        1.4652130    -0.1360080    -0.0663740
  C       -2.1892550     0.3702600    -0.1810000
  C        3.9493650     0.2879730    -0.1118860
  H       -0.7666830    -0.8628490    -1.1247510
  H        0.0773990     1.1958980     0.6978160
  H       -1.3680630    -1.3508140     1.8303240
  H       -2.0758160    -2.2433210     0.4601180
  H       -0.3237180    -2.3338760     0.7750620
  H        2.3897550     1.7945520    -0.0146150
  H        2.5759940     0.8629050     1.4619760
  H        4.1547340    -0.7097650     0.2816620
  H        3.9712690     0.2233490    -1.2012200
  H        4.7420490     0.9661550     0.2171920
  H       -2.8492950     2.1039740     0.1058080
units angstrom
no_reorient  #important for SAPT in psi4, default
symmetry c1  #important for SAPT in psi4, default
}

set PROPERTIES_ORIGIN ["COM"]
properties('MP2/aug-cc-pvtz', properties = ['dipole'])
--------------------------------------------------------------------------

    Molecular point group: c1
  Charge       = 0
  Multiplicity = 1
  Basis Set: AUG-CC-PVTZ
    Blend: AUG-CC-PVTZ
  Basis Set: (AUG-CC-PVTZ AUX)
    Blend: AUG-CC-PVTZ-JKFIT

    Orbital Energies [Eh]
    ---------------------

    Doubly Occupied:

       1A    -20.634969     2A    -20.562670     3A    -20.525402
       4A    -15.589611     5A    -11.403495     6A    -11.356699
       7A    -11.294386     8A    -11.247426     9A    -11.225629
      10A    -11.223131    11A     -1.477387    12A     -1.381718
      13A     -1.372490    14A     -1.242811    15A     -1.074160
      16A     -1.030975    17A     -0.926382    18A     -0.886561
      19A     -0.815562    20A     -0.792966    21A     -0.731600
      22A     -0.713551    23A     -0.682107    24A     -0.664639
      25A     -0.646188    26A     -0.633192    27A     -0.608981
      28A     -0.602472    29A     -0.579774    30A     -0.544474
      31A     -0.542367    32A     -0.524529    33A     -0.521395
      34A     -0.509286    35A     -0.503537    36A     -0.489738
      37A     -0.466476    38A     -0.430563    39A     -0.398657

  @DF-RHF Final Energy:  -512.88274893920584

   => Energetics <=

    Nuclear Repulsion Energy =            548.3262176153252767
    One-Electron Energy =               -1788.7020218999659846
    Two-Electron Energy =                 727.4930553454348683
    Total Energy =                       -512.8827489392058396
  Basis Set: (AUG-CC-PVTZ AUX)
    Blend: AUG-CC-PVTZ-RI
    Molecular point group: c1

    Geometry (in Angstrom), charge = 0, multiplicity = 1:

       Center              X                  Y                   Z               Mass
    ------------   -----------------  -----------------  -----------------  -----------------
         O           -1.967985591526     1.664402791538     0.184028576411    15.994914619570
         O            1.616192108474    -1.201454108462    -0.678915923589    15.994914619570
         O           -3.274379591526    -0.046484208462    -0.515722423589    15.994914619570
         N            0.222939408474     0.275255791538     0.293392576411    14.003074004430
         C           -0.938777591526    -0.487866208462    -0.111733423589    12.000000000000
         C           -1.193400591526    -1.688917208462     0.801975576411    12.000000000000
         C            2.565755208474     0.815800691538     0.387349976411    12.000000000000
         C            1.472894408474    -0.138006208462    -0.068082423589    12.000000000000
         C           -2.181573591526     0.368261791538    -0.182708423589    12.000000000000
         C            3.957046408474     0.285974791538    -0.113594423589    12.000000000000
         H           -0.759001591526    -0.864847208462    -1.126459423589     1.007825032230
         H            0.085080408474     1.193899791538     0.696107576411     1.007825032230
         H           -1.360381591526    -1.352812208462     1.828615576411     1.007825032230
         H           -2.068134591526    -2.245319208462     0.458409576411     1.007825032230
         H           -0.316036591526    -2.335874208462     0.773353576411     1.007825032230
         H            2.397436408474     1.792553791538    -0.016323423589     1.007825032230
         H            2.583675408474     0.860906791538     1.460267576411     1.007825032230
         H            4.162415408474    -0.711763208462     0.279953576411     1.007825032230
         H            3.978950408474     0.221350791538    -1.202928423589     1.007825032230
         H            4.749730408474     0.964156791538     0.215483576411     1.007825032230
         H           -2.841613591526     2.101975791538     0.104099576411     1.007825032230

  Basis Set: AUG-CC-PVTZ
    Blend: AUG-CC-PVTZ
  Basis Set: (AUG-CC-PVTZ AUX)
    Blend: AUG-CC-PVTZ-JKFIT
	 Reference Energy          =    -512.8827489392058396 [Eh]
	 Singles Energy            =      -0.0000000000000000 [Eh]
	 Same-Spin Energy          =      -0.5113438272152390 [Eh]
	 Opposite-Spin Energy      =      -1.6152013514162118 [Eh]
	 Correlation Energy        =      -2.1265451786314506 [Eh]
	 Total Energy              =    -515.0092941178372712 [Eh]

	 ================> DF-SCS-MP2 Energies <==================
	-----------------------------------------------------------
	 SCS Same-Spin Scale       =       0.3333333333333333 [-]
	 SCS Opposite-Spin Scale   =       1.2000000000000000 [-]
	 SCS Same-Spin Energy      =      -0.1704479424050797 [Eh]
	 SCS Opposite-Spin Energy  =      -1.9382416216994540 [Eh]
	 SCS Correlation Energy    =      -2.1086895641045338 [Eh]
	 SCS Total Energy          =    -514.9914385033104054 [Eh]
	-----------------------------------------------------------

  Dipole Moment: [D]
     X:     0.0866      Y:     3.3456      Z:     1.9651     Total:     3.8810

*** Psi4 exiting successfully. Buy a developer a beer!
