                               Psi4 1.4a3.dev225

  ==> Input File <==

--------------------------------------------------------------------------
#psi4
#
memory 32 gb

molecule  {
0 1
  O        2.1858500    -1.4843500     0.4466430
  O       -1.5901990     1.2021140    -0.7742790
  O        3.2899360     0.0893000    -0.7567370
  N       -0.1552130    -0.3501220     0.0655300
  C        0.9973750     0.5138300    -0.1038320
  C        1.1366130     1.5332170     1.0331740
  C       -2.5208420    -0.9251940    -0.0919400
  C       -1.4008270     0.0814870    -0.2899980
  C        2.2713450    -0.2912280    -0.2118740
  C       -3.8280260    -0.2360070     0.2837800
  H        0.8752740     1.0541530    -1.0466610
  H       -0.0249708    -1.2598034     0.5341274
  H        1.2555520     1.0181310     1.9903510
  H        2.0023980     2.1787030     0.8613650
  H        0.2327940     2.1443920     1.0604580
  H       -2.6404080    -1.4674310    -1.0380590
  H       -2.2372030    -1.6677960     0.6628800
  H       -3.7417830     0.2575120     1.2553170
  H       -4.0728600     0.5241080    -0.4590610
  H       -4.6456460    -0.9595500     0.3374610
  H        3.0673500    -1.9023430     0.3513230
units angstrom
no_reorient  #important for SAPT in psi4, default
symmetry c1  #important for SAPT in psi4, default
}

set PROPERTIES_ORIGIN ["COM"]
properties('MP2/aug-cc-pvtz', properties = ['dipole'])
--------------------------------------------------------------------------

    Molecular point group: c1
  Charge       = 0
  Multiplicity = 1
  Basis Set: AUG-CC-PVTZ
    Blend: AUG-CC-PVTZ
  Basis Set: (AUG-CC-PVTZ AUX)
    Blend: AUG-CC-PVTZ-JKFIT

    Orbital Energies [Eh]
    ---------------------

    Doubly Occupied:

       1A    -20.634600     2A    -20.565206     3A    -20.522488
       4A    -15.597526     5A    -11.404058     6A    -11.356749
       7A    -11.296567     8A    -11.247609     9A    -11.232900
      10A    -11.222293    11A     -1.476619    12A     -1.379180
      13A     -1.372774    14A     -1.243886    15A     -1.075880
      16A     -1.037032    17A     -0.927823    18A     -0.886321
      19A     -0.820917    20A     -0.791951    21A     -0.726968
      22A     -0.713899    23A     -0.680221    24A     -0.660393
      25A     -0.642552    26A     -0.634210    27A     -0.610887
      28A     -0.598096    29A     -0.584060    30A     -0.556300
      31A     -0.550718    32A     -0.527855    33A     -0.523453
      34A     -0.513182    35A     -0.497968    36A     -0.487469
      37A     -0.469360    38A     -0.427413    39A     -0.399968

  @DF-RHF Final Energy:  -512.88515322445642

   => Energetics <=

    Nuclear Repulsion Energy =            547.7704706584934229
    One-Electron Energy =               -1787.5165427661572721
    Two-Electron Energy =                 726.8609188832074324
    Total Energy =                       -512.8851532244564169
  Basis Set: (AUG-CC-PVTZ AUX)
    Blend: AUG-CC-PVTZ-RI
    Molecular point group: c1

    Geometry (in Angstrom), charge = 0, multiplicity = 1:

       Center              X                  Y                   Z               Mass
    ------------   -----------------  -----------------  -----------------  -----------------
         O            2.118045741847    -1.484652818546     0.477319254830    15.994914619570
         O           -1.658003258153     1.201811181454    -0.743602745170    15.994914619570
         O            3.222131741847     0.088997181454    -0.726060745170    15.994914619570
         N           -0.223017258153    -0.350424818546     0.096206254830    14.003074004430
         C            0.929570741847     0.513527181454    -0.073155745170    12.000000000000
         C            1.068808741847     1.532914181454     1.063850254830    12.000000000000
         C           -2.588646258153    -0.925496818546    -0.061263745170    12.000000000000
         C           -1.468631258153     0.081184181454    -0.259321745170    12.000000000000
         C            2.203540741847    -0.291530818546    -0.181197745170    12.000000000000
         C           -3.895830258153    -0.236309818546     0.314456254830    12.000000000000
         H            0.807469741847     1.053850181454    -1.015984745170     1.007825032230
         H           -0.092775058153    -1.260106218546     0.564803654830     1.007825032230
         H            1.187747741847     1.017828181454     2.021027254830     1.007825032230
         H            1.934593741847     2.178400181454     0.892041254830     1.007825032230
         H            0.164989741847     2.144089181454     1.091134254830     1.007825032230
         H           -2.708212258153    -1.467733818546    -1.007382745170     1.007825032230
         H           -2.305007258153    -1.668098818546     0.693556254830     1.007825032230
         H           -3.809587258153     0.257209181454     1.285993254830     1.007825032230
         H           -4.140664258153     0.523805181454    -0.428384745170     1.007825032230
         H           -4.713450258153    -0.959852818546     0.368137254830     1.007825032230
         H            2.999545741847    -1.902645818546     0.381999254830     1.007825032230

  Basis Set: AUG-CC-PVTZ
    Blend: AUG-CC-PVTZ
  Basis Set: (AUG-CC-PVTZ AUX)
    Blend: AUG-CC-PVTZ-JKFIT
	 Reference Energy          =    -512.8851532244564169 [Eh]
	 Singles Energy            =      -0.0000000000000000 [Eh]
	 Same-Spin Energy          =      -0.5113819526528002 [Eh]
	 Opposite-Spin Energy      =      -1.6155192632022004 [Eh]
	 Correlation Energy        =      -2.1269012158550007 [Eh]
	 Total Energy              =    -515.0120544403114309 [Eh]

	 ================> DF-SCS-MP2 Energies <==================
	-----------------------------------------------------------
	 SCS Same-Spin Scale       =       0.3333333333333333 [-]
	 SCS Opposite-Spin Scale   =       1.2000000000000000 [-]
	 SCS Same-Spin Energy      =      -0.1704606508842667 [Eh]
	 SCS Opposite-Spin Energy  =      -1.9386231158426404 [Eh]
	 SCS Correlation Energy    =      -2.1090837667269069 [Eh]
	 SCS Total Energy          =    -514.9942369911833566 [Eh]
	-----------------------------------------------------------

  Dipole Moment: [D]
     X:     0.1476      Y:    -3.3051      Z:     2.2997     Total:     4.0292

*** Psi4 exiting successfully. Buy a developer a beer!
