                               Psi4 1.3.2 release

  ==> Input File <==

--------------------------------------------------------------------------
#psi4
#
memory 32 gb

molecule  {
0 1
  O       -1.9756670     1.6664010     0.1857370
  O        1.6511300    -1.1930600    -0.6768240
  O       -3.2900777    -0.0250433    -0.5112455
  N        0.2152580     0.2772540     0.2951010
  C       -0.9326803    -0.4648079    -0.1021571
  C       -1.2010820    -1.6869190     0.8036840
  C        2.5941300     0.7851170     0.3678910
  C        1.4652130    -0.1360080    -0.0663740
  C       -2.1892550     0.3702600    -0.1810000
  C        3.9493650     0.2879730    -0.1118860
  H       -0.7666830    -0.8628490    -1.1247510
  H        0.0773990     1.1958980     0.6978160
  H       -1.3680630    -1.3508140     1.8303240
  H       -2.0758160    -2.2433210     0.4601180
  H       -0.3237180    -2.3338760     0.7750620
  H        2.3897550     1.7945520    -0.0146150
  H        2.5759940     0.8629050     1.4619760
  H        4.1547340    -0.7097650     0.2816620
  H        3.9712690     0.2233490    -1.2012200
  H        4.7420490     0.9661550     0.2171920
  H       -2.8492950     2.1039740     0.1058080
units angstrom
no_reorient  #important for SAPT in psi4, default
symmetry c1  #important for SAPT in psi4, default
}

set PROPERTIES_ORIGIN ["COM"]
properties('MP2/aug-cc-pvtz', properties = ['dipole'])
--------------------------------------------------------------------------

    Molecular point group: c1
  Charge       = 0
  Multiplicity = 1
  Basis Set: AUG-CC-PVTZ
    Blend: AUG-CC-PVTZ
  Basis Set: (AUG-CC-PVTZ AUX)
    Blend: AUG-CC-PVTZ-JKFIT

    Orbital Energies [Eh]
    ---------------------

    Doubly Occupied:

       1A    -20.633423     2A    -20.563244     3A    -20.526200
       4A    -15.593929     5A    -11.404461     6A    -11.357769
       7A    -11.296858     8A    -11.248602     9A    -11.227392
      10A    -11.220247    11A     -1.477979    12A     -1.382707
      13A     -1.371430    14A     -1.251627    15A     -1.074937
      16A     -1.034850    17A     -0.927983    18A     -0.886927
      19A     -0.816008    20A     -0.795035    21A     -0.732974
      22A     -0.713600    23A     -0.685011    24A     -0.664850
      25A     -0.641991    26A     -0.633108    27A     -0.609045
      28A     -0.603217    29A     -0.582274    30A     -0.546475
      31A     -0.542630    32A     -0.526535    33A     -0.520527
      34A     -0.518328    35A     -0.497639    36A     -0.487503
      37A     -0.467408    38A     -0.430488    39A     -0.399746

  @DF-RHF Final Energy:  -512.88492384054757

   => Energetics <=

    Nuclear Repulsion Energy =            548.3734518324212104
    One-Electron Energy =               -1788.7268392904754819
    Two-Electron Energy =                 727.4684636175068135
    Total Energy =                       -512.8849238405475717
  Basis Set: (AUG-CC-PVTZ AUX)
    Blend: AUG-CC-PVTZ-RI
    Molecular point group: c1

    Geometry (in Angstrom), charge = 0, multiplicity = 1:

       Center              X                  Y                   Z               Mass
    ------------   -----------------  -----------------  -----------------  -----------------
         O           -1.975922818597     1.662515307893     0.184781144821    15.994914619570
         O            1.650874181403    -1.196945692107    -0.677779855179    15.994914619570
         O           -3.290333518597    -0.028928992107    -0.512201355179    15.994914619570
         N            0.215002181403     0.273368307893     0.294145144821    14.003074004430
         C           -0.932936118597    -0.468693592107    -0.103112955179    12.000000000000
         C           -1.201337818597    -1.690804692107     0.802728144821    12.000000000000
         C            2.593874181403     0.781231307893     0.366935144821    12.000000000000
         C            1.464957181403    -0.139893692107    -0.067329855179    12.000000000000
         C           -2.189510818597     0.366374307893    -0.181955855179    12.000000000000
         C            3.949109181403     0.284087307893    -0.112841855179    12.000000000000
         H           -0.766938818597    -0.866734692107    -1.125706855179     1.007825032230
         H            0.077143181403     1.192012307893     0.696860144821     1.007825032230
         H           -1.368318818597    -1.354699692107     1.829368144821     1.007825032230
         H           -2.076071818597    -2.247206692107     0.459162144821     1.007825032230
         H           -0.323973818597    -2.337761692107     0.774106144821     1.007825032230
         H            2.389499181403     1.790666307893    -0.015570855179     1.007825032230
         H            2.575738181403     0.859019307893     1.461020144821     1.007825032230
         H            4.154478181403    -0.713650692107     0.280706144821     1.007825032230
         H            3.971013181403     0.219463307893    -1.202175855179     1.007825032230
         H            4.741793181403     0.962269307893     0.216236144821     1.007825032230
         H           -2.849550818597     2.100088307893     0.104852144821     1.007825032230

  Basis Set: AUG-CC-PVTZ
    Blend: AUG-CC-PVTZ
  Basis Set: (AUG-CC-PVTZ AUX)
    Blend: AUG-CC-PVTZ-JKFIT
	 Reference Energy          =    -512.8849238405475717 [Eh]
	 Singles Energy            =      -0.0000000000000000 [Eh]
	 Same-Spin Energy          =      -0.5115548919082067 [Eh]
	 Opposite-Spin Energy      =      -1.6150576251319597 [Eh]
	 Correlation Energy        =      -2.1266125170401664 [Eh]
	 Total Energy              =    -515.0115363575877154 [Eh]

	 ================> DF-SCS-MP2 Energies <==================
	-----------------------------------------------------------
	 SCS Same-Spin Scale       =       0.3333333333333333 [-]
	 SCS Opposite-Spin Scale   =       1.2000000000000000 [-]
	 SCS Same-Spin Energy      =      -0.1705182973027355 [Eh]
	 SCS Opposite-Spin Energy  =      -1.9380691501583516 [Eh]
	 SCS Correlation Energy    =      -2.1085874474610873 [Eh]
	 SCS Total Energy          =    -514.9935112880086763 [Eh]
	-----------------------------------------------------------

  Dipole Moment: [D]
     X:     0.0789      Y:     3.2917      Z:     1.9595     Total:     3.8316

*** Psi4 exiting successfully. Buy a developer a beer!
