                               Psi4 1.3.2 release

  ==> Input File <==

--------------------------------------------------------------------------
#psi4
#
memory 32 gb

molecule  {
0 1
  O       -1.9756670     1.6664010     0.1857370
  O        1.6511300    -1.1930600    -0.6768240
  O       -3.2820610    -0.0444860    -0.5140140
  N        0.2152580     0.2772540     0.2951010
  C       -0.9464590    -0.4858680    -0.1100250
  C       -1.2010820    -1.6869190     0.8036840
  C        2.5941300     0.7851170     0.3678910
  C        1.4824355    -0.0941127    -0.0515763
  C       -2.1892550     0.3702600    -0.1810000
  C        3.9493650     0.2879730    -0.1118860
  H       -0.7666830    -0.8628490    -1.1247510
  H        0.1121432     1.2016890     0.6949492
  H       -1.3680630    -1.3508140     1.8303240
  H       -2.0758160    -2.2433210     0.4601180
  H       -0.3237180    -2.3338760     0.7750620
  H        2.3897550     1.7945520    -0.0146150
  H        2.5759940     0.8629050     1.4619760
  H        4.1547340    -0.7097650     0.2816620
  H        3.9712690     0.2233490    -1.2012200
  H        4.7420490     0.9661550     0.2171920
  H       -2.8492950     2.1039740     0.1058080
units angstrom
no_reorient  #important for SAPT in psi4, default
symmetry c1  #important for SAPT in psi4, default
}

set PROPERTIES_ORIGIN ["COM"]
properties('MP2/aug-cc-pvtz', properties = ['dipole'])
--------------------------------------------------------------------------

    Molecular point group: c1
  Charge       = 0
  Multiplicity = 1
  Basis Set: AUG-CC-PVTZ
    Blend: AUG-CC-PVTZ
  Basis Set: (AUG-CC-PVTZ AUX)
    Blend: AUG-CC-PVTZ-JKFIT

    Orbital Energies [Eh]
    ---------------------

    Doubly Occupied:

       1A    -20.635586     2A    -20.563894     3A    -20.518524
       4A    -15.595534     5A    -11.405051     6A    -11.358528
       7A    -11.298305     8A    -11.250115     9A    -11.226712
      10A    -11.221802    11A     -1.478166    12A     -1.373557
      13A     -1.358565    14A     -1.240152    15A     -1.082115
      16A     -1.039507    17A     -0.928485    18A     -0.892523
      19A     -0.817055    20A     -0.788583    21A     -0.732598
      22A     -0.714373    23A     -0.684116    24A     -0.666218
      25A     -0.644552    26A     -0.632046    27A     -0.610375
      28A     -0.595535    29A     -0.576550    30A     -0.547081
      31A     -0.542401    32A     -0.527379    33A     -0.519998
      34A     -0.518576    35A     -0.497867    36A     -0.481980
      37A     -0.467307    38A     -0.428868    39A     -0.396769

  @DF-RHF Final Energy:  -512.87871266662705

   => Energetics <=

    Nuclear Repulsion Energy =            547.8371607400160883
    One-Electron Energy =               -1787.7170490529149447
    Two-Electron Energy =                 727.0011756462718040
    Total Energy =                       -512.8787126666270524
  Basis Set: (AUG-CC-PVTZ AUX)
    Blend: AUG-CC-PVTZ-RI
    Molecular point group: c1

    Geometry (in Angstrom), charge = 0, multiplicity = 1:

       Center              X                  Y                   Z               Mass
    ------------   -----------------  -----------------  -----------------  -----------------
         O           -1.977332914528     1.662895290883     0.184533088845    15.994914619570
         O            1.649464085472    -1.196565709117    -0.678027911155    15.994914619570
         O           -3.283726914528    -0.047991709117    -0.515217911155    15.994914619570
         N            0.213592085472     0.273748290883     0.293897088845    14.003074004430
         C           -0.948124914528    -0.489373709117    -0.111228911155    12.000000000000
         C           -1.202747914528    -1.690424709117     0.802480088845    12.000000000000
         C            2.592464085472     0.781611290883     0.366687088845    12.000000000000
         C            1.480769585472    -0.097618409117    -0.052780211155    12.000000000000
         C           -2.190920914528     0.366754290883    -0.182203911155    12.000000000000
         C            3.947699085472     0.284467290883    -0.113089911155    12.000000000000
         H           -0.768348914528    -0.866354709117    -1.125954911155     1.007825032230
         H            0.110477285472     1.198183290883     0.693745288845     1.007825032230
         H           -1.369728914528    -1.354319709117     1.829120088845     1.007825032230
         H           -2.077481914528    -2.246826709117     0.458914088845     1.007825032230
         H           -0.325383914528    -2.337381709117     0.773858088845     1.007825032230
         H            2.388089085472     1.791046290883    -0.015818911155     1.007825032230
         H            2.574328085472     0.859399290883     1.460772088845     1.007825032230
         H            4.153068085472    -0.713270709117     0.280458088845     1.007825032230
         H            3.969603085472     0.219843290883    -1.202423911155     1.007825032230
         H            4.740383085472     0.962649290883     0.215988088845     1.007825032230
         H           -2.850960914528     2.100468290883     0.104604088845     1.007825032230

  Basis Set: AUG-CC-PVTZ
    Blend: AUG-CC-PVTZ
  Basis Set: (AUG-CC-PVTZ AUX)
    Blend: AUG-CC-PVTZ-JKFIT
	 Reference Energy          =    -512.8787126666270524 [Eh]
	 Singles Energy            =      -0.0000000000000000 [Eh]
	 Same-Spin Energy          =      -0.5124568729625454 [Eh]
	 Opposite-Spin Energy      =      -1.6170596710857348 [Eh]
	 Correlation Energy        =      -2.1295165440482799 [Eh]
	 Total Energy              =    -515.0082292106753812 [Eh]

	 ================> DF-SCS-MP2 Energies <==================
	-----------------------------------------------------------
	 SCS Same-Spin Scale       =       0.3333333333333333 [-]
	 SCS Opposite-Spin Scale   =       1.2000000000000000 [-]
	 SCS Same-Spin Energy      =      -0.1708189576541818 [Eh]
	 SCS Opposite-Spin Energy  =      -1.9404716053028817 [Eh]
	 SCS Correlation Energy    =      -2.1112905629570635 [Eh]
	 SCS Total Energy          =    -514.9900032295840901 [Eh]
	-----------------------------------------------------------

  Dipole Moment: [D]
     X:     0.0310      Y:     3.4904      Z:     2.0579     Total:     4.0520

*** Psi4 exiting successfully. Buy a developer a beer!
