                               Psi4 1.3.2 release

  ==> Input File <==

--------------------------------------------------------------------------
#psi4
#
memory 32 gb

molecule  {
0 1
  O       -1.9756670     1.6664010     0.1857370
  O        1.6511300    -1.1930600    -0.6768240
  O       -3.2820610    -0.0444860    -0.5140140
  N        0.2152580     0.2772540     0.2951010
  C       -0.9464590    -0.4858680    -0.1100250
  C       -1.2010820    -1.6869190     0.8036840
  C        2.5941300     0.7851170     0.3678910
  C        1.3909600    -0.1965938    -0.0949372
  C       -2.1892550     0.3702600    -0.1810000
  C        3.9493650     0.2879730    -0.1118860
  H       -0.7666830    -0.8628490    -1.1247510
  H        0.0773990     1.1958980     0.6978160
  H       -1.3680630    -1.3508140     1.8303240
  H       -2.0758160    -2.2433210     0.4601180
  H       -0.3237180    -2.3338760     0.7750620
  H        2.3897550     1.7945520    -0.0146150
  H        2.5759940     0.8629050     1.4619760
  H        4.1547340    -0.7097650     0.2816620
  H        3.9712690     0.2233490    -1.2012200
  H        4.7420490     0.9661550     0.2171920
  H       -2.8492950     2.1039740     0.1058080
units angstrom
no_reorient  #important for SAPT in psi4, default
symmetry c1  #important for SAPT in psi4, default
}

set PROPERTIES_ORIGIN ["COM"]
properties('MP2/aug-cc-pvtz', properties = ['dipole'])
--------------------------------------------------------------------------

    Molecular point group: c1
  Charge       = 0
  Multiplicity = 1
  Basis Set: AUG-CC-PVTZ
    Blend: AUG-CC-PVTZ
  Basis Set: (AUG-CC-PVTZ AUX)
    Blend: AUG-CC-PVTZ-JKFIT

    Orbital Energies [Eh]
    ---------------------

    Doubly Occupied:

       1A    -20.638497     2A    -20.565866     3A    -20.528550
       4A    -15.595342     5A    -11.406762     6A    -11.349742
       7A    -11.298386     8A    -11.239549     9A    -11.230301
      10A    -11.213344    11A     -1.480843    12A     -1.412942
      13A     -1.375797    14A     -1.264764    15A     -1.068765
      16A     -1.027020    17A     -0.930564    18A     -0.869836
      19A     -0.822564    20A     -0.802963    21A     -0.732068
      22A     -0.717536    23A     -0.683689    24A     -0.667027
      25A     -0.638772    26A     -0.636384    27A     -0.613989
      28A     -0.608450    29A     -0.587589    30A     -0.549709
      31A     -0.549017    32A     -0.525000    33A     -0.522208
      34A     -0.514020    35A     -0.496518    36A     -0.491768
      37A     -0.470726    38A     -0.411556    39A     -0.409745

  @DF-RHF Final Energy:  -512.87855791644665

   => Energetics <=

    Nuclear Repulsion Energy =            549.1489446606544789
    One-Electron Energy =               -1790.1586732946270786
    Two-Electron Energy =                 728.1311707175259471
    Total Energy =                       -512.8785579164466526
  Basis Set: (AUG-CC-PVTZ AUX)
    Blend: AUG-CC-PVTZ-RI
    Molecular point group: c1

    Geometry (in Angstrom), charge = 0, multiplicity = 1:

       Center              X                  Y                   Z               Mass
    ------------   -----------------  -----------------  -----------------  -----------------
         O           -1.969525017122     1.671412395424     0.188099833735    15.994914619570
         O            1.657271982878    -1.188048604576    -0.674461166265    15.994914619570
         O           -3.275919017122    -0.039474604576    -0.511651166265    15.994914619570
         N            0.221399982878     0.282265395424     0.297463833735    14.003074004430
         C           -0.940317017122    -0.480856604576    -0.107662166265    12.000000000000
         C           -1.194940017122    -1.681907604576     0.806046833735    12.000000000000
         C            2.600271982878     0.790128395424     0.370253833735    12.000000000000
         C            1.397101982878    -0.191582404576    -0.092574366265    12.000000000000
         C           -2.183113017122     0.375271395424    -0.178637166265    12.000000000000
         C            3.955506982878     0.292984395424    -0.109523166265    12.000000000000
         H           -0.760541017122    -0.857837604576    -1.122388166265     1.007825032230
         H            0.083540982878     1.200909395424     0.700178833735     1.007825032230
         H           -1.361921017122    -1.345802604576     1.832686833735     1.007825032230
         H           -2.069674017122    -2.238309604576     0.462480833735     1.007825032230
         H           -0.317576017122    -2.328864604576     0.777424833735     1.007825032230
         H            2.395896982878     1.799563395424    -0.012252166265     1.007825032230
         H            2.582135982878     0.867916395424     1.464338833735     1.007825032230
         H            4.160875982878    -0.704753604576     0.284024833735     1.007825032230
         H            3.977410982878     0.228360395424    -1.198857166265     1.007825032230
         H            4.748190982878     0.971166395424     0.219554833735     1.007825032230
         H           -2.843153017122     2.108985395424     0.108170833735     1.007825032230

  Basis Set: AUG-CC-PVTZ
    Blend: AUG-CC-PVTZ
  Basis Set: (AUG-CC-PVTZ AUX)
    Blend: AUG-CC-PVTZ-JKFIT
	 Reference Energy          =    -512.8785579164466526 [Eh]
	 Singles Energy            =      -0.0000000000000000 [Eh]
	 Same-Spin Energy          =      -0.5103176281775736 [Eh]
	 Opposite-Spin Energy      =      -1.6128759861514057 [Eh]
	 Correlation Energy        =      -2.1231936143289794 [Eh]
	 Total Energy              =    -515.0017515307756639 [Eh]

	 ================> DF-SCS-MP2 Energies <==================
	-----------------------------------------------------------
	 SCS Same-Spin Scale       =       0.3333333333333333 [-]
	 SCS Opposite-Spin Scale   =       1.2000000000000000 [-]
	 SCS Same-Spin Energy      =      -0.1701058760591912 [Eh]
	 SCS Opposite-Spin Energy  =      -1.9354511833816868 [Eh]
	 SCS Correlation Energy    =      -2.1055570594408781 [Eh]
	 SCS Total Energy          =    -514.9841149758875645 [Eh]
	-----------------------------------------------------------

  Dipole Moment: [D]
     X:    -0.5363      Y:     3.0220      Z:     1.8454     Total:     3.5813

*** Psi4 exiting successfully. Buy a developer a beer!
