                               Psi4 1.3.2 release

  ==> Input File <==

--------------------------------------------------------------------------
#psi4
#
memory 32 gb

molecule  {
0 1
  O       -1.9756670     1.6664010     0.1857370
  O        1.6511300    -1.1930600    -0.6768240
  O       -3.2820610    -0.0444860    -0.5140140
  N        0.2152580     0.2772540     0.2951010
  C       -0.9464590    -0.4858680    -0.1100250
  C       -1.2010820    -1.6869190     0.8036840
  C        2.5941300     0.7851170     0.3678910
  C        1.4772266    -0.1561792    -0.0540085
  C       -2.1892550     0.3702600    -0.1810000
  C        3.9493650     0.2879730    -0.1118860
  H       -0.7666830    -0.8628490    -1.1247510
  H        0.0773990     1.1958980     0.6978160
  H       -1.3680630    -1.3508140     1.8303240
  H       -2.0758160    -2.2433210     0.4601180
  H       -0.3237180    -2.3338760     0.7750620
  H        2.4060097     1.8007244    -0.0065303
  H        2.5759940     0.8629050     1.4619760
  H        4.1547340    -0.7097650     0.2816620
  H        3.9712690     0.2233490    -1.2012200
  H        4.7420490     0.9661550     0.2171920
  H       -2.8492950     2.1039740     0.1058080
units angstrom
no_reorient  #important for SAPT in psi4, default
symmetry c1  #important for SAPT in psi4, default
}

set PROPERTIES_ORIGIN ["COM"]
properties('MP2/aug-cc-pvtz', properties = ['dipole'])
--------------------------------------------------------------------------

    Molecular point group: c1
  Charge       = 0
  Multiplicity = 1
  Basis Set: AUG-CC-PVTZ
    Blend: AUG-CC-PVTZ
  Basis Set: (AUG-CC-PVTZ AUX)
    Blend: AUG-CC-PVTZ-JKFIT

    Orbital Energies [Eh]
    ---------------------

    Doubly Occupied:

       1A    -20.635030     2A    -20.562924     3A    -20.528178
       4A    -15.589373     5A    -11.403830     6A    -11.356919
       7A    -11.295017     8A    -11.247469     9A    -11.226255
      10A    -11.219722    11A     -1.477482    12A     -1.388742
      13A     -1.372697    14A     -1.242206    15A     -1.073936
      16A     -1.034618    17A     -0.926678    18A     -0.884765
      19A     -0.815343    20A     -0.789559    21A     -0.729988
      22A     -0.713731    23A     -0.683944    24A     -0.665066
      25A     -0.641360    26A     -0.634058    27A     -0.609602
      28A     -0.604943    29A     -0.580843    30A     -0.545780
      31A     -0.544088    32A     -0.524614    33A     -0.521259
      34A     -0.519582    35A     -0.497209    36A     -0.489633
      37A     -0.467249    38A     -0.430410    39A     -0.399326

  @DF-RHF Final Energy:  -512.88616233869982

   => Energetics <=

    Nuclear Repulsion Energy =            548.1397692159415556
    One-Electron Energy =               -1788.3050121154128647
    Two-Electron Energy =                 727.2790805607713764
    Total Energy =                       -512.8861623386998190
  Basis Set: (AUG-CC-PVTZ AUX)
    Blend: AUG-CC-PVTZ-RI
    Molecular point group: c1

    Geometry (in Angstrom), charge = 0, multiplicity = 1:

       Center              X                  Y                   Z               Mass
    ------------   -----------------  -----------------  -----------------  -----------------
         O           -1.976773606584     1.668026562947     0.184658192017    15.994914619570
         O            1.650023393416    -1.191434437053    -0.677902807983    15.994914619570
         O           -3.283167606584    -0.042860437053    -0.515092807983    15.994914619570
         N            0.214151393416     0.278879562947     0.294022192017    14.003074004430
         C           -0.947565606584    -0.484242437053    -0.111103807983    12.000000000000
         C           -1.202188606584    -1.685293437053     0.802605192017    12.000000000000
         C            2.593023393416     0.786742562947     0.366812192017    12.000000000000
         C            1.476119993416    -0.154553637053    -0.055087307983    12.000000000000
         C           -2.190361606584     0.371885562947    -0.182078807983    12.000000000000
         C            3.948258393416     0.289598562947    -0.112964807983    12.000000000000
         H           -0.767789606584    -0.861223437053    -1.125829807983     1.007825032230
         H            0.076292393416     1.197523562947     0.696737192017     1.007825032230
         H           -1.369169606584    -1.349188437053     1.829245192017     1.007825032230
         H           -2.076922606584    -2.241695437053     0.459039192017     1.007825032230
         H           -0.324824606584    -2.332250437053     0.773983192017     1.007825032230
         H            2.404903093416     1.802349962947    -0.007609107983     1.007825032230
         H            2.574887393416     0.864530562947     1.460897192017     1.007825032230
         H            4.153627393416    -0.708139437053     0.280583192017     1.007825032230
         H            3.970162393416     0.224974562947    -1.202298807983     1.007825032230
         H            4.740942393416     0.967780562947     0.216113192017     1.007825032230
         H           -2.850401606584     2.105599562947     0.104729192017     1.007825032230

  Basis Set: AUG-CC-PVTZ
    Blend: AUG-CC-PVTZ
  Basis Set: (AUG-CC-PVTZ AUX)
    Blend: AUG-CC-PVTZ-JKFIT
	 Reference Energy          =    -512.8861623386998190 [Eh]
	 Singles Energy            =      -0.0000000000000000 [Eh]
	 Same-Spin Energy          =      -0.5111685029621648 [Eh]
	 Opposite-Spin Energy      =      -1.6145869944809539 [Eh]
	 Correlation Energy        =      -2.1257554974431185 [Eh]
	 Total Energy              =    -515.0119178361429704 [Eh]

	 ================> DF-SCS-MP2 Energies <==================
	-----------------------------------------------------------
	 SCS Same-Spin Scale       =       0.3333333333333333 [-]
	 SCS Opposite-Spin Scale   =       1.2000000000000000 [-]
	 SCS Same-Spin Energy      =      -0.1703895009873883 [Eh]
	 SCS Opposite-Spin Energy  =      -1.9375043933771445 [Eh]
	 SCS Correlation Energy    =      -2.1078938943645329 [Eh]
	 SCS Total Energy          =    -514.9940562330643843 [Eh]
	-----------------------------------------------------------

  Dipole Moment: [D]
     X:     0.0693      Y:     3.2572      Z:     1.9284     Total:     3.7859

*** Psi4 exiting successfully. Buy a developer a beer!
