                               Psi4 1.3.2 release

  ==> Input File <==

--------------------------------------------------------------------------
#psi4
#
memory 32 gb

molecule  {
0 1
  O       -1.9756670     1.6664010     0.1857370
  O        1.6405157    -1.1949131    -0.6767528
  O       -3.2820610    -0.0444860    -0.5140140
  N        0.2106377     0.2674709     0.2901127
  C       -0.9464590    -0.4858680    -0.1100250
  C       -1.2010820    -1.6869190     0.8036840
  C        2.5941300     0.7851170     0.3678910
  C        1.4652130    -0.1360080    -0.0663740
  C       -2.1892550     0.3702600    -0.1810000
  C        3.9493650     0.2879730    -0.1118860
  H       -0.7666830    -0.8628490    -1.1247510
  H        0.0773990     1.1958980     0.6978160
  H       -1.3680630    -1.3508140     1.8303240
  H       -2.0758160    -2.2433210     0.4601180
  H       -0.3237180    -2.3338760     0.7750620
  H        2.3897550     1.7945520    -0.0146150
  H        2.5759940     0.8629050     1.4619760
  H        4.1547340    -0.7097650     0.2816620
  H        3.9712690     0.2233490    -1.2012200
  H        4.7420490     0.9661550     0.2171920
  H       -2.8492950     2.1039740     0.1058080
units angstrom
no_reorient  #important for SAPT in psi4, default
symmetry c1  #important for SAPT in psi4, default
}

set PROPERTIES_ORIGIN ["COM"]
properties('MP2/aug-cc-pvtz', properties = ['dipole'])
--------------------------------------------------------------------------

    Molecular point group: c1
  Charge       = 0
  Multiplicity = 1
  Basis Set: AUG-CC-PVTZ
    Blend: AUG-CC-PVTZ
  Basis Set: (AUG-CC-PVTZ AUX)
    Blend: AUG-CC-PVTZ-JKFIT

    Orbital Energies [Eh]
    ---------------------

    Doubly Occupied:

       1A    -20.635717     2A    -20.563466     3A    -20.523983
       4A    -15.592164     5A    -11.404452     6A    -11.356054
       7A    -11.295220     8A    -11.248756     9A    -11.226165
      10A    -11.220269    11A     -1.478165    12A     -1.381039
      13A     -1.373233    14A     -1.245431    15A     -1.075134
      16A     -1.035571    17A     -0.927657    18A     -0.886014
      19A     -0.816173    20A     -0.790723    21A     -0.731822
      22A     -0.713921    23A     -0.683754    24A     -0.665194
      25A     -0.641623    26A     -0.633136    27A     -0.610047
      28A     -0.601892    29A     -0.580948    30A     -0.546269
      31A     -0.543659    32A     -0.525022    33A     -0.520580
      34A     -0.519527    35A     -0.497702    36A     -0.488055
      37A     -0.467509    38A     -0.429059    39A     -0.398800

  @DF-RHF Final Energy:  -512.88548029798881

   => Energetics <=

    Nuclear Repulsion Energy =            548.4142504419959323
    One-Electron Energy =               -1788.8516453110505608
    Two-Electron Energy =                 727.5519145710657085
    Total Energy =                       -512.8854802979888063
  Basis Set: (AUG-CC-PVTZ AUX)
    Blend: AUG-CC-PVTZ-RI
    Molecular point group: c1

    Geometry (in Angstrom), charge = 0, multiplicity = 1:

       Center              X                  Y                   Z               Mass
    ------------   -----------------  -----------------  -----------------  -----------------
         O           -1.974050729919     1.667549564297     0.186210826017    15.994914619570
         O            1.642131970081    -1.193764535703    -0.676278973983    15.994914619570
         O           -3.280444729919    -0.043337435703    -0.513540173983    15.994914619570
         N            0.212253970081     0.268619464297     0.290586526017    14.003074004430
         C           -0.944842729919    -0.484719435703    -0.109551173983    12.000000000000
         C           -1.199465729919    -1.685770435703     0.804157826017    12.000000000000
         C            2.595746270081     0.786265564297     0.368364826017    12.000000000000
         C            1.466829270081    -0.134859435703    -0.065900173983    12.000000000000
         C           -2.187638729919     0.371408564297    -0.180526173983    12.000000000000
         C            3.950981270081     0.289121564297    -0.111412173983    12.000000000000
         H           -0.765066729919    -0.861700435703    -1.124277173983     1.007825032230
         H            0.079015270081     1.197046564297     0.698289826017     1.007825032230
         H           -1.366446729919    -1.349665435703     1.830797826017     1.007825032230
         H           -2.074199729919    -2.242172435703     0.460591826017     1.007825032230
         H           -0.322101729919    -2.332727435703     0.775535826017     1.007825032230
         H            2.391371270081     1.795700564297    -0.014141173983     1.007825032230
         H            2.577610270081     0.864053564297     1.462449826017     1.007825032230
         H            4.156350270081    -0.708616435703     0.282135826017     1.007825032230
         H            3.972885270081     0.224497564297    -1.200746173983     1.007825032230
         H            4.743665270081     0.967303564297     0.217665826017     1.007825032230
         H           -2.847678729919     2.105122564297     0.106281826017     1.007825032230

  Basis Set: AUG-CC-PVTZ
    Blend: AUG-CC-PVTZ
  Basis Set: (AUG-CC-PVTZ AUX)
    Blend: AUG-CC-PVTZ-JKFIT
	 Reference Energy          =    -512.8854802979888063 [Eh]
	 Singles Energy            =      -0.0000000000000000 [Eh]
	 Same-Spin Energy          =      -0.5115105036782482 [Eh]
	 Opposite-Spin Energy      =      -1.6151047097157463 [Eh]
	 Correlation Energy        =      -2.1266152133939946 [Eh]
	 Total Energy              =    -515.0120955113827677 [Eh]

	 ================> DF-SCS-MP2 Energies <==================
	-----------------------------------------------------------
	 SCS Same-Spin Scale       =       0.3333333333333333 [-]
	 SCS Opposite-Spin Scale   =       1.2000000000000000 [-]
	 SCS Same-Spin Energy      =      -0.1705035012260827 [Eh]
	 SCS Opposite-Spin Energy  =      -1.9381256516588954 [Eh]
	 SCS Correlation Energy    =      -2.1086291528849781 [Eh]
	 SCS Total Energy          =    -514.9941094508737933 [Eh]
	-----------------------------------------------------------

  Dipole Moment: [D]
     X:     0.0155      Y:     3.3460      Z:     1.9684     Total:     3.8821

*** Psi4 exiting successfully. Buy a developer a beer!
