                               Psi4 1.3.2 release

  ==> Input File <==

--------------------------------------------------------------------------
#psi4
#
memory 32 gb

molecule  {
0 1
  O       -1.9756670     1.6664010     0.1857370
  O        1.6511300    -1.1930600    -0.6768240
  O       -3.2820610    -0.0444860    -0.5140140
  N        0.2152580     0.2772540     0.2951010
  C       -0.9464590    -0.4858680    -0.1100250
  C       -1.2010820    -1.6869190     0.8036840
  C        2.5941300     0.7851170     0.3678910
  C        1.4652130    -0.1360080    -0.0663740
  C       -2.1892550     0.3702600    -0.1810000
  C        3.9528895     0.3108459    -0.1248966
  H       -0.7666830    -0.8628490    -1.1247510
  H        0.0773990     1.1958980     0.6978160
  H       -1.3680630    -1.3508140     1.8303240
  H       -2.0758160    -2.2433210     0.4601180
  H       -0.3237180    -2.3338760     0.7750620
  H        2.4067079     1.7944076    -0.0235734
  H        2.5759940     0.8629050     1.4619760
  H        4.1547340    -0.7097650     0.2816620
  H        3.9712690     0.2233490    -1.2012200
  H        4.7420490     0.9661550     0.2171920
  H       -2.8492950     2.1039740     0.1058080
units angstrom
no_reorient  #important for SAPT in psi4, default
symmetry c1  #important for SAPT in psi4, default
}

set PROPERTIES_ORIGIN ["COM"]
properties('MP2/aug-cc-pvtz', properties = ['dipole'])
--------------------------------------------------------------------------

    Molecular point group: c1
  Charge       = 0
  Multiplicity = 1
  Basis Set: AUG-CC-PVTZ
    Blend: AUG-CC-PVTZ
  Basis Set: (AUG-CC-PVTZ AUX)
    Blend: AUG-CC-PVTZ-JKFIT

    Orbital Energies [Eh]
    ---------------------

    Doubly Occupied:

       1A    -20.635994     2A    -20.563835     3A    -20.524763
       4A    -15.592548     5A    -11.404812     6A    -11.356564
       7A    -11.296514     8A    -11.247504     9A    -11.226943
      10A    -11.219371    11A     -1.478460    12A     -1.380767
      13A     -1.373572    14A     -1.245449    15A     -1.074896
      16A     -1.035823    17A     -0.927830    18A     -0.885286
      19A     -0.816728    20A     -0.792391    21A     -0.730976
      22A     -0.714608    23A     -0.683039    24A     -0.665872
      25A     -0.641044    26A     -0.633380    27A     -0.610484
      28A     -0.603541    29A     -0.580367    30A     -0.547425
      31A     -0.544386    32A     -0.526296    33A     -0.523225
      34A     -0.515024    35A     -0.495422    36A     -0.487408
      37A     -0.467894    38A     -0.429100    39A     -0.400319

  @DF-RHF Final Energy:  -512.88510016423288

   => Energetics <=

    Nuclear Repulsion Energy =            548.0919272087998024
    One-Electron Energy =               -1788.1943327757485349
    Two-Electron Energy =                 727.2173054027157377
    Total Energy =                       -512.8851001642328811
  Basis Set: (AUG-CC-PVTZ AUX)
    Blend: AUG-CC-PVTZ-RI
    Molecular point group: c1

    Geometry (in Angstrom), charge = 0, multiplicity = 1:

       Center              X                  Y                   Z               Mass
    ------------   -----------------  -----------------  -----------------  -----------------
         O           -1.976076268598     1.664509989706     0.186875611400    15.994914619570
         O            1.650720731402    -1.194951010294    -0.675685388600    15.994914619570
         O           -3.282470268598    -0.046377010294    -0.512875388600    15.994914619570
         N            0.214848731402     0.275362989706     0.296239611400    14.003074004430
         C           -0.946868268598    -0.487759010294    -0.108886388600    12.000000000000
         C           -1.201491268598    -1.688810010294     0.804822611400    12.000000000000
         C            2.593720731402     0.783225989706     0.369029611400    12.000000000000
         C            1.464803731402    -0.137899010294    -0.065235388600    12.000000000000
         C           -2.189664268598     0.368368989706    -0.179861388600    12.000000000000
         C            3.952480231402     0.308954889706    -0.123757988600    12.000000000000
         H           -0.767092268598    -0.864740010294    -1.123612388600     1.007825032230
         H            0.076989731402     1.194006989706     0.698954611400     1.007825032230
         H           -1.368472268598    -1.352705010294     1.831462611400     1.007825032230
         H           -2.076225268598    -2.245212010294     0.461256611400     1.007825032230
         H           -0.324127268598    -2.335767010294     0.776200611400     1.007825032230
         H            2.406298631402     1.792516589706    -0.022434788600     1.007825032230
         H            2.575584731402     0.861013989706     1.463114611400     1.007825032230
         H            4.154324731402    -0.711656010294     0.282800611400     1.007825032230
         H            3.970859731402     0.221457989706    -1.200081388600     1.007825032230
         H            4.741639731402     0.964263989706     0.218330611400     1.007825032230
         H           -2.849704268598     2.102082989706     0.106946611400     1.007825032230

  Basis Set: AUG-CC-PVTZ
    Blend: AUG-CC-PVTZ
  Basis Set: (AUG-CC-PVTZ AUX)
    Blend: AUG-CC-PVTZ-JKFIT
	 Reference Energy          =    -512.8851001642328811 [Eh]
	 Singles Energy            =      -0.0000000000000000 [Eh]
	 Same-Spin Energy          =      -0.5113842718077736 [Eh]
	 Opposite-Spin Energy      =      -1.6150231424792367 [Eh]
	 Correlation Energy        =      -2.1264074142870104 [Eh]
	 Total Energy              =    -515.0115075785198542 [Eh]

	 ================> DF-SCS-MP2 Energies <==================
	-----------------------------------------------------------
	 SCS Same-Spin Scale       =       0.3333333333333333 [-]
	 SCS Opposite-Spin Scale   =       1.2000000000000000 [-]
	 SCS Same-Spin Energy      =      -0.1704614239359245 [Eh]
	 SCS Opposite-Spin Energy  =      -1.9380277709750839 [Eh]
	 SCS Correlation Energy    =      -2.1084891949110083 [Eh]
	 SCS Total Energy          =    -514.9935893591439253 [Eh]
	-----------------------------------------------------------

  Dipole Moment: [D]
     X:    -0.0472      Y:     3.3232      Z:     1.9543     Total:     3.8555

*** Psi4 exiting successfully. Buy a developer a beer!
