                               Psi4 1.3.2 release

  ==> Input File <==

--------------------------------------------------------------------------
#psi4
#
memory 32 gb

molecule  {
0 1
  O       -1.9756670     1.6664010     0.1857370
  O        1.6511300    -1.1930600    -0.6768240
  O       -3.2820610    -0.0444860    -0.5140140
  N        0.2152580     0.2772540     0.2951010
  C       -0.9464590    -0.4858680    -0.1100250
  C       -1.2010820    -1.6869190     0.8036840
  C        2.5941300     0.7851170     0.3678910
  C        1.4652130    -0.1360080    -0.0663740
  C       -2.0247341     0.2569261    -0.1716044
  C        3.9493650     0.2879730    -0.1118860
  H       -0.7666830    -0.8628490    -1.1247510
  H        0.0773990     1.1958980     0.6978160
  H       -1.3680630    -1.3508140     1.8303240
  H       -2.0758160    -2.2433210     0.4601180
  H       -0.3237180    -2.3338760     0.7750620
  H        2.3897550     1.7945520    -0.0146150
  H        2.5759940     0.8629050     1.4619760
  H        4.1547340    -0.7097650     0.2816620
  H        3.9712690     0.2233490    -1.2012200
  H        4.7420490     0.9661550     0.2171920
  H       -2.8492950     2.1039740     0.1058080
units angstrom
no_reorient  #important for SAPT in psi4, default
symmetry c1  #important for SAPT in psi4, default
}

set PROPERTIES_ORIGIN ["COM"]
properties('MP2/aug-cc-pvtz', properties = ['dipole'])
--------------------------------------------------------------------------

    Molecular point group: c1
  Charge       = 0
  Multiplicity = 1
  Basis Set: AUG-CC-PVTZ
    Blend: AUG-CC-PVTZ
  Basis Set: (AUG-CC-PVTZ AUX)
    Blend: AUG-CC-PVTZ-JKFIT

    Orbital Energies [Eh]
    ---------------------

    Doubly Occupied:

       1A    -20.616521     2A    -20.551147     3A    -20.533720
       4A    -15.603983     5A    -11.420476     6A    -11.365009
       7A    -11.301305     8A    -11.253332     9A    -11.244825
      10A    -11.224012    11A     -1.424341    12A     -1.389526
      13A     -1.300974    14A     -1.265120    15A     -1.115117
      16A     -1.053604    17A     -0.958184    18A     -0.896247
      19A     -0.821874    20A     -0.790458    21A     -0.741848
      22A     -0.697362    23A     -0.684889    24A     -0.663935
      25A     -0.646607    26A     -0.623345    27A     -0.608307
      28A     -0.586221    29A     -0.573761    30A     -0.557977
      31A     -0.553549    32A     -0.530856    33A     -0.529515
      34A     -0.524527    35A     -0.499755    36A     -0.458658
      37A     -0.451643    38A     -0.437304    39A     -0.410685

  @DF-RHF Final Energy:  -512.80807941512148

   => Energetics <=

    Nuclear Repulsion Energy =            549.2768541244944345
    One-Electron Energy =               -1790.3488310498519240
    Two-Electron Energy =                 728.2638975102358927
    Total Energy =                       -512.8080794151214832
  Basis Set: (AUG-CC-PVTZ AUX)
    Blend: AUG-CC-PVTZ-RI
    Molecular point group: c1

    Geometry (in Angstrom), charge = 0, multiplicity = 1:

       Center              X                  Y                   Z               Mass
    ------------   -----------------  -----------------  -----------------  -----------------
         O           -1.989275550705     1.675775531933     0.184960015881    15.994914619570
         O            1.637521449295    -1.183685468067    -0.677600984119    15.994914619570
         O           -3.295669550705    -0.035111468067    -0.514790984119    15.994914619570
         N            0.201649449295     0.286628531933     0.294324015881    14.003074004430
         C           -0.960067550705    -0.476493468067    -0.110801984119    12.000000000000
         C           -1.214690550705    -1.677544468067     0.802907015881    12.000000000000
         C            2.580521449295     0.794491531933     0.367114015881    12.000000000000
         C            1.451604449295    -0.126633468067    -0.067150984119    12.000000000000
         C           -2.038342650705     0.266300631933    -0.172381384119    12.000000000000
         C            3.935756449295     0.297347531933    -0.112662984119    12.000000000000
         H           -0.780291550705    -0.853474468067    -1.125527984119     1.007825032230
         H            0.063790449295     1.205272531933     0.697039015881     1.007825032230
         H           -1.381671550705    -1.341439468067     1.829547015881     1.007825032230
         H           -2.089424550705    -2.233946468067     0.459341015881     1.007825032230
         H           -0.337326550705    -2.324501468067     0.774285015881     1.007825032230
         H            2.376146449295     1.803926531933    -0.015391984119     1.007825032230
         H            2.562385449295     0.872279531933     1.461199015881     1.007825032230
         H            4.141125449295    -0.700390468067     0.280885015881     1.007825032230
         H            3.957660449295     0.232723531933    -1.201996984119     1.007825032230
         H            4.728440449295     0.975529531933     0.216415015881     1.007825032230
         H           -2.862903550705     2.113348531933     0.105031015881     1.007825032230

  Basis Set: AUG-CC-PVTZ
    Blend: AUG-CC-PVTZ
  Basis Set: (AUG-CC-PVTZ AUX)
    Blend: AUG-CC-PVTZ-JKFIT
	 Reference Energy          =    -512.8080794151214832 [Eh]
	 Singles Energy            =      -0.0000000000000000 [Eh]
	 Same-Spin Energy          =      -0.5174917260111932 [Eh]
	 Opposite-Spin Energy      =      -1.6267316157512974 [Eh]
	 Correlation Energy        =      -2.1442233417624905 [Eh]
	 Total Energy              =    -514.9523027568840234 [Eh]

	 ================> DF-SCS-MP2 Energies <==================
	-----------------------------------------------------------
	 SCS Same-Spin Scale       =       0.3333333333333333 [-]
	 SCS Opposite-Spin Scale   =       1.2000000000000000 [-]
	 SCS Same-Spin Energy      =      -0.1724972420037311 [Eh]
	 SCS Opposite-Spin Energy  =      -1.9520779389015568 [Eh]
	 SCS Correlation Energy    =      -2.1245751809052877 [Eh]
	 SCS Total Energy          =    -514.9326545960267367 [Eh]
	-----------------------------------------------------------

  Dipole Moment: [D]
     X:     0.9995      Y:     2.4960      Z:     2.0452     Total:     3.3782

*** Psi4 exiting successfully. Buy a developer a beer!
