                               Psi4 1.4a3.dev225

  ==> Input File <==

--------------------------------------------------------------------------
#psi4
#
memory 32 gb

molecule  {
0 1
  O        2.1858500    -1.4843500     0.4466430
  O       -1.5901990     1.2021140    -0.7742790
  O        3.2899360     0.0893000    -0.7567370
  N       -0.1552130    -0.3501220     0.0655300
  C        0.9973750     0.5138300    -0.1038320
  C        1.1366130     1.5332170     1.0331740
  C       -2.5208420    -0.9251940    -0.0919400
  C       -1.4008270     0.0814870    -0.2899980
  C        2.2713450    -0.2912280    -0.2118740
  C       -3.8280260    -0.2360070     0.2837800
  H        0.8808569     1.0294473    -1.0035511
  H       -0.0274960    -1.2421660     0.5250420
  H        1.2555520     1.0181310     1.9903510
  H        2.0023980     2.1787030     0.8613650
  H        0.2327940     2.1443920     1.0604580
  H       -2.6404080    -1.4674310    -1.0380590
  H       -2.2372030    -1.6677960     0.6628800
  H       -3.7417830     0.2575120     1.2553170
  H       -4.0728600     0.5241080    -0.4590610
  H       -4.6456460    -0.9595500     0.3374610
  H        3.0673500    -1.9023430     0.3513230
units angstrom
no_reorient  #important for SAPT in psi4, default
symmetry c1  #important for SAPT in psi4, default
}

set PROPERTIES_ORIGIN ["COM"]
properties('MP2/aug-cc-pvtz', properties = ['dipole'])
--------------------------------------------------------------------------

    Molecular point group: c1
  Charge       = 0
  Multiplicity = 1
  Basis Set: AUG-CC-PVTZ
    Blend: AUG-CC-PVTZ
  Basis Set: (AUG-CC-PVTZ AUX)
    Blend: AUG-CC-PVTZ-JKFIT

    Orbital Energies [Eh]
    ---------------------

    Doubly Occupied:

       1A    -20.634508     2A    -20.565547     3A    -20.522645
       4A    -15.595646     5A    -11.404078     6A    -11.356933
       7A    -11.291374     8A    -11.247720     9A    -11.232805
      10A    -11.222382    11A     -1.476672    12A     -1.379548
      13A     -1.372978    14A     -1.246420    15A     -1.077434
      16A     -1.038361    17A     -0.928193    18A     -0.886575
      19A     -0.827333    20A     -0.794705    21A     -0.727651
      22A     -0.714630    23A     -0.680606    24A     -0.662112
      25A     -0.644600    26A     -0.635330    27A     -0.611761
      28A     -0.599725    29A     -0.584442    30A     -0.556564
      31A     -0.550814    32A     -0.531577    33A     -0.523664
      34A     -0.513425    35A     -0.498126    36A     -0.488708
      37A     -0.469683    38A     -0.427640    39A     -0.400625

  @DF-RHF Final Energy:  -512.88562531650848

   => Energetics <=

    Nuclear Repulsion Energy =            548.1622333594741576
    One-Electron Energy =               -1788.2486309841904131
    Two-Electron Energy =                 727.2007723082077746
    Total Energy =                       -512.8856253165084809
  Basis Set: (AUG-CC-PVTZ AUX)
    Blend: AUG-CC-PVTZ-RI
    Molecular point group: c1

    Geometry (in Angstrom), charge = 0, multiplicity = 1:

       Center              X                  Y                   Z               Mass
    ------------   -----------------  -----------------  -----------------  -----------------
         O            2.118024500075    -1.484603715227     0.477082887403    15.994914619570
         O           -1.658024499925     1.201860284773    -0.743839112597    15.994914619570
         O            3.222110500075     0.089046284773    -0.726297112597    15.994914619570
         N           -0.223038499925    -0.350375715227     0.095969887403    14.003074004430
         C            0.929549500075     0.513576284773    -0.073392112597    12.000000000000
         C            1.068787500075     1.532963284773     1.063613887403    12.000000000000
         C           -2.588667499925    -0.925447715227    -0.061500112597    12.000000000000
         C           -1.468652499925     0.081233284773    -0.259558112597    12.000000000000
         C            2.203519500075    -0.291481715227    -0.181434112597    12.000000000000
         C           -3.895851499925    -0.236260715227     0.314219887403    12.000000000000
         H            0.813031400075     1.029193584773    -0.973111212597     1.007825032230
         H           -0.095321499925    -1.242419715227     0.555481887403     1.007825032230
         H            1.187726500075     1.017877284773     2.020790887403     1.007825032230
         H            1.934572500075     2.178449284773     0.891804887403     1.007825032230
         H            0.164968500075     2.144138284773     1.090897887403     1.007825032230
         H           -2.708233499925    -1.467684715227    -1.007619112597     1.007825032230
         H           -2.305028499925    -1.668049715227     0.693319887403     1.007825032230
         H           -3.809608499925     0.257258284773     1.285756887403     1.007825032230
         H           -4.140685499925     0.523854284773    -0.428621112597     1.007825032230
         H           -4.713471499925    -0.959803715227     0.367900887403     1.007825032230
         H            2.999524500075    -1.902596715227     0.381762887403     1.007825032230

  Basis Set: AUG-CC-PVTZ
    Blend: AUG-CC-PVTZ
  Basis Set: (AUG-CC-PVTZ AUX)
    Blend: AUG-CC-PVTZ-JKFIT
	 Reference Energy          =    -512.8856253165084809 [Eh]
	 Singles Energy            =      -0.0000000000000000 [Eh]
	 Same-Spin Energy          =      -0.5110493989677880 [Eh]
	 Opposite-Spin Energy      =      -1.6147148220657490 [Eh]
	 Correlation Energy        =      -2.1257642210335370 [Eh]
	 Total Energy              =    -515.0113895375420725 [Eh]

	 ================> DF-SCS-MP2 Energies <==================
	-----------------------------------------------------------
	 SCS Same-Spin Scale       =       0.3333333333333333 [-]
	 SCS Opposite-Spin Scale   =       1.2000000000000000 [-]
	 SCS Same-Spin Energy      =      -0.1703497996559293 [Eh]
	 SCS Opposite-Spin Energy  =      -1.9376577864788986 [Eh]
	 SCS Correlation Energy    =      -2.1080075861348280 [Eh]
	 SCS Total Energy          =    -514.9936329026432986 [Eh]
	-----------------------------------------------------------

  Dipole Moment: [D]
     X:     0.1491      Y:    -3.2937      Z:     2.2940     Total:     4.0166

*** Psi4 exiting successfully. Buy a developer a beer!
