                               Psi4 1.3.2 release

  ==> Input File <==

--------------------------------------------------------------------------
#psi4
#
memory 32 gb

molecule  {
0 1
  O       -1.9756670     1.6664010     0.1857370
  O        1.6511300    -1.1930600    -0.6768240
  O       -3.2820610    -0.0444860    -0.5140140
  N        0.2097513     0.2796289     0.3062213
  C       -0.9464590    -0.4858680    -0.1100250
  C       -1.2010820    -1.6869190     0.8036840
  C        2.5941300     0.7851170     0.3678910
  C        1.4652130    -0.1360080    -0.0663740
  C       -2.1892550     0.3702600    -0.1810000
  C        3.9493650     0.2879730    -0.1118860
  H       -0.7752758    -0.8670741    -1.1246585
  H        0.0773990     1.1958980     0.6978160
  H       -1.3680630    -1.3508140     1.8303240
  H       -2.0758160    -2.2433210     0.4601180
  H       -0.3237180    -2.3338760     0.7750620
  H        2.3897550     1.7945520    -0.0146150
  H        2.5759940     0.8629050     1.4619760
  H        4.1547340    -0.7097650     0.2816620
  H        3.9712690     0.2233490    -1.2012200
  H        4.7420490     0.9661550     0.2171920
  H       -2.8492950     2.1039740     0.1058080
units angstrom
no_reorient  #important for SAPT in psi4, default
symmetry c1  #important for SAPT in psi4, default
}

set PROPERTIES_ORIGIN ["COM"]
properties('MP2/aug-cc-pvtz', properties = ['dipole'])
--------------------------------------------------------------------------

    Molecular point group: c1
  Charge       = 0
  Multiplicity = 1
  Basis Set: AUG-CC-PVTZ
    Blend: AUG-CC-PVTZ
  Basis Set: (AUG-CC-PVTZ AUX)
    Blend: AUG-CC-PVTZ-JKFIT

    Orbital Energies [Eh]
    ---------------------

    Doubly Occupied:

       1A    -20.635569     2A    -20.563315     3A    -20.526425
       4A    -15.591639     5A    -11.404186     6A    -11.357591
       7A    -11.296122     8A    -11.247880     9A    -11.226441
      10A    -11.219797    11A     -1.478037    12A     -1.380819
      13A     -1.373133    14A     -1.244786    15A     -1.074570
      16A     -1.035470    17A     -0.927207    18A     -0.885602
      19A     -0.816805    20A     -0.791523    21A     -0.730608
      22A     -0.714430    23A     -0.683168    24A     -0.665188
      25A     -0.641192    26A     -0.633505    27A     -0.609828
      28A     -0.603678    29A     -0.580550    30A     -0.546268
      31A     -0.543691    32A     -0.524638    33A     -0.520496
      34A     -0.519429    35A     -0.497449    36A     -0.488255
      37A     -0.467422    38A     -0.429405    39A     -0.400525

  @DF-RHF Final Energy:  -512.88573753549701

   => Energetics <=

    Nuclear Repulsion Energy =            548.0777662730645261
    One-Electron Energy =               -1788.1737199654128290
    Two-Electron Energy =                 727.2102161568512884
    Total Energy =                       -512.8857375354970145
  Basis Set: (AUG-CC-PVTZ AUX)
    Blend: AUG-CC-PVTZ-RI
    Molecular point group: c1

    Geometry (in Angstrom), charge = 0, multiplicity = 1:

       Center              X                  Y                   Z               Mass
    ------------   -----------------  -----------------  -----------------  -----------------
         O           -1.975075741761     1.666201069512     0.184663171241    15.994914619570
         O            1.651721258239    -1.193259930488    -0.677897828759    15.994914619570
         O           -3.281469741761    -0.044685930488    -0.515087828759    15.994914619570
         N            0.210342558239     0.279428969512     0.305147471241    14.003074004430
         C           -0.945867741761    -0.486067930488    -0.111098828759    12.000000000000
         C           -1.200490741761    -1.687118930488     0.802610171241    12.000000000000
         C            2.594721258239     0.784917069512     0.366817171241    12.000000000000
         C            1.465804258239    -0.136207930488    -0.067447828759    12.000000000000
         C           -2.188663741761     0.370060069512    -0.182073828759    12.000000000000
         C            3.949956258239     0.287773069512    -0.112959828759    12.000000000000
         H           -0.774684541761    -0.867274030488    -1.125732328759     1.007825032230
         H            0.077990258239     1.195698069512     0.696742171241     1.007825032230
         H           -1.367471741761    -1.351013930488     1.829250171241     1.007825032230
         H           -2.075224741761    -2.243520930488     0.459044171241     1.007825032230
         H           -0.323126741761    -2.334075930488     0.773988171241     1.007825032230
         H            2.390346258239     1.794352069512    -0.015688828759     1.007825032230
         H            2.576585258239     0.862705069512     1.460902171241     1.007825032230
         H            4.155325258239    -0.709964930488     0.280588171241     1.007825032230
         H            3.971860258239     0.223149069512    -1.202293828759     1.007825032230
         H            4.742640258239     0.965955069512     0.216118171241     1.007825032230
         H           -2.848703741761     2.103774069512     0.104734171241     1.007825032230

  Basis Set: AUG-CC-PVTZ
    Blend: AUG-CC-PVTZ
  Basis Set: (AUG-CC-PVTZ AUX)
    Blend: AUG-CC-PVTZ-JKFIT
	 Reference Energy          =    -512.8857375354970145 [Eh]
	 Singles Energy            =      -0.0000000000000000 [Eh]
	 Same-Spin Energy          =      -0.5113453023288153 [Eh]
	 Opposite-Spin Energy      =      -1.6150004883223956 [Eh]
	 Correlation Energy        =      -2.1263457906512109 [Eh]
	 Total Energy              =    -515.0120833261481721 [Eh]

	 ================> DF-SCS-MP2 Energies <==================
	-----------------------------------------------------------
	 SCS Same-Spin Scale       =       0.3333333333333333 [-]
	 SCS Opposite-Spin Scale   =       1.2000000000000000 [-]
	 SCS Same-Spin Energy      =      -0.1704484341096051 [Eh]
	 SCS Opposite-Spin Energy  =      -1.9380005859868747 [Eh]
	 SCS Correlation Energy    =      -2.1084490200964798 [Eh]
	 SCS Total Energy          =    -514.9941865555935010 [Eh]
	-----------------------------------------------------------

  Dipole Moment: [D]
     X:     0.0075      Y:     3.3009      Z:     1.9302     Total:     3.8238

*** Psi4 exiting successfully. Buy a developer a beer!
