                               Psi4 1.3.2 release

  ==> Input File <==

--------------------------------------------------------------------------
#psi4
#
memory 32 gb

molecule  {
0 1
  O       -1.9756670     1.6664010     0.1857370
  O        1.6511300    -1.1930600    -0.6768240
  O       -3.2820610    -0.0444860    -0.5140140
  N        0.2152580     0.2772540     0.2951010
  C       -0.9464590    -0.4858680    -0.1100250
  C       -1.2010820    -1.6869190     0.8036840
  C        2.5941300     0.7851170     0.3678910
  C        1.4652130    -0.1360080    -0.0663740
  C       -2.3690852     0.3020101    -0.2358002
  C        3.9493650     0.2879730    -0.1118860
  H       -0.7666830    -0.8628490    -1.1247510
  H        0.0773990     1.1958980     0.6978160
  H       -1.3680630    -1.3508140     1.8303240
  H       -2.0758160    -2.2433210     0.4601180
  H       -0.3237180    -2.3338760     0.7750620
  H        2.3897550     1.7945520    -0.0146150
  H        2.5759940     0.8629050     1.4619760
  H        4.1547340    -0.7097650     0.2816620
  H        3.9712690     0.2233490    -1.2012200
  H        4.7420490     0.9661550     0.2171920
  H       -2.8492950     2.1039740     0.1058080
units angstrom
no_reorient  #important for SAPT in psi4, default
symmetry c1  #important for SAPT in psi4, default
}

set PROPERTIES_ORIGIN ["COM"]
properties('MP2/aug-cc-pvtz', properties = ['dipole'])
--------------------------------------------------------------------------

    Molecular point group: c1
  Charge       = 0
  Multiplicity = 1
  Basis Set: AUG-CC-PVTZ
    Blend: AUG-CC-PVTZ
  Basis Set: (AUG-CC-PVTZ AUX)
    Blend: AUG-CC-PVTZ-JKFIT

    Orbital Energies [Eh]
    ---------------------

    Doubly Occupied:

       1A    -20.601588     2A    -20.595885     3A    -20.517705
       4A    -15.584660     5A    -11.385473     6A    -11.349750
       7A    -11.289469     8A    -11.242474     9A    -11.221525
      10A    -11.215565    11A     -1.593136    12A     -1.376256
      13A     -1.370357    14A     -1.232311    15A     -1.063363
      16A     -1.024457    17A     -0.905037    18A     -0.867561
      19A     -0.791256    20A     -0.786859    21A     -0.751016
      22A     -0.740418    23A     -0.703149    24A     -0.675569
      25A     -0.653164    26A     -0.637806    27A     -0.616375
      28A     -0.598408    29A     -0.576462    30A     -0.555215
      31A     -0.540550    32A     -0.526027    33A     -0.518816
      34A     -0.515166    35A     -0.512117    36A     -0.486376
      37A     -0.437839    38A     -0.421955    39A     -0.390198

  @DF-RHF Final Energy:  -512.80241030328477

   => Energetics <=

    Nuclear Repulsion Energy =            548.2173771497177768
    One-Electron Energy =               -1788.2969458912634764
    Two-Electron Energy =                 727.2771584382609262
    Total Energy =                       -512.8024103032847734
  Basis Set: (AUG-CC-PVTZ AUX)
    Blend: AUG-CC-PVTZ-RI
    Molecular point group: c1

    Geometry (in Angstrom), charge = 0, multiplicity = 1:

       Center              X                  Y                   Z               Mass
    ------------   -----------------  -----------------  -----------------  -----------------
         O           -1.960792044070     1.672046342704     0.190270065697    15.994914619570
         O            1.666004955930    -1.187414657296    -0.672290934303    15.994914619570
         O           -3.267186044070    -0.038840657296    -0.509480934303    15.994914619570
         N            0.230132955930     0.282899342704     0.299634065697    14.003074004430
         C           -0.931584044070    -0.480222657296    -0.105491934303    12.000000000000
         C           -1.186207044070    -1.681273657296     0.808217065697    12.000000000000
         C            2.609004955930     0.790762342704     0.372424065697    12.000000000000
         C            1.480087955930    -0.130362657296    -0.061840934303    12.000000000000
         C           -2.354210244070     0.307655442704    -0.231267134303    12.000000000000
         C            3.964239955930     0.293618342704    -0.107352934303    12.000000000000
         H           -0.751808044070    -0.857203657296    -1.120217934303     1.007825032230
         H            0.092273955930     1.201543342704     0.702349065697     1.007825032230
         H           -1.353188044070    -1.345168657296     1.834857065697     1.007825032230
         H           -2.060941044070    -2.237675657296     0.464651065697     1.007825032230
         H           -0.308843044070    -2.328230657296     0.779595065697     1.007825032230
         H            2.404629955930     1.800197342704    -0.010081934303     1.007825032230
         H            2.590868955930     0.868550342704     1.466509065697     1.007825032230
         H            4.169608955930    -0.704119657296     0.286195065697     1.007825032230
         H            3.986143955930     0.228994342704    -1.196686934303     1.007825032230
         H            4.756923955930     0.971800342704     0.221725065697     1.007825032230
         H           -2.834420044070     2.109619342704     0.110341065697     1.007825032230

  Basis Set: AUG-CC-PVTZ
    Blend: AUG-CC-PVTZ
  Basis Set: (AUG-CC-PVTZ AUX)
    Blend: AUG-CC-PVTZ-JKFIT
	 Reference Energy          =    -512.8024103032847734 [Eh]
	 Singles Energy            =      -0.0000000000000000 [Eh]
	 Same-Spin Energy          =      -0.5085038118456371 [Eh]
	 Opposite-Spin Energy      =      -1.6098468773130483 [Eh]
	 Correlation Energy        =      -2.1183506891586852 [Eh]
	 Total Energy              =    -514.9207609924434337 [Eh]

	 ================> DF-SCS-MP2 Energies <==================
	-----------------------------------------------------------
	 SCS Same-Spin Scale       =       0.3333333333333333 [-]
	 SCS Opposite-Spin Scale   =       1.2000000000000000 [-]
	 SCS Same-Spin Energy      =      -0.1695012706152124 [Eh]
	 SCS Opposite-Spin Energy  =      -1.9318162527756579 [Eh]
	 SCS Correlation Energy    =      -2.1013175233908701 [Eh]
	 SCS Total Energy          =    -514.9037278266756630 [Eh]
	-----------------------------------------------------------

  Dipole Moment: [D]
     X:    -1.3987      Y:     2.5470      Z:     1.4552     Total:     3.2498

*** Psi4 exiting successfully. Buy a developer a beer!
