                               Psi4 1.3.2 release

  ==> Input File <==

--------------------------------------------------------------------------
#psi4
#
memory 32 gb

molecule  {
0 1
  O       -1.9756670     1.6664010     0.1857370
  O        1.6511300    -1.1930600    -0.6768240
  O       -3.2820610    -0.0444860    -0.5140140
  N        0.2152580     0.2772540     0.2951010
  C       -0.9043015    -0.4730259    -0.0798347
  C       -1.2010820    -1.6869190     0.8036840
  C        2.5941300     0.7851170     0.3678910
  C        1.4652130    -0.1360080    -0.0663740
  C       -2.1892550     0.3702600    -0.1810000
  C        3.9493650     0.2879730    -0.1118860
  H       -0.7666830    -0.8628490    -1.1247510
  H        0.0773990     1.1958980     0.6978160
  H       -1.3680630    -1.3508140     1.8303240
  H       -2.0708096    -2.2677105     0.4889850
  H       -0.3237180    -2.3338760     0.7750620
  H        2.3897550     1.7945520    -0.0146150
  H        2.5759940     0.8629050     1.4619760
  H        4.1547340    -0.7097650     0.2816620
  H        3.9712690     0.2233490    -1.2012200
  H        4.7420490     0.9661550     0.2171920
  H       -2.8492950     2.1039740     0.1058080
units angstrom
no_reorient  #important for SAPT in psi4, default
symmetry c1  #important for SAPT in psi4, default
}

set PROPERTIES_ORIGIN ["COM"]
properties('MP2/aug-cc-pvtz', properties = ['dipole'])
--------------------------------------------------------------------------

    Molecular point group: c1
  Charge       = 0
  Multiplicity = 1
  Basis Set: AUG-CC-PVTZ
    Blend: AUG-CC-PVTZ
  Basis Set: (AUG-CC-PVTZ AUX)
    Blend: AUG-CC-PVTZ-JKFIT

    Orbital Energies [Eh]
    ---------------------

    Doubly Occupied:

       1A    -20.634205     2A    -20.563044     3A    -20.527205
       4A    -15.594505     5A    -11.404112     6A    -11.358413
       7A    -11.296794     8A    -11.249107     9A    -11.224906
      10A    -11.220601    11A     -1.476633    12A     -1.384417
      13A     -1.371792    14A     -1.257483    15A     -1.074356
      16A     -1.033445    17A     -0.926719    18A     -0.886193
      19A     -0.816303    20A     -0.796989    21A     -0.733093
      22A     -0.713544    23A     -0.686805    24A     -0.663349
      25A     -0.642370    26A     -0.633893    27A     -0.607429
      28A     -0.603579    29A     -0.587322    30A     -0.545899
      31A     -0.538485    32A     -0.528532    33A     -0.520941
      34A     -0.516609    35A     -0.497818    36A     -0.487356
      37A     -0.462629    38A     -0.431277    39A     -0.400192

  @DF-RHF Final Energy:  -512.88200303016208

   => Energetics <=

    Nuclear Repulsion Energy =            548.5574153143411422
    One-Electron Energy =               -1789.0821467848636530
    Two-Electron Energy =                 727.6427284403604290
    Total Energy =                       -512.8820030301620818
  Basis Set: (AUG-CC-PVTZ AUX)
    Blend: AUG-CC-PVTZ-RI
    Molecular point group: c1

    Geometry (in Angstrom), charge = 0, multiplicity = 1:

       Center              X                  Y                   Z               Mass
    ------------   -----------------  -----------------  -----------------  -----------------
         O           -1.979188861830     1.665508132208     0.183039413359    15.994914619570
         O            1.647608138170    -1.193952867792    -0.679521586641    15.994914619570
         O           -3.285582861830    -0.045378867792    -0.516711586641    15.994914619570
         N            0.211736138170     0.276361132208     0.292403413359    14.003074004430
         C           -0.907823361830    -0.473918767792    -0.082532286641    12.000000000000
         C           -1.204603861830    -1.687811867792     0.800986413359    12.000000000000
         C            2.590608138170     0.784224132208     0.365193413359    12.000000000000
         C            1.461691138170    -0.136900867792    -0.069071586641    12.000000000000
         C           -2.192776861830     0.369367132208    -0.183697586641    12.000000000000
         C            3.945843138170     0.287080132208    -0.114583586641    12.000000000000
         H           -0.770204861830    -0.863741867792    -1.127448586641     1.007825032230
         H            0.073877138170     1.195005132208     0.695118413359     1.007825032230
         H           -1.371584861830    -1.351706867792     1.827626413359     1.007825032230
         H           -2.074331461830    -2.268603367792     0.486287413359     1.007825032230
         H           -0.327239861830    -2.334768867792     0.772364413359     1.007825032230
         H            2.386233138170     1.793659132208    -0.017312586641     1.007825032230
         H            2.572472138170     0.862012132208     1.459278413359     1.007825032230
         H            4.151212138170    -0.710657867792     0.278964413359     1.007825032230
         H            3.967747138170     0.222456132208    -1.203917586641     1.007825032230
         H            4.738527138170     0.965262132208     0.214494413359     1.007825032230
         H           -2.852816861830     2.103081132208     0.103110413359     1.007825032230

  Basis Set: AUG-CC-PVTZ
    Blend: AUG-CC-PVTZ
  Basis Set: (AUG-CC-PVTZ AUX)
    Blend: AUG-CC-PVTZ-JKFIT
	 Reference Energy          =    -512.8820030301620818 [Eh]
	 Singles Energy            =      -0.0000000000000000 [Eh]
	 Same-Spin Energy          =      -0.5118102962547779 [Eh]
	 Opposite-Spin Energy      =      -1.6152896581665630 [Eh]
	 Correlation Energy        =      -2.1270999544213409 [Eh]
	 Total Energy              =    -515.0091029845834782 [Eh]

	 ================> DF-SCS-MP2 Energies <==================
	-----------------------------------------------------------
	 SCS Same-Spin Scale       =       0.3333333333333333 [-]
	 SCS Opposite-Spin Scale   =       1.2000000000000000 [-]
	 SCS Same-Spin Energy      =      -0.1706034320849260 [Eh]
	 SCS Opposite-Spin Energy  =      -1.9383475897998754 [Eh]
	 SCS Correlation Energy    =      -2.1089510218848013 [Eh]
	 SCS Total Energy          =    -514.9909540520468454 [Eh]
	-----------------------------------------------------------

  Dipole Moment: [D]
     X:     0.1035      Y:     3.3525      Z:     1.9850     Total:     3.8974

*** Psi4 exiting successfully. Buy a developer a beer!
