                               Psi4 1.4a3.dev225

  ==> Input File <==

--------------------------------------------------------------------------
#psi4
#
memory 32 gb

molecule  {
0 1
  O        2.1858500    -1.4843500     0.4466430
  O       -1.5901990     1.2021140    -0.7742790
  O        3.2899360     0.0893000    -0.7567370
  N       -0.1552130    -0.3501220     0.0655300
  C        0.9973750     0.5138300    -0.1038320
  C        1.1366130     1.5332170     1.0331740
  C       -2.5208420    -0.9251940    -0.0919400
  C       -1.4008270     0.0814870    -0.2899980
  C        2.2713450    -0.2912280    -0.2118740
  C       -3.8280260    -0.2360070     0.2837800
  H        0.8696911     1.0788587    -1.0897709
  H       -0.0274960    -1.2421660     0.5250420
  H        1.2555520     1.0181310     1.9903510
  H        2.0023980     2.1787030     0.8613650
  H        0.2327940     2.1443920     1.0604580
  H       -2.6404080    -1.4674310    -1.0380590
  H       -2.2372030    -1.6677960     0.6628800
  H       -3.7417830     0.2575120     1.2553170
  H       -4.0728600     0.5241080    -0.4590610
  H       -4.6456460    -0.9595500     0.3374610
  H        3.0673500    -1.9023430     0.3513230
units angstrom
no_reorient  #important for SAPT in psi4, default
symmetry c1  #important for SAPT in psi4, default
}

set PROPERTIES_ORIGIN ["COM"]
properties('MP2/aug-cc-pvtz', properties = ['dipole'])
--------------------------------------------------------------------------

    Molecular point group: c1
  Charge       = 0
  Multiplicity = 1
  Basis Set: AUG-CC-PVTZ
    Blend: AUG-CC-PVTZ
  Basis Set: (AUG-CC-PVTZ AUX)
    Blend: AUG-CC-PVTZ-JKFIT

    Orbital Energies [Eh]
    ---------------------

    Doubly Occupied:

       1A    -20.634592     2A    -20.564881     3A    -20.522673
       4A    -15.596295     5A    -11.404088     6A    -11.356907
       7A    -11.301614     8A    -11.247805     9A    -11.233193
      10A    -11.222432    11A     -1.476515    12A     -1.379459
      13A     -1.372535    14A     -1.245715    15A     -1.075178
      16A     -1.036846    17A     -0.927790    18A     -0.886620
      19A     -0.817761    20A     -0.794511    21A     -0.727616
      22A     -0.714390    23A     -0.680235    24A     -0.659396
      25A     -0.641362    26A     -0.633400    27A     -0.610056
      28A     -0.597955    29A     -0.584472    30A     -0.556287
      31A     -0.550828    32A     -0.524820    33A     -0.523473
      34A     -0.513179    35A     -0.497962    36A     -0.486095
      37A     -0.469043    38A     -0.427629    39A     -0.400131

  @DF-RHF Final Energy:  -512.88384429627126

   => Energetics <=

    Nuclear Repulsion Energy =            547.6244217716408684
    One-Electron Energy =               -1787.2250560525383207
    Two-Electron Energy =                 726.7167899846260752
    Total Energy =                       -512.8838442962712634
  Basis Set: (AUG-CC-PVTZ AUX)
    Blend: AUG-CC-PVTZ-RI
    Molecular point group: c1

    Geometry (in Angstrom), charge = 0, multiplicity = 1:

       Center              X                  Y                   Z               Mass
    ------------   -----------------  -----------------  -----------------  -----------------
         O            2.118102068633    -1.484946975097     0.477681854390    15.994914619570
         O           -1.657946931367     1.201517024903    -0.743240145610    15.994914619570
         O            3.222188068633     0.088703024903    -0.725698145610    15.994914619570
         N           -0.222960931367    -0.350718975097     0.096568854390    14.003074004430
         C            0.929627068633     0.513233024903    -0.072793145610    12.000000000000
         C            1.068865068633     1.532620024903     1.064212854390    12.000000000000
         C           -2.588589931367    -0.925790975097    -0.060901145610    12.000000000000
         C           -1.468574931367     0.080890024903    -0.258959145610    12.000000000000
         C            2.203597068633    -0.291824975097    -0.180835145610    12.000000000000
         C           -3.895773931367    -0.236603975097     0.314818854390    12.000000000000
         H            0.801943168633     1.078261724903    -1.058732045610     1.007825032230
         H           -0.095243931367    -1.242762975097     0.556080854390     1.007825032230
         H            1.187804068633     1.017534024903     2.021389854390     1.007825032230
         H            1.934650068633     2.178106024903     0.892403854390     1.007825032230
         H            0.165046068633     2.143795024903     1.091496854390     1.007825032230
         H           -2.708155931367    -1.468027975097    -1.007020145610     1.007825032230
         H           -2.304950931367    -1.668392975097     0.693918854390     1.007825032230
         H           -3.809530931367     0.256915024903     1.286355854390     1.007825032230
         H           -4.140607931367     0.523511024903    -0.428022145610     1.007825032230
         H           -4.713393931367    -0.960146975097     0.368499854390     1.007825032230
         H            2.999602068633    -1.902939975097     0.382361854390     1.007825032230

  Basis Set: AUG-CC-PVTZ
    Blend: AUG-CC-PVTZ
  Basis Set: (AUG-CC-PVTZ AUX)
    Blend: AUG-CC-PVTZ-JKFIT
	 Reference Energy          =    -512.8838442962712634 [Eh]
	 Singles Energy            =      -0.0000000000000000 [Eh]
	 Same-Spin Energy          =      -0.5113670088294404 [Eh]
	 Opposite-Spin Energy      =      -1.6156255082262514 [Eh]
	 Correlation Energy        =      -2.1269925170556920 [Eh]
	 Total Energy              =    -515.0108368133269323 [Eh]

	 ================> DF-SCS-MP2 Energies <==================
	-----------------------------------------------------------
	 SCS Same-Spin Scale       =       0.3333333333333333 [-]
	 SCS Opposite-Spin Scale   =       1.2000000000000000 [-]
	 SCS Same-Spin Energy      =      -0.1704556696098135 [Eh]
	 SCS Opposite-Spin Energy  =      -1.9387506098715015 [Eh]
	 SCS Correlation Energy    =      -2.1092062794813149 [Eh]
	 SCS Total Energy          =    -514.9930505757525907 [Eh]
	-----------------------------------------------------------

  Dipole Moment: [D]
     X:     0.1236      Y:    -3.2846      Z:     2.2911     Total:     4.0066

*** Psi4 exiting successfully. Buy a developer a beer!
