                               Psi4 1.3.2 release

  ==> Input File <==

--------------------------------------------------------------------------
#psi4
#
memory 32 gb

molecule  {
0 1
  O       -1.9756670     1.6664010     0.1857370
  O        1.6511300    -1.1930600    -0.6768240
  O       -3.2820610    -0.0444860    -0.5140140
  N        0.2363960     0.2671753     0.2503200
  C       -0.9464590    -0.4858680    -0.1100250
  C       -1.2010820    -1.6869190     0.8036840
  C        2.5941300     0.7851170     0.3678910
  C        1.4652130    -0.1360080    -0.0663740
  C       -2.1892550     0.3702600    -0.1810000
  C        3.9493650     0.2879730    -0.1118860
  H       -0.7324551    -0.8456646    -1.1243482
  H        0.0773990     1.1958980     0.6978160
  H       -1.3680630    -1.3508140     1.8303240
  H       -2.0758160    -2.2433210     0.4601180
  H       -0.3237180    -2.3338760     0.7750620
  H        2.3897550     1.7945520    -0.0146150
  H        2.5759940     0.8629050     1.4619760
  H        4.1547340    -0.7097650     0.2816620
  H        3.9712690     0.2233490    -1.2012200
  H        4.7420490     0.9661550     0.2171920
  H       -2.8492950     2.1039740     0.1058080
units angstrom
no_reorient  #important for SAPT in psi4, default
symmetry c1  #important for SAPT in psi4, default
}

set PROPERTIES_ORIGIN ["COM"]
properties('MP2/aug-cc-pvtz', properties = ['dipole'])
--------------------------------------------------------------------------

    Molecular point group: c1
  Charge       = 0
  Multiplicity = 1
  Basis Set: AUG-CC-PVTZ
    Blend: AUG-CC-PVTZ
  Basis Set: (AUG-CC-PVTZ AUX)
    Blend: AUG-CC-PVTZ-JKFIT

    Orbital Energies [Eh]
    ---------------------

    Doubly Occupied:

       1A    -20.637568     2A    -20.565676     3A    -20.517359
       4A    -15.595363     5A    -11.407045     6A    -11.350330
       7A    -11.297702     8A    -11.246418     9A    -11.228728
      10A    -11.218408    11A     -1.479988    12A     -1.380726
      13A     -1.375133    14A     -1.247409    15A     -1.076541
      16A     -1.036528    17A     -0.930072    18A     -0.884877
      19A     -0.816927    20A     -0.794397    21A     -0.732225
      22A     -0.715130    23A     -0.681922    24A     -0.666957
      25A     -0.641738    26A     -0.632673    27A     -0.612274
      28A     -0.599788    29A     -0.580901    30A     -0.547610
      31A     -0.544851    32A     -0.523406    33A     -0.519451
      34A     -0.517772    35A     -0.497951    36A     -0.487944
      37A     -0.469601    38A     -0.426050    39A     -0.399117

  @DF-RHF Final Energy:  -512.88348976107386

   => Energetics <=

    Nuclear Repulsion Energy =            548.6818980270584234
    One-Electron Energy =               -1789.3616602919576053
    Two-Electron Energy =                 727.7962725038253211
    Total Energy =                       -512.8834897610738608
  Basis Set: (AUG-CC-PVTZ AUX)
    Blend: AUG-CC-PVTZ-RI
    Molecular point group: c1

    Geometry (in Angstrom), charge = 0, multiplicity = 1:

       Center              X                  Y                   Z               Mass
    ------------   -----------------  -----------------  -----------------  -----------------
         O           -1.977945062147     1.667254406187     0.190056817853    15.994914619570
         O            1.648851937853    -1.192206593813    -0.672504182147    15.994914619570
         O           -3.284339062147    -0.043632593813    -0.509694182147    15.994914619570
         N            0.234117937853     0.268028706187     0.254639817853    14.003074004430
         C           -0.948737062147    -0.485014593813    -0.105705182147    12.000000000000
         C           -1.203360062147    -1.686065593813     0.808003817853    12.000000000000
         C            2.591851937853     0.785970406187     0.372210817853    12.000000000000
         C            1.462934937853    -0.135154593813    -0.062054182147    12.000000000000
         C           -2.191533062147     0.371113406187    -0.176680182147    12.000000000000
         C            3.947086937853     0.288826406187    -0.107566182147    12.000000000000
         H           -0.734733162147    -0.844811193813    -1.120028382147     1.007825032230
         H            0.075120937853     1.196751406187     0.702135817853     1.007825032230
         H           -1.370341062147    -1.349960593813     1.834643817853     1.007825032230
         H           -2.078094062147    -2.242467593813     0.464437817853     1.007825032230
         H           -0.325996062147    -2.333022593813     0.779381817853     1.007825032230
         H            2.387476937853     1.795405406187    -0.010295182147     1.007825032230
         H            2.573715937853     0.863758406187     1.466295817853     1.007825032230
         H            4.152455937853    -0.708911593813     0.285981817853     1.007825032230
         H            3.968990937853     0.224202406187    -1.196900182147     1.007825032230
         H            4.739770937853     0.967008406187     0.221511817853     1.007825032230
         H           -2.851573062147     2.104827406187     0.110127817853     1.007825032230

  Basis Set: AUG-CC-PVTZ
    Blend: AUG-CC-PVTZ
  Basis Set: (AUG-CC-PVTZ AUX)
    Blend: AUG-CC-PVTZ-JKFIT
	 Reference Energy          =    -512.8834897610738608 [Eh]
	 Singles Energy            =      -0.0000000000000000 [Eh]
	 Same-Spin Energy          =      -0.5115709359784772 [Eh]
	 Opposite-Spin Energy      =      -1.6150570303317613 [Eh]
	 Correlation Energy        =      -2.1266279663102385 [Eh]
	 Total Energy              =    -515.0101177273841131 [Eh]

	 ================> DF-SCS-MP2 Energies <==================
	-----------------------------------------------------------
	 SCS Same-Spin Scale       =       0.3333333333333333 [-]
	 SCS Opposite-Spin Scale   =       1.2000000000000000 [-]
	 SCS Same-Spin Energy      =      -0.1705236453261591 [Eh]
	 SCS Opposite-Spin Energy  =      -1.9380684363981135 [Eh]
	 SCS Correlation Energy    =      -2.1085920817242725 [Eh]
	 SCS Total Energy          =    -514.9920818427981430 [Eh]
	-----------------------------------------------------------

  Dipole Moment: [D]
     X:    -0.2409      Y:     3.3696      Z:     2.0779     Total:     3.9661

*** Psi4 exiting successfully. Buy a developer a beer!
