                               Psi4 1.3.2 release

  ==> Input File <==

--------------------------------------------------------------------------
#psi4
#
memory 32 gb

molecule  {
0 1
  O       -1.9756670     1.6664010     0.1857370
  O        1.6511300    -1.1930600    -0.6768240
  O       -3.2820610    -0.0444860    -0.5140140
  N        0.2171072     0.2692420     0.3046933
  C       -0.9464590    -0.4858680    -0.1100250
  C       -1.1903993    -1.6835695     0.8109662
  C        2.5941300     0.7851170     0.3678910
  C        1.4652130    -0.1360080    -0.0663740
  C       -2.1892550     0.3702600    -0.1810000
  C        3.9493650     0.2879730    -0.1118860
  H       -0.7666830    -0.8628490    -1.1247510
  H        0.0773990     1.1958980     0.6978160
  H       -1.3680630    -1.3508140     1.8303240
  H       -2.0758160    -2.2433210     0.4601180
  H       -0.3237180    -2.3338760     0.7750620
  H        2.3897550     1.7945520    -0.0146150
  H        2.5759940     0.8629050     1.4619760
  H        4.1547340    -0.7097650     0.2816620
  H        3.9712690     0.2233490    -1.2012200
  H        4.7420490     0.9661550     0.2171920
  H       -2.8492950     2.1039740     0.1058080
units angstrom
no_reorient  #important for SAPT in psi4, default
symmetry c1  #important for SAPT in psi4, default
}

set PROPERTIES_ORIGIN ["COM"]
properties('MP2/aug-cc-pvtz', properties = ['dipole'])
--------------------------------------------------------------------------

    Molecular point group: c1
  Charge       = 0
  Multiplicity = 1
  Basis Set: AUG-CC-PVTZ
    Blend: AUG-CC-PVTZ
  Basis Set: (AUG-CC-PVTZ AUX)
    Blend: AUG-CC-PVTZ-JKFIT

    Orbital Energies [Eh]
    ---------------------

    Doubly Occupied:

       1A    -20.636314     2A    -20.564171     3A    -20.524275
       4A    -15.592397     5A    -11.405221     6A    -11.355785
       7A    -11.296426     8A    -11.247502     9A    -11.226621
      10A    -11.219447    11A     -1.478732    12A     -1.380652
      13A     -1.373836    14A     -1.245284    15A     -1.074885
      16A     -1.035449    17A     -0.927730    18A     -0.885528
      19A     -0.816427    20A     -0.792043    21A     -0.731041
      22A     -0.714749    23A     -0.683068    24A     -0.665768
      25A     -0.641325    26A     -0.633575    27A     -0.611138
      28A     -0.602002    29A     -0.580035    30A     -0.546273
      31A     -0.543735    32A     -0.523180    33A     -0.521090
      34A     -0.519277    35A     -0.497525    36A     -0.488400
      37A     -0.468349    38A     -0.428638    39A     -0.400163

  @DF-RHF Final Energy:  -512.88555433298689

   => Energetics <=

    Nuclear Repulsion Energy =            548.2404939546586320
    One-Electron Energy =               -1788.4959920414305543
    Two-Electron Energy =                 727.3699437537850372
    Total Energy =                       -512.8855543329868851
  Basis Set: (AUG-CC-PVTZ AUX)
    Blend: AUG-CC-PVTZ-RI
    Molecular point group: c1

    Geometry (in Angstrom), charge = 0, multiplicity = 1:

       Center              X                  Y                   Z               Mass
    ------------   -----------------  -----------------  -----------------  -----------------
         O           -1.976729089897     1.666897241411     0.184208944242    15.994914619570
         O            1.650067910103    -1.192563758589    -0.678352055758    15.994914619570
         O           -3.283123089897    -0.043989758589    -0.515542055758    15.994914619570
         N            0.216045110103     0.269738241411     0.303165244242    14.003074004430
         C           -0.947521089897    -0.485371758589    -0.111553055758    12.000000000000
         C           -1.191461389897    -1.683073258589     0.809438144242    12.000000000000
         C            2.593067910103     0.785613241411     0.366362944242    12.000000000000
         C            1.464150910103    -0.135511758589    -0.067902055758    12.000000000000
         C           -2.190317089897     0.370756241411    -0.182528055758    12.000000000000
         C            3.948302910103     0.288469241411    -0.113414055758    12.000000000000
         H           -0.767745089897    -0.862352758589    -1.126279055758     1.007825032230
         H            0.076336910103     1.196394241411     0.696287944242     1.007825032230
         H           -1.369125089897    -1.350317758589     1.828795944242     1.007825032230
         H           -2.076878089897    -2.242824758589     0.458589944242     1.007825032230
         H           -0.324780089897    -2.333379758589     0.773533944242     1.007825032230
         H            2.388692910103     1.795048241411    -0.016143055758     1.007825032230
         H            2.574931910103     0.863401241411     1.460447944242     1.007825032230
         H            4.153671910103    -0.709268758589     0.280133944242     1.007825032230
         H            3.970206910103     0.223845241411    -1.202748055758     1.007825032230
         H            4.740986910103     0.966651241411     0.215663944242     1.007825032230
         H           -2.850357089897     2.104470241411     0.104279944242     1.007825032230

  Basis Set: AUG-CC-PVTZ
    Blend: AUG-CC-PVTZ
  Basis Set: (AUG-CC-PVTZ AUX)
    Blend: AUG-CC-PVTZ-JKFIT
	 Reference Energy          =    -512.8855543329868851 [Eh]
	 Singles Energy            =      -0.0000000000000000 [Eh]
	 Same-Spin Energy          =      -0.5114105704292595 [Eh]
	 Opposite-Spin Energy      =      -1.6150660995717847 [Eh]
	 Correlation Energy        =      -2.1264766700010442 [Eh]
	 Total Energy              =    -515.0120310029878965 [Eh]

	 ================> DF-SCS-MP2 Energies <==================
	-----------------------------------------------------------
	 SCS Same-Spin Scale       =       0.3333333333333333 [-]
	 SCS Opposite-Spin Scale   =       1.2000000000000000 [-]
	 SCS Same-Spin Energy      =      -0.1704701901430865 [Eh]
	 SCS Opposite-Spin Energy  =      -1.9380793194861416 [Eh]
	 SCS Correlation Energy    =      -2.1085495096292282 [Eh]
	 SCS Total Energy          =    -514.9941038426161413 [Eh]
	-----------------------------------------------------------

  Dipole Moment: [D]
     X:    -0.0590      Y:     3.3359      Z:     1.9472     Total:     3.8631

*** Psi4 exiting successfully. Buy a developer a beer!
