                               Psi4 1.3.2 release

  ==> Input File <==

--------------------------------------------------------------------------
#psi4
#
memory 32 gb

molecule  {
0 1
  O       -1.9756670     1.6664010     0.1857370
  O        1.6511300    -1.1930600    -0.6768240
  O       -3.2820610    -0.0444860    -0.5140140
  N        0.2152580     0.2772540     0.2951010
  C       -1.1069415    -0.5912876    -0.1659901
  C       -1.2010820    -1.6869190     0.8036840
  C        2.5941300     0.7851170     0.3678910
  C        1.4652130    -0.1360080    -0.0663740
  C       -2.1892550     0.3702600    -0.1810000
  C        3.9493650     0.2879730    -0.1118860
  H       -0.7666830    -0.8628490    -1.1247510
  H        0.0773990     1.1958980     0.6978160
  H       -1.3680630    -1.3508140     1.8303240
  H       -2.0758160    -2.2433210     0.4601180
  H       -0.3237180    -2.3338760     0.7750620
  H        2.3897550     1.7945520    -0.0146150
  H        2.5759940     0.8629050     1.4619760
  H        4.1547340    -0.7097650     0.2816620
  H        3.9712690     0.2233490    -1.2012200
  H        4.7420490     0.9661550     0.2171920
  H       -2.8492950     2.1039740     0.1058080
units angstrom
no_reorient  #important for SAPT in psi4, default
symmetry c1  #important for SAPT in psi4, default
}

set PROPERTIES_ORIGIN ["COM"]
properties('MP2/aug-cc-pvtz', properties = ['dipole'])
--------------------------------------------------------------------------

    Molecular point group: c1
  Charge       = 0
  Multiplicity = 1
  Basis Set: AUG-CC-PVTZ
    Blend: AUG-CC-PVTZ
  Basis Set: (AUG-CC-PVTZ AUX)
    Blend: AUG-CC-PVTZ-JKFIT

    Orbital Energies [Eh]
    ---------------------

    Doubly Occupied:

       1A    -20.643468     2A    -20.567739     3A    -20.514314
       4A    -15.578343     5A    -11.409085     6A    -11.345995
       7A    -11.307554     8A    -11.240693     9A    -11.232579
      10A    -11.214577    11A     -1.485158    12A     -1.381660
      13A     -1.367879    14A     -1.207784    15A     -1.086523
      16A     -1.038990    17A     -0.939237    18A     -0.877531
      19A     -0.822249    20A     -0.776030    21A     -0.730387
      22A     -0.718009    23A     -0.674391    24A     -0.668299
      25A     -0.637525    26A     -0.631410    27A     -0.618826
      28A     -0.595485    29A     -0.585723    30A     -0.556774
      31A     -0.541722    32A     -0.527684    33A     -0.513672
      34A     -0.502365    35A     -0.495467    36A     -0.487784
      37A     -0.473130    38A     -0.416813    39A     -0.394580

  @DF-RHF Final Energy:  -512.85337457102912

   => Energetics <=

    Nuclear Repulsion Energy =            546.6343347057736537
    One-Electron Energy =               -1785.3605492797285024
    Two-Electron Energy =                 725.8728400029257273
    Total Energy =                       -512.8533745710291214
  Basis Set: (AUG-CC-PVTZ AUX)
    Blend: AUG-CC-PVTZ-RI
    Molecular point group: c1

    Geometry (in Angstrom), charge = 0, multiplicity = 1:

       Center              X                  Y                   Z               Mass
    ------------   -----------------  -----------------  -----------------  -----------------
         O           -1.962392417472     1.675120888993     0.190366422110    15.994914619570
         O            1.664404582528    -1.184340111007    -0.672194577890    15.994914619570
         O           -3.268786417472    -0.035766111007    -0.509384577890    15.994914619570
         N            0.228532582528     0.285973888993     0.299730422110    14.003074004430
         C           -1.093666917472    -0.582567711007    -0.161360677890    12.000000000000
         C           -1.187807417472    -1.678199111007     0.808313422110    12.000000000000
         C            2.607404582528     0.793836888993     0.372520422110    12.000000000000
         C            1.478487582528    -0.127288111007    -0.061744577890    12.000000000000
         C           -2.175980417472     0.378979888993    -0.176370577890    12.000000000000
         C            3.962639582528     0.296692888993    -0.107256577890    12.000000000000
         H           -0.753408417472    -0.854129111007    -1.120121577890     1.007825032230
         H            0.090673582528     1.204617888993     0.702445422110     1.007825032230
         H           -1.354788417472    -1.342094111007     1.834953422110     1.007825032230
         H           -2.062541417472    -2.234601111007     0.464747422110     1.007825032230
         H           -0.310443417472    -2.325156111007     0.779691422110     1.007825032230
         H            2.403029582528     1.803271888993    -0.009985577890     1.007825032230
         H            2.589268582528     0.871624888993     1.466605422110     1.007825032230
         H            4.168008582528    -0.701045111007     0.286291422110     1.007825032230
         H            3.984543582528     0.232068888993    -1.196590577890     1.007825032230
         H            4.755323582528     0.974874888993     0.221821422110     1.007825032230
         H           -2.836020417472     2.112693888993     0.110437422110     1.007825032230

  Basis Set: AUG-CC-PVTZ
    Blend: AUG-CC-PVTZ
  Basis Set: (AUG-CC-PVTZ AUX)
    Blend: AUG-CC-PVTZ-JKFIT
	 Reference Energy          =    -512.8533745710291214 [Eh]
	 Singles Energy            =      -0.0000000000000000 [Eh]
	 Same-Spin Energy          =      -0.5120446167560153 [Eh]
	 Opposite-Spin Energy      =      -1.6175463580382976 [Eh]
	 Correlation Energy        =      -2.1295909747943131 [Eh]
	 Total Energy              =    -514.9829655458233901 [Eh]

	 ================> DF-SCS-MP2 Energies <==================
	-----------------------------------------------------------
	 SCS Same-Spin Scale       =       0.3333333333333333 [-]
	 SCS Opposite-Spin Scale   =       1.2000000000000000 [-]
	 SCS Same-Spin Energy      =      -0.1706815389186718 [Eh]
	 SCS Opposite-Spin Energy  =      -1.9410556296459571 [Eh]
	 SCS Correlation Energy    =      -2.1117371685646287 [Eh]
	 SCS Total Energy          =    -514.9651117395937945 [Eh]
	-----------------------------------------------------------

  Dipole Moment: [D]
     X:    -0.7008      Y:     3.0918      Z:     1.9525     Total:     3.7233

*** Psi4 exiting successfully. Buy a developer a beer!
