                               Psi4 1.3.2 release

  ==> Input File <==

--------------------------------------------------------------------------
#psi4
#
memory 32 gb

molecule  {
0 1
  O       -1.9756670     1.6664010     0.1857370
  O        1.6511300    -1.1930600    -0.6768240
  O       -3.2861111    -0.0347801    -0.5126424
  N        0.2152580     0.2772540     0.2951010
  C       -0.9395221    -0.4753702    -0.1060882
  C       -1.2010820    -1.6869190     0.8036840
  C        2.5941300     0.7851170     0.3678910
  C        1.4652130    -0.1360080    -0.0663740
  C       -2.1892550     0.3702600    -0.1810000
  C        3.9493650     0.2879730    -0.1118860
  H       -0.7666830    -0.8628490    -1.1247510
  H        0.0773990     1.1958980     0.6978160
  H       -1.3680630    -1.3508140     1.8303240
  H       -2.0758160    -2.2433210     0.4601180
  H       -0.3237180    -2.3338760     0.7750620
  H        2.3897550     1.7945520    -0.0146150
  H        2.5759940     0.8629050     1.4619760
  H        4.1547340    -0.7097650     0.2816620
  H        3.9712690     0.2233490    -1.2012200
  H        4.7420490     0.9661550     0.2171920
  H       -2.8492950     2.1039740     0.1058080
units angstrom
no_reorient  #important for SAPT in psi4, default
symmetry c1  #important for SAPT in psi4, default
}

set PROPERTIES_ORIGIN ["COM"]
properties('MP2/aug-cc-pvtz', properties = ['dipole'])
--------------------------------------------------------------------------

    Molecular point group: c1
  Charge       = 0
  Multiplicity = 1
  Basis Set: AUG-CC-PVTZ
    Blend: AUG-CC-PVTZ
  Basis Set: (AUG-CC-PVTZ AUX)
    Blend: AUG-CC-PVTZ-JKFIT

    Orbital Energies [Eh]
    ---------------------

    Doubly Occupied:

       1A    -20.634703     2A    -20.563516     3A    -20.525395
       4A    -15.593171     5A    -11.404600     6A    -11.356959
       7A    -11.296613     8A    -11.248084     9A    -11.227140
      10A    -11.219879    11A     -1.478197    12A     -1.381677
      13A     -1.372480    14A     -1.248456    15A     -1.074903
      16A     -1.035274    17A     -0.927870    18A     -0.886164
      19A     -0.816321    20A     -0.793674    21A     -0.731909
      22A     -0.714084    23A     -0.683969    24A     -0.665196
      25A     -0.641626    26A     -0.633246    27A     -0.609662
      28A     -0.602987    29A     -0.581554    30A     -0.546402
      31A     -0.543379    32A     -0.525355    33A     -0.520291
      34A     -0.518998    35A     -0.497589    36A     -0.487852
      37A     -0.467666    38A     -0.429644    39A     -0.400064

  @DF-RHF Final Energy:  -512.88566807337327

   => Energetics <=

    Nuclear Repulsion Energy =            548.2843892926808849
    One-Electron Energy =               -1788.5670176508238001
    Two-Electron Energy =                 727.3969602847697615
    Total Energy =                       -512.8856680733732674
  Basis Set: (AUG-CC-PVTZ AUX)
    Blend: AUG-CC-PVTZ-RI
    Molecular point group: c1

    Geometry (in Angstrom), charge = 0, multiplicity = 1:

       Center              X                  Y                   Z               Mass
    ------------   -----------------  -----------------  -----------------  -----------------
         O           -1.975794220879     1.664462500998     0.185260324738    15.994914619570
         O            1.651002779121    -1.194998499002    -0.677300675262    15.994914619570
         O           -3.286238320879    -0.036718599002    -0.513119075262    15.994914619570
         N            0.215130779121     0.275315500998     0.294624324738    14.003074004430
         C           -0.939649320879    -0.477308699002    -0.106564875262    12.000000000000
         C           -1.201209220879    -1.688857499002     0.803207324738    12.000000000000
         C            2.594002779121     0.783178500998     0.367414324738    12.000000000000
         C            1.465085779121    -0.137946499002    -0.066850675262    12.000000000000
         C           -2.189382220879     0.368321500998    -0.181476675262    12.000000000000
         C            3.949237779121     0.286034500998    -0.112362675262    12.000000000000
         H           -0.766810220879    -0.864787499002    -1.125227675262     1.007825032230
         H            0.077271779121     1.193959500998     0.697339324738     1.007825032230
         H           -1.368190220879    -1.352752499002     1.829847324738     1.007825032230
         H           -2.075943220879    -2.245259499002     0.459641324738     1.007825032230
         H           -0.323845220879    -2.335814499002     0.774585324738     1.007825032230
         H            2.389627779121     1.792613500998    -0.015091675262     1.007825032230
         H            2.575866779121     0.860966500998     1.461499324738     1.007825032230
         H            4.154606779121    -0.711703499002     0.281185324738     1.007825032230
         H            3.971141779121     0.221410500998    -1.201696675262     1.007825032230
         H            4.741921779121     0.964216500998     0.216715324738     1.007825032230
         H           -2.849422220879     2.102035500998     0.105331324738     1.007825032230

  Basis Set: AUG-CC-PVTZ
    Blend: AUG-CC-PVTZ
  Basis Set: (AUG-CC-PVTZ AUX)
    Blend: AUG-CC-PVTZ-JKFIT
	 Reference Energy          =    -512.8856680733732674 [Eh]
	 Singles Energy            =      -0.0000000000000000 [Eh]
	 Same-Spin Energy          =      -0.5114539135041588 [Eh]
	 Opposite-Spin Energy      =      -1.6149952905797338 [Eh]
	 Correlation Energy        =      -2.1264492040838925 [Eh]
	 Total Energy              =    -515.0121172774571505 [Eh]

	 ================> DF-SCS-MP2 Energies <==================
	-----------------------------------------------------------
	 SCS Same-Spin Scale       =       0.3333333333333333 [-]
	 SCS Opposite-Spin Scale   =       1.2000000000000000 [-]
	 SCS Same-Spin Energy      =      -0.1704846378347196 [Eh]
	 SCS Opposite-Spin Energy  =      -1.9379943486956805 [Eh]
	 SCS Correlation Energy    =      -2.1084789865304003 [Eh]
	 SCS Total Energy          =    -514.9941470599036393 [Eh]
	-----------------------------------------------------------

  Dipole Moment: [D]
     X:     0.0174      Y:     3.3035      Z:     1.9601     Total:     3.8413

*** Psi4 exiting successfully. Buy a developer a beer!
