                               Psi4 1.3.2 release

  ==> Input File <==

--------------------------------------------------------------------------
#psi4
#
memory 32 gb

molecule  {
0 1
  O       -1.9756670     1.6664010     0.1857370
  O        1.6511300    -1.1930600    -0.6768240
  O       -3.2820610    -0.0444860    -0.5140140
  N        0.1809057     0.2906253     0.3613302
  C       -0.9464590    -0.4858680    -0.1100250
  C       -1.2010820    -1.6869190     0.8036840
  C        2.5941300     0.7851170     0.3678910
  C        1.4652130    -0.1360080    -0.0663740
  C       -2.1892550     0.3702600    -0.1810000
  C        3.9493650     0.2879730    -0.1118860
  H       -0.8184224    -0.8877580    -1.1230374
  H        0.0773990     1.1958980     0.6978160
  H       -1.3680630    -1.3508140     1.8303240
  H       -2.0758160    -2.2433210     0.4601180
  H       -0.3237180    -2.3338760     0.7750620
  H        2.3897550     1.7945520    -0.0146150
  H        2.5759940     0.8629050     1.4619760
  H        4.1547340    -0.7097650     0.2816620
  H        3.9712690     0.2233490    -1.2012200
  H        4.7420490     0.9661550     0.2171920
  H       -2.8492950     2.1039740     0.1058080
units angstrom
no_reorient  #important for SAPT in psi4, default
symmetry c1  #important for SAPT in psi4, default
}

set PROPERTIES_ORIGIN ["COM"]
properties('MP2/aug-cc-pvtz', properties = ['dipole'])
--------------------------------------------------------------------------

    Molecular point group: c1
  Charge       = 0
  Multiplicity = 1
  Basis Set: AUG-CC-PVTZ
    Blend: AUG-CC-PVTZ
  Basis Set: (AUG-CC-PVTZ AUX)
    Blend: AUG-CC-PVTZ-JKFIT

    Orbital Energies [Eh]
    ---------------------

    Doubly Occupied:

       1A    -20.633491     2A    -20.560897     3A    -20.535615
       4A    -15.588129     5A    -11.401288     6A    -11.364668
       7A    -11.294741     8A    -11.249644     9A    -11.224226
      10A    -11.221330    11A     -1.476033    12A     -1.382453
      13A     -1.371074    14A     -1.241848    15A     -1.073278
      16A     -1.034626    17A     -0.924443    18A     -0.886851
      19A     -0.817563    20A     -0.786396    21A     -0.729893
      22A     -0.713706    23A     -0.684310    24A     -0.662854
      25A     -0.641267    26A     -0.633716    27A     -0.609457
      28A     -0.607175    29A     -0.577889    30A     -0.544896
      31A     -0.542615    32A     -0.527434    33A     -0.521322
      34A     -0.519134    35A     -0.497182    36A     -0.488507
      37A     -0.465382    38A     -0.431825    39A     -0.401737

  @DF-RHF Final Energy:  -512.87991465160042

   => Energetics <=

    Nuclear Repulsion Energy =            547.4791742789514046
    One-Electron Energy =               -1786.9803881469224507
    Two-Electron Energy =                 726.6212992163706303
    Total Energy =                       -512.8799146516004157
  Basis Set: (AUG-CC-PVTZ AUX)
    Blend: AUG-CC-PVTZ-RI
    Molecular point group: c1

    Geometry (in Angstrom), charge = 0, multiplicity = 1:

       Center              X                  Y                   Z               Mass
    ------------   -----------------  -----------------  -----------------  -----------------
         O           -1.971991718267     1.665283346496     0.179332592644    15.994914619570
         O            1.654805281733    -1.194177653504    -0.683228407356    15.994914619570
         O           -3.278385718267    -0.045603653504    -0.520418407356    15.994914619570
         N            0.184580981733     0.289507646496     0.354925792644    14.003074004430
         C           -0.942783718267    -0.486985653504    -0.116429407356    12.000000000000
         C           -1.197406718267    -1.688036653504     0.797279592644    12.000000000000
         C            2.597805281733     0.783999346496     0.361486592644    12.000000000000
         C            1.468888281733    -0.137125653504    -0.072778407356    12.000000000000
         C           -2.185579718267     0.369142346496    -0.187404407356    12.000000000000
         C            3.953040281733     0.286855346496    -0.118290407356    12.000000000000
         H           -0.814747118267    -0.888875653504    -1.129441807356     1.007825032230
         H            0.081074281733     1.194780346496     0.691411592644     1.007825032230
         H           -1.364387718267    -1.351931653504     1.823919592644     1.007825032230
         H           -2.072140718267    -2.244438653504     0.453713592644     1.007825032230
         H           -0.320042718267    -2.334993653504     0.768657592644     1.007825032230
         H            2.393430281733     1.793434346496    -0.021019407356     1.007825032230
         H            2.579669281733     0.861787346496     1.455571592644     1.007825032230
         H            4.158409281733    -0.710882653504     0.275257592644     1.007825032230
         H            3.974944281733     0.222231346496    -1.207624407356     1.007825032230
         H            4.745724281733     0.965037346496     0.210787592644     1.007825032230
         H           -2.845619718267     2.102856346496     0.099403592644     1.007825032230

  Basis Set: AUG-CC-PVTZ
    Blend: AUG-CC-PVTZ
  Basis Set: (AUG-CC-PVTZ AUX)
    Blend: AUG-CC-PVTZ-JKFIT
	 Reference Energy          =    -512.8799146516004157 [Eh]
	 Singles Energy            =      -0.0000000000000000 [Eh]
	 Same-Spin Energy          =      -0.5113327587195966 [Eh]
	 Opposite-Spin Energy      =      -1.6154726539312745 [Eh]
	 Correlation Energy        =      -2.1268054126508709 [Eh]
	 Total Energy              =    -515.0067200642513399 [Eh]

	 ================> DF-SCS-MP2 Energies <==================
	-----------------------------------------------------------
	 SCS Same-Spin Scale       =       0.3333333333333333 [-]
	 SCS Opposite-Spin Scale   =       1.2000000000000000 [-]
	 SCS Same-Spin Energy      =      -0.1704442529065322 [Eh]
	 SCS Opposite-Spin Energy  =      -1.9385671847175292 [Eh]
	 SCS Correlation Energy    =      -2.1090114376240612 [Eh]
	 SCS Total Energy          =    -514.9889260892244920 [Eh]
	-----------------------------------------------------------

  Dipole Moment: [D]
     X:     0.2820      Y:     3.2286      Z:     1.7706     Total:     3.6930

*** Psi4 exiting successfully. Buy a developer a beer!
