                               Psi4 1.3.2 release

  ==> Input File <==

--------------------------------------------------------------------------
#psi4
#
memory 32 gb

molecule  {
0 1
  O       -1.9756670     1.6664010     0.1857370
  O        1.6511300    -1.1930600    -0.6768240
  O       -3.2820610    -0.0444860    -0.5140140
  N        0.2152580     0.2772540     0.2951010
  C       -0.9464590    -0.4858680    -0.1100250
  C       -1.2010820    -1.6869190     0.8036840
  C        2.5941300     0.7851170     0.3678910
  C        1.4535433    -0.1155562    -0.0786072
  C       -2.1892550     0.3702600    -0.1810000
  C        3.9493650     0.2879730    -0.1118860
  H       -0.7666830    -0.8628490    -1.1247510
  H        0.0773990     1.1958980     0.6978160
  H       -1.3680630    -1.3508140     1.8303240
  H       -2.0758160    -2.2433210     0.4601180
  H       -0.3237180    -2.3338760     0.7750620
  H        2.3735626     1.7880721    -0.0225832
  H        2.5759940     0.8629050     1.4619760
  H        4.1547340    -0.7097650     0.2816620
  H        3.9712690     0.2233490    -1.2012200
  H        4.7420490     0.9661550     0.2171920
  H       -2.8492950     2.1039740     0.1058080
units angstrom
no_reorient  #important for SAPT in psi4, default
symmetry c1  #important for SAPT in psi4, default
}

set PROPERTIES_ORIGIN ["COM"]
properties('MP2/aug-cc-pvtz', properties = ['dipole'])
--------------------------------------------------------------------------

    Molecular point group: c1
  Charge       = 0
  Multiplicity = 1
  Basis Set: AUG-CC-PVTZ
    Blend: AUG-CC-PVTZ
  Basis Set: (AUG-CC-PVTZ AUX)
    Blend: AUG-CC-PVTZ-JKFIT

    Orbital Energies [Eh]
    ---------------------

    Doubly Occupied:

       1A    -20.636907     2A    -20.564649     3A    -20.521058
       4A    -15.595335     5A    -11.405678     6A    -11.355507
       7A    -11.297810     8A    -11.247774     9A    -11.227526
      10A    -11.219326    11A     -1.479369    12A     -1.374793
      13A     -1.372622    14A     -1.247843    15A     -1.076040
      16A     -1.036594    17A     -0.928849    18A     -0.886121
      19A     -0.818036    20A     -0.795142    21A     -0.731946
      22A     -0.715421    23A     -0.681852    24A     -0.665999
      25A     -0.641358    26A     -0.633042    27A     -0.611129
      28A     -0.600320    29A     -0.580345    30A     -0.547296
      31A     -0.543902    32A     -0.524323    33A     -0.520194
      34A     -0.517740    35A     -0.498005    36A     -0.486519
      37A     -0.468548    38A     -0.426723    39A     -0.400745

  @DF-RHF Final Energy:  -512.88431056849697

   => Energetics <=

    Nuclear Repulsion Energy =            548.2442713204208076
    One-Electron Energy =               -1788.4923894106466378
    Two-Electron Energy =                 727.3638075217289725
    Total Energy =                       -512.8843105684969714
  Basis Set: (AUG-CC-PVTZ AUX)
    Blend: AUG-CC-PVTZ-RI
    Molecular point group: c1

    Geometry (in Angstrom), charge = 0, multiplicity = 1:

       Center              X                  Y                   Z               Mass
    ------------   -----------------  -----------------  -----------------  -----------------
         O           -1.974589198400     1.664754267120     0.186804428721    15.994914619570
         O            1.652207801600    -1.194706732880    -0.675756571279    15.994914619570
         O           -3.280983198400    -0.046132732880    -0.512946571279    15.994914619570
         N            0.216335801600     0.275607267120     0.296168428721    14.003074004430
         C           -0.945381198400    -0.487514732880    -0.108957571279    12.000000000000
         C           -1.200004198400    -1.688565732880     0.804751428721    12.000000000000
         C            2.595207801600     0.783470267120     0.368958428721    12.000000000000
         C            1.454621101600    -0.117202932880    -0.077539771279    12.000000000000
         C           -2.188177198400     0.368613267120    -0.179932571279    12.000000000000
         C            3.950442801600     0.286326267120    -0.110818571279    12.000000000000
         H           -0.765605198400    -0.864495732880    -1.123683571279     1.007825032230
         H            0.078476801600     1.194251267120     0.698883428721     1.007825032230
         H           -1.366985198400    -1.352460732880     1.831391428721     1.007825032230
         H           -2.074738198400    -2.244967732880     0.461185428721     1.007825032230
         H           -0.322640198400    -2.335522732880     0.776129428721     1.007825032230
         H            2.374640401600     1.786425367120    -0.021515771279     1.007825032230
         H            2.577071801600     0.861258267120     1.463043428721     1.007825032230
         H            4.155811801600    -0.711411732880     0.282729428721     1.007825032230
         H            3.972346801600     0.221702267120    -1.200152571279     1.007825032230
         H            4.743126801600     0.964508267120     0.218259428721     1.007825032230
         H           -2.848217198400     2.102327267120     0.106875428721     1.007825032230

  Basis Set: AUG-CC-PVTZ
    Blend: AUG-CC-PVTZ
  Basis Set: (AUG-CC-PVTZ AUX)
    Blend: AUG-CC-PVTZ-JKFIT
	 Reference Energy          =    -512.8843105684969714 [Eh]
	 Singles Energy            =      -0.0000000000000000 [Eh]
	 Same-Spin Energy          =      -0.5116288261823995 [Eh]
	 Opposite-Spin Energy      =      -1.6154698176392914 [Eh]
	 Correlation Energy        =      -2.1270986438216908 [Eh]
	 Total Energy              =    -515.0114092123186538 [Eh]

	 ================> DF-SCS-MP2 Energies <==================
	-----------------------------------------------------------
	 SCS Same-Spin Scale       =       0.3333333333333333 [-]
	 SCS Opposite-Spin Scale   =       1.2000000000000000 [-]
	 SCS Same-Spin Energy      =      -0.1705429420607998 [Eh]
	 SCS Opposite-Spin Energy  =      -1.9385637811671497 [Eh]
	 SCS Correlation Energy    =      -2.1091067232279497 [Eh]
	 SCS Total Energy          =    -514.9934172917248816 [Eh]
	-----------------------------------------------------------

  Dipole Moment: [D]
     X:    -0.1542      Y:     3.3712      Z:     1.9944     Total:     3.9200

*** Psi4 exiting successfully. Buy a developer a beer!
