                               Psi4 1.4a3.dev225

  ==> Input File <==

--------------------------------------------------------------------------
#psi4
#
memory 32 gb

molecule  {
0 1
  O        2.1858500    -1.4843500     0.4466430
  O       -1.5901990     1.2021140    -0.7742790
  O        3.2899360     0.0893000    -0.7567370
  N       -0.1552130    -0.3501220     0.0655300
  C        0.9973750     0.5138300    -0.1038320
  C        1.1366130     1.5332170     1.0331740
  C       -2.5208420    -0.9251940    -0.0919400
  C       -1.4155747     0.0682316    -0.2873901
  C        2.2713450    -0.2912280    -0.2118740
  C       -3.8280260    -0.2360070     0.2837800
  H        0.8752740     1.0541530    -1.0466610
  H       -0.0274960    -1.2421660     0.5250420
  H        1.2555520     1.0181310     1.9903510
  H        2.0023980     2.1787030     0.8613650
  H        0.2327940     2.1443920     1.0604580
  H       -2.6404080    -1.4674310    -1.0380590
  H       -2.2372030    -1.6677960     0.6628800
  H       -3.7417830     0.2575120     1.2553170
  H       -4.0728600     0.5241080    -0.4590610
  H       -4.6456460    -0.9595500     0.3374610
  H        3.0673500    -1.9023430     0.3513230
units angstrom
no_reorient  #important for SAPT in psi4, default
symmetry c1  #important for SAPT in psi4, default
}

set PROPERTIES_ORIGIN ["COM"]
properties('MP2/aug-cc-pvtz', properties = ['dipole'])
--------------------------------------------------------------------------

    Molecular point group: c1
  Charge       = 0
  Multiplicity = 1
  Basis Set: AUG-CC-PVTZ
    Blend: AUG-CC-PVTZ
  Basis Set: (AUG-CC-PVTZ AUX)
    Blend: AUG-CC-PVTZ-JKFIT

    Orbital Energies [Eh]
    ---------------------

    Doubly Occupied:

       1A    -20.634056     2A    -20.564824     3A    -20.521976
       4A    -15.595521     5A    -11.403691     6A    -11.358602
       7A    -11.296259     8A    -11.248850     9A    -11.232337
      10A    -11.223739    11A     -1.476127    12A     -1.373533
      13A     -1.372069    14A     -1.242216    15A     -1.078634
      16A     -1.038518    17A     -0.927625    18A     -0.889797
      19A     -0.821476    20A     -0.792057    21A     -0.727372
      22A     -0.713994    23A     -0.681428    24A     -0.660060
      25A     -0.643807    26A     -0.634119    27A     -0.610538
      28A     -0.596057    29A     -0.583741    30A     -0.556433
      31A     -0.550101    32A     -0.528049    33A     -0.524410
      34A     -0.513697    35A     -0.497965    36A     -0.486173
      37A     -0.468742    38A     -0.429304    39A     -0.398491

  @DF-RHF Final Energy:  -512.88453218097095

   => Energetics <=

    Nuclear Repulsion Energy =            547.7077061444568926
    One-Electron Energy =               -1787.3916937076662634
    Two-Electron Energy =                 726.7994553822385342
    Total Energy =                       -512.8845321809709503
  Basis Set: (AUG-CC-PVTZ AUX)
    Blend: AUG-CC-PVTZ-RI
    Molecular point group: c1

    Geometry (in Angstrom), charge = 0, multiplicity = 1:

       Center              X                  Y                   Z               Mass
    ------------   -----------------  -----------------  -----------------  -----------------
         O            2.119283162004    -1.483678905296     0.477166654620    15.994914619570
         O           -1.656765837996     1.202785094704    -0.743755345380    15.994914619570
         O            3.223369162004     0.089971094704    -0.726213345380    15.994914619570
         N           -0.221779837996    -0.349450905296     0.096053654620    14.003074004430
         C            0.930808162004     0.514501094704    -0.073308345380    12.000000000000
         C            1.070046162004     1.533888094704     1.063697654620    12.000000000000
         C           -2.587408837996    -0.924522905296    -0.061416345380    12.000000000000
         C           -1.482141537996     0.068902694704    -0.256866445380    12.000000000000
         C            2.204778162004    -0.290556905296    -0.181350345380    12.000000000000
         C           -3.894592837996    -0.235335905296     0.314303654620    12.000000000000
         H            0.808707162004     1.054824094704    -1.016137345380     1.007825032230
         H           -0.094062837996    -1.241494905296     0.555565654620     1.007825032230
         H            1.188985162004     1.018802094704     2.020874654620     1.007825032230
         H            1.935831162004     2.179374094704     0.891888654620     1.007825032230
         H            0.166227162004     2.145063094704     1.090981654620     1.007825032230
         H           -2.706974837996    -1.466759905296    -1.007535345380     1.007825032230
         H           -2.303769837996    -1.667124905296     0.693403654620     1.007825032230
         H           -3.808349837996     0.258183094704     1.285840654620     1.007825032230
         H           -4.139426837996     0.524779094704    -0.428537345380     1.007825032230
         H           -4.712212837996    -0.958878905296     0.367984654620     1.007825032230
         H            3.000783162004    -1.901671905296     0.381846654620     1.007825032230

  Basis Set: AUG-CC-PVTZ
    Blend: AUG-CC-PVTZ
  Basis Set: (AUG-CC-PVTZ AUX)
    Blend: AUG-CC-PVTZ-JKFIT
	 Reference Energy          =    -512.8845321809709503 [Eh]
	 Singles Energy            =      -0.0000000000000000 [Eh]
	 Same-Spin Energy          =      -0.5115629726475265 [Eh]
	 Opposite-Spin Energy      =      -1.6158169897128554 [Eh]
	 Correlation Energy        =      -2.1273799623603820 [Eh]
	 Total Energy              =    -515.0119121433313012 [Eh]

	 ================> DF-SCS-MP2 Energies <==================
	-----------------------------------------------------------
	 SCS Same-Spin Scale       =       0.3333333333333333 [-]
	 SCS Opposite-Spin Scale   =       1.2000000000000000 [-]
	 SCS Same-Spin Energy      =      -0.1705209908825088 [Eh]
	 SCS Opposite-Spin Energy  =      -1.9389803876554264 [Eh]
	 SCS Correlation Energy    =      -2.1095013785379351 [Eh]
	 SCS Total Energy          =    -514.9940335595089209 [Eh]
	-----------------------------------------------------------

  Dipole Moment: [D]
     X:     0.0447      Y:    -3.3452      Z:     2.2985     Total:     4.0590

*** Psi4 exiting successfully. Buy a developer a beer!
