                               Psi4 1.4a3.dev225

  ==> Input File <==

--------------------------------------------------------------------------
#psi4
#
memory 32 gb

molecule  {
0 1
  O        2.1858500    -1.4843500     0.4466430
  O       -1.5901990     1.2021140    -0.7742790
  O        3.2899360     0.0893000    -0.7567370
  N       -0.1552130    -0.3501220     0.0655300
  C        1.0132688     0.5257436    -0.1061674
  C        1.1366130     1.5332170     1.0331740
  C       -2.5208420    -0.9251940    -0.0919400
  C       -1.4008270     0.0814870    -0.2899980
  C        2.2713450    -0.2912280    -0.2118740
  C       -3.8280260    -0.2360070     0.2837800
  H        0.8752740     1.0541530    -1.0466610
  H       -0.0274960    -1.2421660     0.5250420
  H        1.2555520     1.0181310     1.9903510
  H        2.0023980     2.1787030     0.8613650
  H        0.2327940     2.1443920     1.0604580
  H       -2.6404080    -1.4674310    -1.0380590
  H       -2.2372030    -1.6677960     0.6628800
  H       -3.7417830     0.2575120     1.2553170
  H       -4.0728600     0.5241080    -0.4590610
  H       -4.6456460    -0.9595500     0.3374610
  H        3.0673500    -1.9023430     0.3513230
units angstrom
no_reorient  #important for SAPT in psi4, default
symmetry c1  #important for SAPT in psi4, default
}

set PROPERTIES_ORIGIN ["COM"]
properties('MP2/aug-cc-pvtz', properties = ['dipole'])
--------------------------------------------------------------------------

    Molecular point group: c1
  Charge       = 0
  Multiplicity = 1
  Basis Set: AUG-CC-PVTZ
    Blend: AUG-CC-PVTZ
  Basis Set: (AUG-CC-PVTZ AUX)
    Blend: AUG-CC-PVTZ-JKFIT

    Orbital Energies [Eh]
    ---------------------

    Doubly Occupied:

       1A    -20.635195     2A    -20.565497     3A    -20.521700
       4A    -15.595088     5A    -11.404345     6A    -11.356032
       7A    -11.297148     8A    -11.247175     9A    -11.233397
      10A    -11.221987    11A     -1.477152    12A     -1.378160
      13A     -1.373339    14A     -1.241579    15A     -1.076901
      16A     -1.038507    17A     -0.928652    18A     -0.886001
      19A     -0.822330    20A     -0.792768    21A     -0.726541
      22A     -0.714779    23A     -0.678827    24A     -0.661350
      25A     -0.642758    26A     -0.634240    27A     -0.611954
      28A     -0.598826    29A     -0.582874    30A     -0.556086
      31A     -0.552551    32A     -0.528671    33A     -0.522802
      34A     -0.512792    35A     -0.497922    36A     -0.488159
      37A     -0.470103    38A     -0.426587    39A     -0.400725

  @DF-RHF Final Energy:  -512.88597606625831

   => Energetics <=

    Nuclear Repulsion Energy =            547.7176756457147349
    One-Electron Energy =               -1787.4043111893731748
    Two-Electron Energy =                 726.8006594774001314
    Total Energy =                       -512.8859760662583085
  Basis Set: (AUG-CC-PVTZ AUX)
    Blend: AUG-CC-PVTZ-RI
    Molecular point group: c1

    Geometry (in Angstrom), charge = 0, multiplicity = 1:

       Center              X                  Y                   Z               Mass
    ------------   -----------------  -----------------  -----------------  -----------------
         O            2.116748605360    -1.485760796071     0.477575546935    15.994914619570
         O           -1.659300394640     1.200703203929    -0.743346453065    15.994914619570
         O            3.220834605360     0.087889203929    -0.725804453065    15.994914619570
         N           -0.224314394640    -0.351532796071     0.096462546935    14.003074004430
         C            0.944167405360     0.524332803929    -0.075234853065    12.000000000000
         C            1.067511605360     1.531806203929     1.064106546935    12.000000000000
         C           -2.589943394640    -0.926604796071    -0.061007453065    12.000000000000
         C           -1.469928394640     0.080076203929    -0.259065453065    12.000000000000
         C            2.202243605360    -0.292638796071    -0.180941453065    12.000000000000
         C           -3.897127394640    -0.237417796071     0.314712546935    12.000000000000
         H            0.806172605360     1.052742203929    -1.015728453065     1.007825032230
         H           -0.096597394640    -1.243576796071     0.555974546935     1.007825032230
         H            1.186450605360     1.016720203929     2.021283546935     1.007825032230
         H            1.933296605360     2.177292203929     0.892297546935     1.007825032230
         H            0.163692605360     2.142981203929     1.091390546935     1.007825032230
         H           -2.709509394640    -1.468841796071    -1.007126453065     1.007825032230
         H           -2.306304394640    -1.669206796071     0.693812546935     1.007825032230
         H           -3.810884394640     0.256101203929     1.286249546935     1.007825032230
         H           -4.141961394640     0.522697203929    -0.428128453065     1.007825032230
         H           -4.714747394640    -0.960960796071     0.368393546935     1.007825032230
         H            2.998248605360    -1.903753796071     0.382255546935     1.007825032230

  Basis Set: AUG-CC-PVTZ
    Blend: AUG-CC-PVTZ
  Basis Set: (AUG-CC-PVTZ AUX)
    Blend: AUG-CC-PVTZ-JKFIT
	 Reference Energy          =    -512.8859760662583085 [Eh]
	 Singles Energy            =      -0.0000000000000000 [Eh]
	 Same-Spin Energy          =      -0.5111179443478933 [Eh]
	 Opposite-Spin Energy      =      -1.6151434866533418 [Eh]
	 Correlation Energy        =      -2.1262614310012351 [Eh]
	 Total Energy              =    -515.0122374972595480 [Eh]

	 ================> DF-SCS-MP2 Energies <==================
	-----------------------------------------------------------
	 SCS Same-Spin Scale       =       0.3333333333333333 [-]
	 SCS Opposite-Spin Scale   =       1.2000000000000000 [-]
	 SCS Same-Spin Energy      =      -0.1703726481159644 [Eh]
	 SCS Opposite-Spin Energy  =      -1.9381721839840100 [Eh]
	 SCS Correlation Energy    =      -2.1085448320999745 [Eh]
	 SCS Total Energy          =    -514.9945208983582461 [Eh]
	-----------------------------------------------------------

  Dipole Moment: [D]
     X:     0.1949      Y:    -3.2642      Z:     2.3027     Total:     3.9995

*** Psi4 exiting successfully. Buy a developer a beer!
