                               Psi4 1.3.2 release

  ==> Input File <==

--------------------------------------------------------------------------
#psi4
#
memory 32 gb

molecule  {
0 1
  O       -1.9756670     1.6664010     0.1857370
  O        1.6511300    -1.1930600    -0.6768240
  O       -3.2650314    -0.0829865    -0.5192458
  N        0.2152580     0.2772540     0.2951010
  C       -0.9751477    -0.5271995    -0.1258233
  C       -1.2010820    -1.6869190     0.8036840
  C        2.5941300     0.7851170     0.3678910
  C        1.4652130    -0.1360080    -0.0663740
  C       -2.1892550     0.3702600    -0.1810000
  C        3.9493650     0.2879730    -0.1118860
  H       -0.7666830    -0.8628490    -1.1247510
  H        0.0773990     1.1958980     0.6978160
  H       -1.3680630    -1.3508140     1.8303240
  H       -2.0758160    -2.2433210     0.4601180
  H       -0.3237180    -2.3338760     0.7750620
  H        2.3897550     1.7945520    -0.0146150
  H        2.5759940     0.8629050     1.4619760
  H        4.1547340    -0.7097650     0.2816620
  H        3.9712690     0.2233490    -1.2012200
  H        4.7420490     0.9661550     0.2171920
  H       -2.8492950     2.1039740     0.1058080
units angstrom
no_reorient  #important for SAPT in psi4, default
symmetry c1  #important for SAPT in psi4, default
}

set PROPERTIES_ORIGIN ["COM"]
properties('MP2/aug-cc-pvtz', properties = ['dipole'])
--------------------------------------------------------------------------

    Molecular point group: c1
  Charge       = 0
  Multiplicity = 1
  Basis Set: AUG-CC-PVTZ
    Blend: AUG-CC-PVTZ
  Basis Set: (AUG-CC-PVTZ AUX)
    Blend: AUG-CC-PVTZ-JKFIT

    Orbital Energies [Eh]
    ---------------------

    Doubly Occupied:

       1A    -20.641037     2A    -20.564993     3A    -20.521343
       4A    -15.588709     5A    -11.405670     6A    -11.352794
       7A    -11.296241     8A    -11.245401     9A    -11.226020
      10A    -11.217961    11A     -1.479584    12A     -1.378083
      13A     -1.376522    14A     -1.233480    15A     -1.075373
      16A     -1.036884    17A     -0.927573    18A     -0.882484
      19A     -0.818710    20A     -0.787352    21A     -0.727166
      22A     -0.716655    23A     -0.678799    24A     -0.667188
      25A     -0.639818    26A     -0.633819    27A     -0.613024
      28A     -0.601070    29A     -0.578875    30A     -0.549341
      31A     -0.543741    32A     -0.523402    33A     -0.518506
      34A     -0.517648    35A     -0.497605    36A     -0.489223
      37A     -0.467976    38A     -0.425228    39A     -0.399913

  @DF-RHF Final Energy:  -512.88283212406509

   => Energetics <=

    Nuclear Repulsion Energy =            547.8838048376519509
    One-Electron Energy =               -1787.8428483550083001
    Two-Electron Energy =                 727.0762113932912598
    Total Energy =                       -512.8828321240650894
  Basis Set: (AUG-CC-PVTZ AUX)
    Blend: AUG-CC-PVTZ-RI
    Molecular point group: c1

    Geometry (in Angstrom), charge = 0, multiplicity = 1:

       Center              X                  Y                   Z               Mass
    ------------   -----------------  -----------------  -----------------  -----------------
         O           -1.975171509264     1.674064565306     0.187620790923    15.994914619570
         O            1.651625490736    -1.185396434694    -0.674940209077    15.994914619570
         O           -3.264535909264    -0.075322934694    -0.517362009077    15.994914619570
         N            0.215753490736     0.284917565306     0.296984790923    14.003074004430
         C           -0.974652209264    -0.519535934694    -0.123939509077    12.000000000000
         C           -1.200586509264    -1.679255434694     0.805567790923    12.000000000000
         C            2.594625490736     0.792780565306     0.369774790923    12.000000000000
         C            1.465708490736    -0.128344434694    -0.064490209077    12.000000000000
         C           -2.188759509264     0.377923565306    -0.179116209077    12.000000000000
         C            3.949860490736     0.295636565306    -0.110002209077    12.000000000000
         H           -0.766187509264    -0.855185434694    -1.122867209077     1.007825032230
         H            0.077894490736     1.203561565306     0.699699790923     1.007825032230
         H           -1.367567509264    -1.343150434694     1.832207790923     1.007825032230
         H           -2.075320509264    -2.235657434694     0.462001790923     1.007825032230
         H           -0.323222509264    -2.326212434694     0.776945790923     1.007825032230
         H            2.390250490736     1.802215565306    -0.012731209077     1.007825032230
         H            2.576489490736     0.870568565306     1.463859790923     1.007825032230
         H            4.155229490736    -0.702101434694     0.283545790923     1.007825032230
         H            3.971764490736     0.231012565306    -1.199336209077     1.007825032230
         H            4.742544490736     0.973818565306     0.219075790923     1.007825032230
         H           -2.848799509264     2.111637565306     0.107691790923     1.007825032230

  Basis Set: AUG-CC-PVTZ
    Blend: AUG-CC-PVTZ
  Basis Set: (AUG-CC-PVTZ AUX)
    Blend: AUG-CC-PVTZ-JKFIT
	 Reference Energy          =    -512.8828321240650894 [Eh]
	 Singles Energy            =      -0.0000000000000000 [Eh]
	 Same-Spin Energy          =      -0.5112458366141002 [Eh]
	 Opposite-Spin Energy      =      -1.6152032403024694 [Eh]
	 Correlation Energy        =      -2.1264490769165696 [Eh]
	 Total Energy              =    -515.0092812009816043 [Eh]

	 ================> DF-SCS-MP2 Energies <==================
	-----------------------------------------------------------
	 SCS Same-Spin Scale       =       0.3333333333333333 [-]
	 SCS Opposite-Spin Scale   =       1.2000000000000000 [-]
	 SCS Same-Spin Energy      =      -0.1704152788713667 [Eh]
	 SCS Opposite-Spin Energy  =      -1.9382438883629631 [Eh]
	 SCS Correlation Energy    =      -2.1086591672343298 [Eh]
	 SCS Total Energy          =    -514.9914912912994396 [Eh]
	-----------------------------------------------------------

  Dipole Moment: [D]
     X:    -0.2970      Y:     3.3577      Z:     1.9635     Total:     3.9010

*** Psi4 exiting successfully. Buy a developer a beer!
