                               Psi4 1.3.2 release

  ==> Input File <==

--------------------------------------------------------------------------
#psi4
#
memory 32 gb

molecule  {
0 1
  O       -1.9756670     1.6664010     0.1857370
  O        1.6511300    -1.1930600    -0.6768240
  O       -3.2820610    -0.0444860    -0.5140140
  N        0.2152580     0.2772540     0.2951010
  C       -0.9464590    -0.4858680    -0.1100250
  C       -1.2010820    -1.6869190     0.8036840
  C        2.5941300     0.7851170     0.3678910
  C        1.4652130    -0.1360080    -0.0663740
  C       -2.1735944     0.4652952    -0.1541102
  C        3.9493650     0.2879730    -0.1118860
  H       -0.7666830    -0.8628490    -1.1247510
  H        0.0773990     1.1958980     0.6978160
  H       -1.3680630    -1.3508140     1.8303240
  H       -2.0758160    -2.2433210     0.4601180
  H       -0.3237180    -2.3338760     0.7750620
  H        2.3897550     1.7945520    -0.0146150
  H        2.5759940     0.8629050     1.4619760
  H        4.1547340    -0.7097650     0.2816620
  H        3.9712690     0.2233490    -1.2012200
  H        4.7420490     0.9661550     0.2171920
  H       -2.8492950     2.1039740     0.1058080
units angstrom
no_reorient  #important for SAPT in psi4, default
symmetry c1  #important for SAPT in psi4, default
}

set PROPERTIES_ORIGIN ["COM"]
properties('MP2/aug-cc-pvtz', properties = ['dipole'])
--------------------------------------------------------------------------

    Molecular point group: c1
  Charge       = 0
  Multiplicity = 1
  Basis Set: AUG-CC-PVTZ
    Blend: AUG-CC-PVTZ
  Basis Set: (AUG-CC-PVTZ AUX)
    Blend: AUG-CC-PVTZ-JKFIT

    Orbital Energies [Eh]
    ---------------------

    Doubly Occupied:

       1A    -20.664158     2A    -20.547491     3A    -20.524070
       4A    -15.591030     5A    -11.406071     6A    -11.355266
       7A    -11.295396     8A    -11.247507     9A    -11.223061
      10A    -11.219468    11A     -1.527780    12A     -1.379972
      13A     -1.343516    14A     -1.244464    15A     -1.070845
      16A     -1.030149    17A     -0.934393    18A     -0.890491
      19A     -0.833696    20A     -0.798241    21A     -0.739843
      22A     -0.720795    23A     -0.687504    24A     -0.675329
      25A     -0.647228    26A     -0.636393    27A     -0.604146
      28A     -0.594813    29A     -0.580760    30A     -0.543180
      31A     -0.536810    32A     -0.522384    33A     -0.519547
      34A     -0.516291    35A     -0.492555    36A     -0.473031
      37A     -0.456956    38A     -0.427175    39A     -0.398285

  @DF-RHF Final Energy:  -512.87185691551304

   => Energetics <=

    Nuclear Repulsion Energy =            548.2674081874803278
    One-Electron Energy =               -1788.4783489518615625
    Two-Electron Energy =                 727.3390838488680856
    Total Energy =                       -512.8718569155130353
  Basis Set: (AUG-CC-PVTZ AUX)
    Blend: AUG-CC-PVTZ-RI
    Molecular point group: c1

    Geometry (in Angstrom), charge = 0, multiplicity = 1:

       Center              X                  Y                   Z               Mass
    ------------   -----------------  -----------------  -----------------  -----------------
         O           -1.976962352511     1.658539976007     0.183512957452    15.994914619570
         O            1.649834647489    -1.200921023993    -0.679048042548    15.994914619570
         O           -3.283356352511    -0.052347023993    -0.516238042548    15.994914619570
         N            0.213962647489     0.269392976007     0.292876957452    14.003074004430
         C           -0.947754352511    -0.493729023993    -0.112249042548    12.000000000000
         C           -1.202377352511    -1.694780023993     0.801459957452    12.000000000000
         C            2.592834647489     0.777255976007     0.365666957452    12.000000000000
         C            1.463917647489    -0.143869023993    -0.068598042548    12.000000000000
         C           -2.174889752511     0.457434176007    -0.156334242548    12.000000000000
         C            3.948069647489     0.280111976007    -0.114110042548    12.000000000000
         H           -0.767978352511    -0.870710023993    -1.126975042548     1.007825032230
         H            0.076103647489     1.188036976007     0.695591957452     1.007825032230
         H           -1.369358352511    -1.358675023993     1.828099957452     1.007825032230
         H           -2.077111352511    -2.251182023993     0.457893957452     1.007825032230
         H           -0.325013352511    -2.341737023993     0.772837957452     1.007825032230
         H            2.388459647489     1.786690976007    -0.016839042548     1.007825032230
         H            2.574698647489     0.855043976007     1.459751957452     1.007825032230
         H            4.153438647489    -0.717626023993     0.279437957452     1.007825032230
         H            3.969973647489     0.215487976007    -1.203444042548     1.007825032230
         H            4.740753647489     0.958293976007     0.214967957452     1.007825032230
         H           -2.850590352511     2.096112976007     0.103583957452     1.007825032230

  Basis Set: AUG-CC-PVTZ
    Blend: AUG-CC-PVTZ
  Basis Set: (AUG-CC-PVTZ AUX)
    Blend: AUG-CC-PVTZ-JKFIT
	 Reference Energy          =    -512.8718569155130353 [Eh]
	 Singles Energy            =      -0.0000000000000000 [Eh]
	 Same-Spin Energy          =      -0.5118174513834803 [Eh]
	 Opposite-Spin Energy      =      -1.6152974923668326 [Eh]
	 Correlation Energy        =      -2.1271149437503132 [Eh]
	 Total Energy              =    -514.9989718592632926 [Eh]

	 ================> DF-SCS-MP2 Energies <==================
	-----------------------------------------------------------
	 SCS Same-Spin Scale       =       0.3333333333333333 [-]
	 SCS Opposite-Spin Scale   =       1.2000000000000000 [-]
	 SCS Same-Spin Energy      =      -0.1706058171278268 [Eh]
	 SCS Opposite-Spin Energy  =      -1.9383569908401990 [Eh]
	 SCS Correlation Energy    =      -2.1089628079680258 [Eh]
	 SCS Total Energy          =    -514.9808197234810905 [Eh]
	-----------------------------------------------------------

  Dipole Moment: [D]
     X:     0.1168      Y:     4.0289      Z:     2.1627     Total:     4.5742

*** Psi4 exiting successfully. Buy a developer a beer!
