                               Psi4 1.3.2 release

  ==> Input File <==

--------------------------------------------------------------------------
#psi4
#
memory 32 gb

molecule  {
0 1
  O       -1.9756670     1.6664010     0.1857370
  O        1.6511300    -1.1930600    -0.6768240
  O       -3.2820610    -0.0444860    -0.5140140
  N        0.2152580     0.2772540     0.2951010
  C       -0.9464590    -0.4858680    -0.1100250
  C       -1.2010820    -1.6869190     0.8036840
  C        2.5941300     0.7851170     0.3678910
  C        1.4652130    -0.1360080    -0.0663740
  C       -2.1892550     0.3702600    -0.1810000
  C        3.9493650     0.2879730    -0.1118860
  H       -0.7666830    -0.8628490    -1.1247510
  H        0.0773990     1.1958980     0.6978160
  H       -1.3680630    -1.3508140     1.8303240
  H       -2.0758160    -2.2433210     0.4601180
  H       -0.3237180    -2.3338760     0.7750620
  H        2.3897550     1.7945520    -0.0146150
  H        2.5759940     0.8629050     1.4619760
  H        4.1547340    -0.7097650     0.2816620
  H        3.9712690     0.2233490    -1.2012200
  H        4.7420490     0.9661550     0.2171920
  H       -2.7601810     2.0593396     0.1139611
units angstrom
no_reorient  #important for SAPT in psi4, default
symmetry c1  #important for SAPT in psi4, default
}

set PROPERTIES_ORIGIN ["COM"]
properties('MP2/aug-cc-pvtz', properties = ['dipole'])
--------------------------------------------------------------------------

    Molecular point group: c1
  Charge       = 0
  Multiplicity = 1
  Basis Set: AUG-CC-PVTZ
    Blend: AUG-CC-PVTZ
  Basis Set: (AUG-CC-PVTZ AUX)
    Blend: AUG-CC-PVTZ-JKFIT

    Orbital Energies [Eh]
    ---------------------

    Doubly Occupied:

       1A    -20.628975     2A    -20.565911     3A    -20.525091
       4A    -15.593015     5A    -11.406823     6A    -11.356664
       7A    -11.296965     8A    -11.247957     9A    -11.227495
      10A    -11.219816    11A     -1.496946    12A     -1.383234
      13A     -1.381158    14A     -1.246511    15A     -1.076142
      16A     -1.036735    17A     -0.935600    18A     -0.889131
      19A     -0.829211    20A     -0.793772    21A     -0.733336
      22A     -0.724156    23A     -0.684333    24A     -0.667570
      25A     -0.642430    26A     -0.635413    27A     -0.615610
      28A     -0.603697    29A     -0.581655    30A     -0.548042
      31A     -0.545477    32A     -0.524578    33A     -0.521558
      34A     -0.519686    35A     -0.499220    36A     -0.489199
      37A     -0.469513    38A     -0.429334    39A     -0.400935

  @DF-RHF Final Energy:  -512.88148845719206

   => Energetics <=

    Nuclear Repulsion Energy =            548.9059746086671794
    One-Electron Energy =               -1789.6291439056874424
    Two-Electron Energy =                 727.8416808398283138
    Total Energy =                       -512.8814884571920629
  Basis Set: (AUG-CC-PVTZ AUX)
    Blend: AUG-CC-PVTZ-RI
    Molecular point group: c1

    Geometry (in Angstrom), charge = 0, multiplicity = 1:

       Center              X                  Y                   Z               Mass
    ------------   -----------------  -----------------  -----------------  -----------------
         O           -1.976286035926     1.666711026216     0.185680547325    15.994914619570
         O            1.650510964074    -1.192749973784    -0.676880452675    15.994914619570
         O           -3.282680035926    -0.044175973784    -0.514070452675    15.994914619570
         N            0.214638964074     0.277564026216     0.295044547325    14.003074004430
         C           -0.947078035926    -0.485557973784    -0.110081452675    12.000000000000
         C           -1.201701035926    -1.686608973784     0.803627547325    12.000000000000
         C            2.593510964074     0.785427026216     0.367834547325    12.000000000000
         C            1.464593964074    -0.135697973784    -0.066430452675    12.000000000000
         C           -2.189874035926     0.370570026216    -0.181056452675    12.000000000000
         C            3.948745964074     0.288283026216    -0.111942452675    12.000000000000
         H           -0.767302035926    -0.862538973784    -1.124807452675     1.007825032230
         H            0.076779964074     1.196208026216     0.697759547325     1.007825032230
         H           -1.368682035926    -1.350503973784     1.830267547325     1.007825032230
         H           -2.076435035926    -2.243010973784     0.460061547325     1.007825032230
         H           -0.324337035926    -2.333565973784     0.775005547325     1.007825032230
         H            2.389135964074     1.794862026216    -0.014671452675     1.007825032230
         H            2.575374964074     0.863215026216     1.461919547325     1.007825032230
         H            4.154114964074    -0.709454973784     0.281605547325     1.007825032230
         H            3.970649964074     0.223659026216    -1.201276452675     1.007825032230
         H            4.741429964074     0.966465026216     0.217135547325     1.007825032230
         H           -2.760800035926     2.059649626216     0.113904647325     1.007825032230

  Basis Set: AUG-CC-PVTZ
    Blend: AUG-CC-PVTZ
  Basis Set: (AUG-CC-PVTZ AUX)
    Blend: AUG-CC-PVTZ-JKFIT
	 Reference Energy          =    -512.8814884571920629 [Eh]
	 Singles Energy            =      -0.0000000000000000 [Eh]
	 Same-Spin Energy          =      -0.5100778475408634 [Eh]
	 Opposite-Spin Energy      =      -1.6121516801541718 [Eh]
	 Correlation Energy        =      -2.1222295276950351 [Eh]
	 Total Energy              =    -515.0037179848870892 [Eh]

	 ================> DF-SCS-MP2 Energies <==================
	-----------------------------------------------------------
	 SCS Same-Spin Scale       =       0.3333333333333333 [-]
	 SCS Opposite-Spin Scale   =       1.2000000000000000 [-]
	 SCS Same-Spin Energy      =      -0.1700259491802878 [Eh]
	 SCS Opposite-Spin Energy  =      -1.9345820161850060 [Eh]
	 SCS Correlation Energy    =      -2.1046079653652940 [Eh]
	 SCS Total Energy          =    -514.9860964225573525 [Eh]
	-----------------------------------------------------------

  Dipole Moment: [D]
     X:     0.0566      Y:     3.2220      Z:     1.9595     Total:     3.7715

*** Psi4 exiting successfully. Buy a developer a beer!
