                               Psi4 1.3.2 release

  ==> Input File <==

--------------------------------------------------------------------------
#psi4
#
memory 32 gb

molecule  {
0 1
  O       -1.9756670     1.6664010     0.1857370
  O        1.6511300    -1.1930600    -0.6768240
  O       -3.2820610    -0.0444860    -0.5140140
  N        0.2060652     0.2579323     0.2846173
  C       -0.9464590    -0.4858680    -0.1100250
  C       -1.2010820    -1.6869190     0.8036840
  C        2.6115988     0.7686652     0.3565645
  C        1.4652130    -0.1360080    -0.0663740
  C       -2.1892550     0.3702600    -0.1810000
  C        3.9493650     0.2879730    -0.1118860
  H       -0.7666830    -0.8628490    -1.1247510
  H        0.0773990     1.1958980     0.6978160
  H       -1.3680630    -1.3508140     1.8303240
  H       -2.0758160    -2.2433210     0.4601180
  H       -0.3237180    -2.3338760     0.7750620
  H        2.3897550     1.7945520    -0.0146150
  H        2.5759940     0.8629050     1.4619760
  H        4.1547340    -0.7097650     0.2816620
  H        3.9712690     0.2233490    -1.2012200
  H        4.7420490     0.9661550     0.2171920
  H       -2.8492950     2.1039740     0.1058080
units angstrom
no_reorient  #important for SAPT in psi4, default
symmetry c1  #important for SAPT in psi4, default
}

set PROPERTIES_ORIGIN ["COM"]
properties('MP2/aug-cc-pvtz', properties = ['dipole'])
--------------------------------------------------------------------------

    Molecular point group: c1
  Charge       = 0
  Multiplicity = 1
  Basis Set: AUG-CC-PVTZ
    Blend: AUG-CC-PVTZ
  Basis Set: (AUG-CC-PVTZ AUX)
    Blend: AUG-CC-PVTZ-JKFIT

    Orbital Energies [Eh]
    ---------------------

    Doubly Occupied:

       1A    -20.635951     2A    -20.563691     3A    -20.522978
       4A    -15.593343     5A    -11.404766     6A    -11.355837
       7A    -11.295025     8A    -11.250331     9A    -11.226084
      10A    -11.219207    11A     -1.478411    12A     -1.381006
      13A     -1.373443    14A     -1.246952    15A     -1.076087
      16A     -1.037956    17A     -0.928256    18A     -0.886093
      19A     -0.816317    20A     -0.788897    21A     -0.732456
      22A     -0.713754    23A     -0.684908    24A     -0.665290
      25A     -0.640084    26A     -0.633007    27A     -0.610459
      28A     -0.601330    29A     -0.581634    30A     -0.548478
      31A     -0.544192    32A     -0.530811    33A     -0.519778
      34A     -0.518814    35A     -0.495746    36A     -0.485286
      37A     -0.467791    38A     -0.428117    39A     -0.398138

  @DF-RHF Final Energy:  -512.88369690205866

   => Energetics <=

    Nuclear Repulsion Energy =            548.5895384310499594
    One-Electron Energy =               -1789.1850665244651282
    Two-Electron Energy =                 727.7118311913565094
    Total Energy =                       -512.8836969020586594
  Basis Set: (AUG-CC-PVTZ AUX)
    Blend: AUG-CC-PVTZ-RI
    Molecular point group: c1

    Geometry (in Angstrom), charge = 0, multiplicity = 1:

       Center              X                  Y                   Z               Mass
    ------------   -----------------  -----------------  -----------------  -----------------
         O           -1.976224597038     1.669626789487     0.187686000675    15.994914619570
         O            1.650572402962    -1.189834210513    -0.674874999325    15.994914619570
         O           -3.282618597038    -0.041260210513    -0.512064999325    15.994914619570
         N            0.205507602962     0.261158089487     0.286566300675    14.003074004430
         C           -0.947016597038    -0.482642210513    -0.108075999325    12.000000000000
         C           -1.201639597038    -1.683693210513     0.805633000675    12.000000000000
         C            2.611041202962     0.771890989487     0.358513500675    12.000000000000
         C            1.464655402962    -0.132782210513    -0.064424999325    12.000000000000
         C           -2.189812597038     0.373485789487    -0.179050999325    12.000000000000
         C            3.948807402962     0.291198789487    -0.109936999325    12.000000000000
         H           -0.767240597038    -0.859623210513    -1.122801999325     1.007825032230
         H            0.076841402962     1.199123789487     0.699765000675     1.007825032230
         H           -1.368620597038    -1.347588210513     1.832273000675     1.007825032230
         H           -2.076373597038    -2.240095210513     0.462067000675     1.007825032230
         H           -0.324275597038    -2.330650210513     0.777011000675     1.007825032230
         H            2.389197402962     1.797777789487    -0.012665999325     1.007825032230
         H            2.575436402962     0.866130789487     1.463925000675     1.007825032230
         H            4.154176402962    -0.706539210513     0.283611000675     1.007825032230
         H            3.970711402962     0.226574789487    -1.199270999325     1.007825032230
         H            4.741491402962     0.969380789487     0.219141000675     1.007825032230
         H           -2.849852597038     2.107199789487     0.107757000675     1.007825032230

  Basis Set: AUG-CC-PVTZ
    Blend: AUG-CC-PVTZ
  Basis Set: (AUG-CC-PVTZ AUX)
    Blend: AUG-CC-PVTZ-JKFIT
	 Reference Energy          =    -512.8836969020586594 [Eh]
	 Singles Energy            =      -0.0000000000000000 [Eh]
	 Same-Spin Energy          =      -0.5117654227970095 [Eh]
	 Opposite-Spin Energy      =      -1.6153319861243398 [Eh]
	 Correlation Energy        =      -2.1270974089213492 [Eh]
	 Total Energy              =    -515.0107943109800317 [Eh]

	 ================> DF-SCS-MP2 Energies <==================
	-----------------------------------------------------------
	 SCS Same-Spin Scale       =       0.3333333333333333 [-]
	 SCS Opposite-Spin Scale   =       1.2000000000000000 [-]
	 SCS Same-Spin Energy      =      -0.1705884742656698 [Eh]
	 SCS Opposite-Spin Energy  =      -1.9383983833492078 [Eh]
	 SCS Correlation Energy    =      -2.1089868576148776 [Eh]
	 SCS Total Energy          =    -514.9926837596735822 [Eh]
	-----------------------------------------------------------

  Dipole Moment: [D]
     X:     0.0126      Y:     3.3577      Z:     1.9732     Total:     3.8946

*** Psi4 exiting successfully. Buy a developer a beer!
