                               Psi4 1.4a3.dev225

  ==> Input File <==

--------------------------------------------------------------------------
#psi4
#
memory 32 gb

molecule  {
0 1
  O        2.1858500    -1.4843500     0.4466430
  O       -1.5901990     1.2021140    -0.7742790
  O        3.2899360     0.0893000    -0.7567370
  N       -0.1552130    -0.3501220     0.0655300
  C        0.9973750     0.5138300    -0.1038320
  C        1.1366130     1.5332170     1.0331740
  C       -2.5208420    -0.9251940    -0.0919400
  C       -1.3931626     0.0361319    -0.2703977
  C        2.2713450    -0.2912280    -0.2118740
  C       -3.8280260    -0.2360070     0.2837800
  H        0.8752740     1.0541530    -1.0466610
  H       -0.0274960    -1.2421660     0.5250420
  H        1.2555520     1.0181310     1.9903510
  H        2.0023980     2.1787030     0.8613650
  H        0.2327940     2.1443920     1.0604580
  H       -2.6404080    -1.4674310    -1.0380590
  H       -2.2372030    -1.6677960     0.6628800
  H       -3.7417830     0.2575120     1.2553170
  H       -4.0728600     0.5241080    -0.4590610
  H       -4.6456460    -0.9595500     0.3374610
  H        3.0673500    -1.9023430     0.3513230
units angstrom
no_reorient  #important for SAPT in psi4, default
symmetry c1  #important for SAPT in psi4, default
}

set PROPERTIES_ORIGIN ["COM"]
properties('MP2/aug-cc-pvtz', properties = ['dipole'])
--------------------------------------------------------------------------

    Molecular point group: c1
  Charge       = 0
  Multiplicity = 1
  Basis Set: AUG-CC-PVTZ
    Blend: AUG-CC-PVTZ
  Basis Set: (AUG-CC-PVTZ AUX)
    Blend: AUG-CC-PVTZ-JKFIT

    Orbital Energies [Eh]
    ---------------------

    Doubly Occupied:

       1A    -20.636465     2A    -20.567192     3A    -20.512263
       4A    -15.603539     5A    -11.406324     6A    -11.357650
       7A    -11.300044     8A    -11.249328     9A    -11.234411
      10A    -11.223186    11A     -1.478594    12A     -1.374758
      13A     -1.354703    14A     -1.245457    15A     -1.081841
      16A     -1.041911    17A     -0.930963    18A     -0.891706
      19A     -0.824919    20A     -0.799626    21A     -0.731120
      22A     -0.716073    23A     -0.679419    24A     -0.662587
      25A     -0.644406    26A     -0.635264    27A     -0.612151
      28A     -0.589722    29A     -0.581228    30A     -0.556887
      31A     -0.551304    32A     -0.529683    33A     -0.520524
      34A     -0.512153    35A     -0.499206    36A     -0.483279
      37A     -0.469178    38A     -0.423693    39A     -0.397778

  @DF-RHF Final Energy:  -512.87874216144689

   => Energetics <=

    Nuclear Repulsion Energy =            547.7465948373011315
    One-Electron Energy =               -1787.4296019569940199
    Two-Electron Energy =                 726.8042649582458807
    Total Energy =                       -512.8787421614468940
  Basis Set: (AUG-CC-PVTZ AUX)
    Blend: AUG-CC-PVTZ-RI
    Molecular point group: c1

    Geometry (in Angstrom), charge = 0, multiplicity = 1:

       Center              X                  Y                   Z               Mass
    ------------   -----------------  -----------------  -----------------  -----------------
         O            2.117429312259    -1.481023731498     0.475761103315    15.994914619570
         O           -1.658619687741     1.205440268502    -0.745160896685    15.994914619570
         O            3.221515312259     0.092626268502    -0.727618896685    15.994914619570
         N           -0.223633687741    -0.346795731498     0.094648103315    14.003074004430
         C            0.928954312259     0.517156268502    -0.074713896685    12.000000000000
         C            1.068192312259     1.536543268502     1.062292103315    12.000000000000
         C           -2.589262687741    -0.921867731498    -0.062821896685    12.000000000000
         C           -1.461583287741     0.039458168502    -0.241279596685    12.000000000000
         C            2.202924312259    -0.287901731498    -0.182755896685    12.000000000000
         C           -3.896446687741    -0.232680731498     0.312898103315    12.000000000000
         H            0.806853312259     1.057479268502    -1.017542896685     1.007825032230
         H           -0.095916687741    -1.238839731498     0.554160103315     1.007825032230
         H            1.187131312259     1.021457268502     2.019469103315     1.007825032230
         H            1.933977312259     2.182029268502     0.890483103315     1.007825032230
         H            0.164373312259     2.147718268502     1.089576103315     1.007825032230
         H           -2.708828687741    -1.464104731498    -1.008940896685     1.007825032230
         H           -2.305623687741    -1.664469731498     0.691998103315     1.007825032230
         H           -3.810203687741     0.260838268502     1.284435103315     1.007825032230
         H           -4.141280687741     0.527434268502    -0.429942896685     1.007825032230
         H           -4.714066687741    -0.956223731498     0.366579103315     1.007825032230
         H            2.998929312259    -1.899016731498     0.380441103315     1.007825032230

  Basis Set: AUG-CC-PVTZ
    Blend: AUG-CC-PVTZ
  Basis Set: (AUG-CC-PVTZ AUX)
    Blend: AUG-CC-PVTZ-JKFIT
	 Reference Energy          =    -512.8787421614468940 [Eh]
	 Singles Energy            =      -0.0000000000000000 [Eh]
	 Same-Spin Energy          =      -0.5122676229904004 [Eh]
	 Opposite-Spin Energy      =      -1.6171647173619088 [Eh]
	 Correlation Energy        =      -2.1294323403523094 [Eh]
	 Total Energy              =    -515.0081745017992034 [Eh]

	 ================> DF-SCS-MP2 Energies <==================
	-----------------------------------------------------------
	 SCS Same-Spin Scale       =       0.3333333333333333 [-]
	 SCS Opposite-Spin Scale   =       1.2000000000000000 [-]
	 SCS Same-Spin Energy      =      -0.1707558743301335 [Eh]
	 SCS Opposite-Spin Energy  =      -1.9405976608342905 [Eh]
	 SCS Correlation Energy    =      -2.1113535351644241 [Eh]
	 SCS Total Energy          =    -514.9900956966113199 [Eh]
	-----------------------------------------------------------

  Dipole Moment: [D]
     X:     0.3207      Y:    -3.5187      Z:     2.4220     Total:     4.2838

*** Psi4 exiting successfully. Buy a developer a beer!
