                               Psi4 1.3.2 release

  ==> Input File <==

--------------------------------------------------------------------------
#psi4
#
memory 32 gb

molecule  {
0 1
  O       -1.9756670     1.6664010     0.1857370
  O        1.6511300    -1.1930600    -0.6768240
  O       -3.2820610    -0.0444860    -0.5140140
  N        0.2152580     0.2772540     0.2951010
  C       -0.9464590    -0.4858680    -0.1100250
  C       -1.2010820    -1.6869190     0.8036840
  C        2.5941300     0.7851170     0.3678910
  C        1.6137190    -0.0148365    -0.0092476
  C       -2.1892550     0.3702600    -0.1810000
  C        3.9493650     0.2879730    -0.1118860
  H       -0.7666830    -0.8628490    -1.1247510
  H        0.0773990     1.1958980     0.6978160
  H       -1.3680630    -1.3508140     1.8303240
  H       -2.0758160    -2.2433210     0.4601180
  H       -0.3237180    -2.3338760     0.7750620
  H        2.3897550     1.7945520    -0.0146150
  H        2.5759940     0.8629050     1.4619760
  H        4.1547340    -0.7097650     0.2816620
  H        3.9712690     0.2233490    -1.2012200
  H        4.7420490     0.9661550     0.2171920
  H       -2.8492950     2.1039740     0.1058080
units angstrom
no_reorient  #important for SAPT in psi4, default
symmetry c1  #important for SAPT in psi4, default
}

set PROPERTIES_ORIGIN ["COM"]
properties('MP2/aug-cc-pvtz', properties = ['dipole'])
--------------------------------------------------------------------------

    Molecular point group: c1
  Charge       = 0
  Multiplicity = 1
  Basis Set: AUG-CC-PVTZ
    Blend: AUG-CC-PVTZ
  Basis Set: (AUG-CC-PVTZ AUX)
    Blend: AUG-CC-PVTZ-JKFIT

    Orbital Energies [Eh]
    ---------------------

    Doubly Occupied:

       1A    -20.630746     2A    -20.559450     3A    -20.518836
       4A    -15.586923     5A    -11.400462     6A    -11.374098
       7A    -11.292382     8A    -11.254248     9A    -11.232894
      10A    -11.220133    11A     -1.473427    12A     -1.369007
      13A     -1.321487    14A     -1.208674    15A     -1.121202
      16A     -1.033616    17A     -0.934514    18A     -0.907498
      19A     -0.810348    20A     -0.767584    21A     -0.730125
      22A     -0.710280    23A     -0.693748    24A     -0.670914
      25A     -0.655421    26A     -0.624793    27A     -0.606453
      28A     -0.589540    29A     -0.564150    30A     -0.546170
      31A     -0.537583    32A     -0.532298    33A     -0.522825
      34A     -0.520672    35A     -0.493125    36A     -0.462783
      37A     -0.460806    38A     -0.427460    39A     -0.381440

  @DF-RHF Final Energy:  -512.81395641263350

   => Energetics <=

    Nuclear Repulsion Energy =            546.6557579872797987
    One-Electron Energy =               -1785.4432008774829228
    Two-Electron Energy =                 725.9734864775697361
    Total Energy =                       -512.8139564126335017
  Basis Set: (AUG-CC-PVTZ AUX)
    Blend: AUG-CC-PVTZ-RI
    Molecular point group: c1

    Geometry (in Angstrom), charge = 0, multiplicity = 1:

       Center              X                  Y                   Z               Mass
    ------------   -----------------  -----------------  -----------------  -----------------
         O           -1.987950854747     1.656378073592     0.181011892705    15.994914619570
         O            1.638846145253    -1.203082926408    -0.681549107295    15.994914619570
         O           -3.294344854747    -0.054508926408    -0.518739107295    15.994914619570
         N            0.202974145253     0.267231073592     0.290375892705    14.003074004430
         C           -0.958742854747    -0.495890926408    -0.114750107295    12.000000000000
         C           -1.213365854747    -1.696941926408     0.798958892705    12.000000000000
         C            2.581846145253     0.775094073592     0.363165892705    12.000000000000
         C            1.601435145253    -0.024859426408    -0.013972707295    12.000000000000
         C           -2.201538854747     0.360237073592    -0.185725107295    12.000000000000
         C            3.937081145253     0.277950073592    -0.116611107295    12.000000000000
         H           -0.778966854747    -0.872871926408    -1.129476107295     1.007825032230
         H            0.065115145253     1.185875073592     0.693090892705     1.007825032230
         H           -1.380346854747    -1.360836926408     1.825598892705     1.007825032230
         H           -2.088099854747    -2.253343926408     0.455392892705     1.007825032230
         H           -0.336001854747    -2.343898926408     0.770336892705     1.007825032230
         H            2.377471145253     1.784529073592    -0.019340107295     1.007825032230
         H            2.563710145253     0.852882073592     1.457250892705     1.007825032230
         H            4.142450145253    -0.719787926408     0.276936892705     1.007825032230
         H            3.958985145253     0.213326073592    -1.205945107295     1.007825032230
         H            4.729765145253     0.956132073592     0.212466892705     1.007825032230
         H           -2.861578854747     2.093951073592     0.101082892705     1.007825032230

  Basis Set: AUG-CC-PVTZ
    Blend: AUG-CC-PVTZ
  Basis Set: (AUG-CC-PVTZ AUX)
    Blend: AUG-CC-PVTZ-JKFIT
	 Reference Energy          =    -512.8139564126335017 [Eh]
	 Singles Energy            =      -0.0000000000000000 [Eh]
	 Same-Spin Energy          =      -0.5170405545303129 [Eh]
	 Opposite-Spin Energy      =      -1.6255252249822791 [Eh]
	 Correlation Energy        =      -2.1425657795125921 [Eh]
	 Total Energy              =    -514.9565221921460534 [Eh]

	 ================> DF-SCS-MP2 Energies <==================
	-----------------------------------------------------------
	 SCS Same-Spin Scale       =       0.3333333333333333 [-]
	 SCS Opposite-Spin Scale   =       1.2000000000000000 [-]
	 SCS Same-Spin Energy      =      -0.1723468515101043 [Eh]
	 SCS Opposite-Spin Energy  =      -1.9506302699787348 [Eh]
	 SCS Correlation Energy    =      -2.1229771214888391 [Eh]
	 SCS Total Energy          =    -514.9369335341223177 [Eh]
	-----------------------------------------------------------

  Dipole Moment: [D]
     X:     0.9281      Y:     3.7942      Z:     2.1350     Total:     4.4515

*** Psi4 exiting successfully. Buy a developer a beer!
