                               Psi4 1.3.2 release

  ==> Input File <==

--------------------------------------------------------------------------
#psi4
#
memory 32 gb

molecule  {
0 1
  O       -1.9756670     1.6664010     0.1857370
  O        1.6511300    -1.1930600    -0.6768240
  O       -3.2820610    -0.0444860    -0.5140140
  N        0.2152580     0.2772540     0.2951010
  C       -0.9464590    -0.4858680    -0.1100250
  C       -1.2010820    -1.6869190     0.8036840
  C        2.5941300     0.7851170     0.3678910
  C        1.4652130    -0.1360080    -0.0663740
  C       -2.1934465     0.3541118    -0.2583171
  C        3.9493650     0.2879730    -0.1118860
  H       -0.8134220    -0.8342591    -1.1420268
  H        0.0773990     1.1958980     0.6978160
  H       -1.3680630    -1.3508140     1.8303240
  H       -2.0758160    -2.2433210     0.4601180
  H       -0.3237180    -2.3338760     0.7750620
  H        2.3897550     1.7945520    -0.0146150
  H        2.5759940     0.8629050     1.4619760
  H        4.1547340    -0.7097650     0.2816620
  H        3.9712690     0.2233490    -1.2012200
  H        4.7420490     0.9661550     0.2171920
  H       -2.8492950     2.1039740     0.1058080
units angstrom
no_reorient  #important for SAPT in psi4, default
symmetry c1  #important for SAPT in psi4, default
}

set PROPERTIES_ORIGIN ["COM"]
properties('MP2/aug-cc-pvtz', properties = ['dipole'])
--------------------------------------------------------------------------

    Molecular point group: c1
  Charge       = 0
  Multiplicity = 1
  Basis Set: AUG-CC-PVTZ
    Blend: AUG-CC-PVTZ
  Basis Set: (AUG-CC-PVTZ AUX)
    Blend: AUG-CC-PVTZ-JKFIT

    Orbital Energies [Eh]
    ---------------------

    Doubly Occupied:

       1A    -20.624324     2A    -20.570979     3A    -20.523948
       4A    -15.592563     5A    -11.403164     6A    -11.355806
       7A    -11.297301     8A    -11.247223     9A    -11.228516
      10A    -11.219234    11A     -1.473933    12A     -1.381321
      13A     -1.377952    14A     -1.244364    15A     -1.074873
      16A     -1.035945    17A     -0.926799    18A     -0.884438
      19A     -0.808719    20A     -0.789645    21A     -0.729519
      22A     -0.713060    23A     -0.682434    24A     -0.663227
      25A     -0.640314    26A     -0.634240    27A     -0.609849
      28A     -0.600933    29A     -0.580477    30A     -0.547936
      31A     -0.545396    32A     -0.524088    33A     -0.521721
      34A     -0.519033    35A     -0.503102    36A     -0.490395
      37A     -0.465757    38A     -0.428536    39A     -0.401514

  @DF-RHF Final Energy:  -512.88202132216509

   => Energetics <=

    Nuclear Repulsion Energy =            547.9737175498936494
    One-Electron Energy =               -1787.9863148175631977
    Two-Electron Energy =                 727.1305759455045745
    Total Energy =                       -512.8820213221650874
  Basis Set: (AUG-CC-PVTZ AUX)
    Blend: AUG-CC-PVTZ-RI
    Molecular point group: c1

    Geometry (in Angstrom), charge = 0, multiplicity = 1:

       Center              X                  Y                   Z               Mass
    ------------   -----------------  -----------------  -----------------  -----------------
         O           -1.974995562154     1.667538060735     0.192252598718    15.994914619570
         O            1.651801437846    -1.191922939265    -0.670308401282    15.994914619570
         O           -3.281389562154    -0.043348939265    -0.507498401282    15.994914619570
         N            0.215929437846     0.278391060735     0.301616598718    14.003074004430
         C           -0.945787562154    -0.484730939265    -0.103509401282    12.000000000000
         C           -1.200410562154    -1.685781939265     0.810199598718    12.000000000000
         C            2.594801437846     0.786254060735     0.374406598718    12.000000000000
         C            1.465884437846    -0.134870939265    -0.059858401282    12.000000000000
         C           -2.192775062154     0.355248860735    -0.251801501282    12.000000000000
         C            3.950036437846     0.289110060735    -0.105370401282    12.000000000000
         H           -0.812750562154    -0.833122039265    -1.135511201282     1.007825032230
         H            0.078070437846     1.197035060735     0.704331598718     1.007825032230
         H           -1.367391562154    -1.349676939265     1.836839598718     1.007825032230
         H           -2.075144562154    -2.242183939265     0.466633598718     1.007825032230
         H           -0.323046562154    -2.332738939265     0.781577598718     1.007825032230
         H            2.390426437846     1.795689060735    -0.008099401282     1.007825032230
         H            2.576665437846     0.864042060735     1.468491598718     1.007825032230
         H            4.155405437846    -0.708627939265     0.288177598718     1.007825032230
         H            3.971940437846     0.224486060735    -1.194704401282     1.007825032230
         H            4.742720437846     0.967292060735     0.223707598718     1.007825032230
         H           -2.848623562154     2.105111060735     0.112323598718     1.007825032230

  Basis Set: AUG-CC-PVTZ
    Blend: AUG-CC-PVTZ
  Basis Set: (AUG-CC-PVTZ AUX)
    Blend: AUG-CC-PVTZ-JKFIT
	 Reference Energy          =    -512.8820213221650874 [Eh]
	 Singles Energy            =      -0.0000000000000000 [Eh]
	 Same-Spin Energy          =      -0.5111836956277517 [Eh]
	 Opposite-Spin Energy      =      -1.6149032401802677 [Eh]
	 Correlation Energy        =      -2.1260869358080194 [Eh]
	 Total Energy              =    -515.0081082579731628 [Eh]

	 ================> DF-SCS-MP2 Energies <==================
	-----------------------------------------------------------
	 SCS Same-Spin Scale       =       0.3333333333333333 [-]
	 SCS Opposite-Spin Scale   =       1.2000000000000000 [-]
	 SCS Same-Spin Energy      =      -0.1703945652092506 [Eh]
	 SCS Opposite-Spin Energy  =      -1.9378838882163212 [Eh]
	 SCS Correlation Energy    =      -2.1082784534255716 [Eh]
	 SCS Total Energy          =    -514.9902997755906426 [Eh]
	-----------------------------------------------------------

  Dipole Moment: [D]
     X:    -0.1676      Y:     3.0560      Z:     1.7942     Total:     3.5477

*** Psi4 exiting successfully. Buy a developer a beer!
