                               Psi4 1.3.2 release

  ==> Input File <==

--------------------------------------------------------------------------
#psi4
#
memory 32 gb

molecule  {
0 1
  O       -1.9756670     1.6664010     0.1857370
  O        1.6511300    -1.1930600    -0.6768240
  O       -3.2820610    -0.0444860    -0.5140140
  N        0.2152580     0.2772540     0.2951010
  C       -0.9570489    -0.4893078    -0.1174000
  C       -1.2010820    -1.6869190     0.8036840
  C        2.5941300     0.7851170     0.3678910
  C        1.4652130    -0.1360080    -0.0663740
  C       -2.1892550     0.3702600    -0.1810000
  C        3.9493650     0.2879730    -0.1118860
  H       -0.7666830    -0.8628490    -1.1247510
  H        0.0773990     1.1958980     0.6978160
  H       -1.3680630    -1.3508140     1.8303240
  H       -2.0769013    -2.2371165     0.4529653
  H       -0.3237180    -2.3338760     0.7750620
  H        2.3897550     1.7945520    -0.0146150
  H        2.5759940     0.8629050     1.4619760
  H        4.1547340    -0.7097650     0.2816620
  H        3.9712690     0.2233490    -1.2012200
  H        4.7420490     0.9661550     0.2171920
  H       -2.8492950     2.1039740     0.1058080
units angstrom
no_reorient  #important for SAPT in psi4, default
symmetry c1  #important for SAPT in psi4, default
}

set PROPERTIES_ORIGIN ["COM"]
properties('MP2/aug-cc-pvtz', properties = ['dipole'])
--------------------------------------------------------------------------

    Molecular point group: c1
  Charge       = 0
  Multiplicity = 1
  Basis Set: AUG-CC-PVTZ
    Blend: AUG-CC-PVTZ
  Basis Set: (AUG-CC-PVTZ AUX)
    Blend: AUG-CC-PVTZ-JKFIT

    Orbital Energies [Eh]
    ---------------------

    Doubly Occupied:

       1A    -20.636433     2A    -20.563997     3A    -20.523948
       4A    -15.591762     5A    -11.404928     6A    -11.355566
       7A    -11.296468     8A    -11.247170     9A    -11.227439
      10A    -11.219228    11A     -1.478896    12A     -1.379785
      13A     -1.374001    14A     -1.242483    15A     -1.075176
      16A     -1.036147    17A     -0.928216    18A     -0.885113
      19A     -0.816978    20A     -0.791225    21A     -0.730379
      22A     -0.714851    23A     -0.681920    24A     -0.666226
      25A     -0.640956    26A     -0.633295    27A     -0.611412
      28A     -0.602124    29A     -0.579298    30A     -0.547950
      31A     -0.544097    32A     -0.522840    33A     -0.521138
      34A     -0.519014    35A     -0.497485    36A     -0.488359
      37A     -0.468964    38A     -0.428151    39A     -0.400094

  @DF-RHF Final Energy:  -512.88584628740603

   => Energetics <=

    Nuclear Repulsion Energy =            548.1113201874701417
    One-Electron Energy =               -1788.2473121552811790
    Two-Electron Energy =                 727.2501456804051259
    Total Energy =                       -512.8858462874060251
  Basis Set: (AUG-CC-PVTZ AUX)
    Blend: AUG-CC-PVTZ-RI
    Molecular point group: c1

    Geometry (in Angstrom), charge = 0, multiplicity = 1:

       Center              X                  Y                   Z               Mass
    ------------   -----------------  -----------------  -----------------  -----------------
         O           -1.974783464322     1.666642377642     0.186396910318    15.994914619570
         O            1.652013535678    -1.192818622358    -0.676164089682    15.994914619570
         O           -3.281177464322    -0.044244622358    -0.513354089682    15.994914619570
         N            0.216141535678     0.277495377642     0.295760910318    14.003074004430
         C           -0.956165364322    -0.489066422358    -0.116740089682    12.000000000000
         C           -1.200198464322    -1.686677622358     0.804343910318    12.000000000000
         C            2.595013535678     0.785358377642     0.368550910318    12.000000000000
         C            1.466096535678    -0.135766622358    -0.065714089682    12.000000000000
         C           -2.188371464322     0.370501377642    -0.180340089682    12.000000000000
         C            3.950248535678     0.288214377642    -0.111226089682    12.000000000000
         H           -0.765799464322    -0.862607622358    -1.124091089682     1.007825032230
         H            0.078282535678     1.196139377642     0.698475910318     1.007825032230
         H           -1.367179464322    -1.350572622358     1.830983910318     1.007825032230
         H           -2.076017764322    -2.236875122358     0.453625210318     1.007825032230
         H           -0.322834464322    -2.333634622358     0.775721910318     1.007825032230
         H            2.390638535678     1.794793377642    -0.013955089682     1.007825032230
         H            2.576877535678     0.863146377642     1.462635910318     1.007825032230
         H            4.155617535678    -0.709523622358     0.282321910318     1.007825032230
         H            3.972152535678     0.223590377642    -1.200560089682     1.007825032230
         H            4.742932535678     0.966396377642     0.217851910318     1.007825032230
         H           -2.848411464322     2.104215377642     0.106467910318     1.007825032230

  Basis Set: AUG-CC-PVTZ
    Blend: AUG-CC-PVTZ
  Basis Set: (AUG-CC-PVTZ AUX)
    Blend: AUG-CC-PVTZ-JKFIT
	 Reference Energy          =    -512.8858462874060251 [Eh]
	 Singles Energy            =      -0.0000000000000000 [Eh]
	 Same-Spin Energy          =      -0.5113104542233874 [Eh]
	 Opposite-Spin Energy      =      -1.6149704099917357 [Eh]
	 Correlation Energy        =      -2.1262808642151230 [Eh]
	 Total Energy              =    -515.0121271516211436 [Eh]

	 ================> DF-SCS-MP2 Energies <==================
	-----------------------------------------------------------
	 SCS Same-Spin Scale       =       0.3333333333333333 [-]
	 SCS Opposite-Spin Scale   =       1.2000000000000000 [-]
	 SCS Same-Spin Energy      =      -0.1704368180744625 [Eh]
	 SCS Opposite-Spin Energy  =      -1.9379644919900827 [Eh]
	 SCS Correlation Energy    =      -2.1084013100645453 [Eh]
	 SCS Total Energy          =    -514.9942475974705758 [Eh]
	-----------------------------------------------------------

  Dipole Moment: [D]
     X:    -0.0817      Y:     3.3058      Z:     1.9553     Total:     3.8416

*** Psi4 exiting successfully. Buy a developer a beer!
