                               Psi4 1.3.2 release

  ==> Input File <==

--------------------------------------------------------------------------
#psi4
#
memory 32 gb

molecule  {
0 1
  O       -1.9756670     1.6664010     0.1857370
  O        1.6723153    -1.1891126    -0.6768269
  O       -3.2820610    -0.0444860    -0.5140140
  N        0.2247838     0.2967250     0.3049945
  C       -0.9464590    -0.4858680    -0.1100250
  C       -1.2010820    -1.6869190     0.8036840
  C        2.5941300     0.7851170     0.3678910
  C        1.4652130    -0.1360080    -0.0663740
  C       -2.1892550     0.3702600    -0.1810000
  C        3.9493650     0.2879730    -0.1118860
  H       -0.7666830    -0.8628490    -1.1247510
  H        0.0773990     1.1958980     0.6978160
  H       -1.3680630    -1.3508140     1.8303240
  H       -2.0758160    -2.2433210     0.4601180
  H       -0.3237180    -2.3338760     0.7750620
  H        2.3897550     1.7945520    -0.0146150
  H        2.5759940     0.8629050     1.4619760
  H        4.1547340    -0.7097650     0.2816620
  H        3.9712690     0.2233490    -1.2012200
  H        4.7420490     0.9661550     0.2171920
  H       -2.8492950     2.1039740     0.1058080
units angstrom
no_reorient  #important for SAPT in psi4, default
symmetry c1  #important for SAPT in psi4, default
}

set PROPERTIES_ORIGIN ["COM"]
properties('MP2/aug-cc-pvtz', properties = ['dipole'])
--------------------------------------------------------------------------

    Molecular point group: c1
  Charge       = 0
  Multiplicity = 1
  Basis Set: AUG-CC-PVTZ
    Blend: AUG-CC-PVTZ
  Basis Set: (AUG-CC-PVTZ AUX)
    Blend: AUG-CC-PVTZ-JKFIT

    Orbital Energies [Eh]
    ---------------------

    Doubly Occupied:

       1A    -20.636486     2A    -20.564451     3A    -20.525819
       4A    -15.592766     5A    -11.405391     6A    -11.356433
       7A    -11.298820     8A    -11.245169     9A    -11.228350
      10A    -11.217983    11A     -1.478961    12A     -1.380059
      13A     -1.374145    14A     -1.245373    15A     -1.074558
      16A     -1.035744    17A     -0.928040    18A     -0.884336
      19A     -0.818472    20A     -0.795265    21A     -0.728807
      22A     -0.715824    23A     -0.681291    24A     -0.666416
      25A     -0.640530    26A     -0.633826    27A     -0.611175
      28A     -0.604132    29A     -0.580353    30A     -0.547156
      31A     -0.544447    32A     -0.522199    33A     -0.520948
      34A     -0.517978    35A     -0.497231    36A     -0.488400
      37A     -0.468510    38A     -0.428064    39A     -0.403100

  @DF-RHF Final Energy:  -512.88536489936780

   => Energetics <=

    Nuclear Repulsion Energy =            547.7782979675585011
    One-Electron Energy =               -1787.5533115427474513
    Two-Electron Energy =                 726.8896486758211495
    Total Energy =                       -512.8853648993678007
  Basis Set: (AUG-CC-PVTZ AUX)
    Blend: AUG-CC-PVTZ-RI
    Molecular point group: c1

    Geometry (in Angstrom), charge = 0, multiplicity = 1:

       Center              X                  Y                   Z               Mass
    ------------   -----------------  -----------------  -----------------  -----------------
         O           -1.978922183744     1.664086323473     0.184782548889    15.994914619570
         O            1.669060116256    -1.191427276527    -0.677781351111    15.994914619570
         O           -3.285316183744    -0.046800676527    -0.514968451111    15.994914619570
         N            0.221528616256     0.294410323473     0.304040048889    14.003074004430
         C           -0.949714183744    -0.488182676527    -0.110979451111    12.000000000000
         C           -1.204337183744    -1.689233676527     0.802729548889    12.000000000000
         C            2.590874816256     0.782802323473     0.366936548889    12.000000000000
         C            1.461957816256    -0.138322676527    -0.067328451111    12.000000000000
         C           -2.192510183744     0.367945323473    -0.181954451111    12.000000000000
         C            3.946109816256     0.285658323473    -0.112840451111    12.000000000000
         H           -0.769938183744    -0.865163676527    -1.125705451111     1.007825032230
         H            0.074143816256     1.193583323473     0.696861548889     1.007825032230
         H           -1.371318183744    -1.353128676527     1.829369548889     1.007825032230
         H           -2.079071183744    -2.245635676527     0.459163548889     1.007825032230
         H           -0.326973183744    -2.336190676527     0.774107548889     1.007825032230
         H            2.386499816256     1.792237323473    -0.015569451111     1.007825032230
         H            2.572738816256     0.860590323473     1.461021548889     1.007825032230
         H            4.151478816256    -0.712079676527     0.280707548889     1.007825032230
         H            3.968013816256     0.221034323473    -1.202174451111     1.007825032230
         H            4.738793816256     0.963840323473     0.216237548889     1.007825032230
         H           -2.852550183744     2.101659323473     0.104853548889     1.007825032230

  Basis Set: AUG-CC-PVTZ
    Blend: AUG-CC-PVTZ
  Basis Set: (AUG-CC-PVTZ AUX)
    Blend: AUG-CC-PVTZ-JKFIT
	 Reference Energy          =    -512.8853648993678007 [Eh]
	 Singles Energy            =      -0.0000000000000000 [Eh]
	 Same-Spin Energy          =      -0.5111488693198508 [Eh]
	 Opposite-Spin Energy      =      -1.6148096489335917 [Eh]
	 Correlation Energy        =      -2.1259585182534426 [Eh]
	 Total Energy              =    -515.0113234176212700 [Eh]

	 ================> DF-SCS-MP2 Energies <==================
	-----------------------------------------------------------
	 SCS Same-Spin Scale       =       0.3333333333333333 [-]
	 SCS Opposite-Spin Scale   =       1.2000000000000000 [-]
	 SCS Same-Spin Energy      =      -0.1703829564399503 [Eh]
	 SCS Opposite-Spin Energy  =      -1.9377715787203100 [Eh]
	 SCS Correlation Energy    =      -2.1081545351602604 [Eh]
	 SCS Total Energy          =    -514.9935194345280252 [Eh]
	-----------------------------------------------------------

  Dipole Moment: [D]
     X:    -0.1636      Y:     3.2516      Z:     1.9445     Total:     3.7922

*** Psi4 exiting successfully. Buy a developer a beer!
