                               Psi4 1.4a3.dev225

  ==> Input File <==

--------------------------------------------------------------------------
#psi4
#
memory 32 gb

molecule  {
0 1
  O        2.1858500    -1.4843500     0.4466430
  O       -1.5901990     1.2021140    -0.7742790
  O        3.2899360     0.0893000    -0.7567370
  N       -0.1552130    -0.3501220     0.0655300
  C        0.9973750     0.5138300    -0.1038320
  C        1.1366130     1.5332170     1.0331740
  C       -2.5208420    -0.9251940    -0.0919400
  C       -1.3860793     0.0947424    -0.2926059
  C        2.2713450    -0.2912280    -0.2118740
  C       -3.8280260    -0.2360070     0.2837800
  H        0.8752740     1.0541530    -1.0466610
  H       -0.0274960    -1.2421660     0.5250420
  H        1.2555520     1.0181310     1.9903510
  H        2.0023980     2.1787030     0.8613650
  H        0.2327940     2.1443920     1.0604580
  H       -2.6404080    -1.4674310    -1.0380590
  H       -2.2372030    -1.6677960     0.6628800
  H       -3.7417830     0.2575120     1.2553170
  H       -4.0728600     0.5241080    -0.4590610
  H       -4.6456460    -0.9595500     0.3374610
  H        3.0673500    -1.9023430     0.3513230
units angstrom
no_reorient  #important for SAPT in psi4, default
symmetry c1  #important for SAPT in psi4, default
}

set PROPERTIES_ORIGIN ["COM"]
properties('MP2/aug-cc-pvtz', properties = ['dipole'])
--------------------------------------------------------------------------

    Molecular point group: c1
  Charge       = 0
  Multiplicity = 1
  Basis Set: AUG-CC-PVTZ
    Blend: AUG-CC-PVTZ
  Basis Set: (AUG-CC-PVTZ AUX)
    Blend: AUG-CC-PVTZ-JKFIT

    Orbital Energies [Eh]
    ---------------------

    Doubly Occupied:

       1A    -20.635022     2A    -20.565588     3A    -20.523383
       4A    -15.596400     5A    -11.404442     6A    -11.355338
       7A    -11.296942     8A    -11.246528     9A    -11.233625
      10A    -11.221084    11A     -1.477040    12A     -1.385758
      13A     -1.373190    14A     -1.249832    15A     -1.074219
      16A     -1.036242    17A     -0.928359    18A     -0.883365
      19A     -0.822937    20A     -0.797119    21A     -0.727887
      22A     -0.715013    23A     -0.679578    24A     -0.661008
      25A     -0.642149    26A     -0.634695    27A     -0.611206
      28A     -0.601761    29A     -0.585081    30A     -0.556536
      31A     -0.551538    32A     -0.528320    33A     -0.523132
      34A     -0.513025    35A     -0.497914    36A     -0.488710
      37A     -0.470029    38A     -0.425448    39A     -0.402282

  @DF-RHF Final Energy:  -512.88694357987947

   => Energetics <=

    Nuclear Repulsion Energy =            548.0700202964537766
    One-Electron Energy =               -1788.0704771419173085
    Two-Electron Energy =                 727.1135132655840607
    Total Energy =                       -512.8869435798794711
  Basis Set: (AUG-CC-PVTZ AUX)
    Blend: AUG-CC-PVTZ-RI
    Molecular point group: c1

    Geometry (in Angstrom), charge = 0, multiplicity = 1:

       Center              X                  Y                   Z               Mass
    ------------   -----------------  -----------------  -----------------  -----------------
         O            2.116843406703    -1.485871785028     0.477598087173    15.994914619570
         O           -1.659205593297     1.200592214972    -0.743323912827    15.994914619570
         O            3.220929406703     0.087778214972    -0.725781912827    15.994914619570
         N           -0.224219593297    -0.351643785028     0.096485087173    14.003074004430
         C            0.928368406703     0.512308214972    -0.072876912827    12.000000000000
         C            1.067606406703     1.531695214972     1.064129087173    12.000000000000
         C           -2.589848593297    -0.926715785028    -0.060984912827    12.000000000000
         C           -1.455085893297     0.093220614972    -0.261650812827    12.000000000000
         C            2.202338406703    -0.292749785028    -0.180918912827    12.000000000000
         C           -3.897032593297    -0.237528785028     0.314735087173    12.000000000000
         H            0.806267406703     1.052631214972    -1.015705912827     1.007825032230
         H           -0.096502593297    -1.243687785028     0.555997087173     1.007825032230
         H            1.186545406703     1.016609214972     2.021306087173     1.007825032230
         H            1.933391406703     2.177181214972     0.892320087173     1.007825032230
         H            0.163787406703     2.142870214972     1.091413087173     1.007825032230
         H           -2.709414593297    -1.468952785028    -1.007103912827     1.007825032230
         H           -2.306209593297    -1.669317785028     0.693835087173     1.007825032230
         H           -3.810789593297     0.255990214972     1.286272087173     1.007825032230
         H           -4.141866593297     0.522586214972    -0.428105912827     1.007825032230
         H           -4.714652593297    -0.961071785028     0.368416087173     1.007825032230
         H            2.998343406703    -1.903864785028     0.382278087173     1.007825032230

  Basis Set: AUG-CC-PVTZ
    Blend: AUG-CC-PVTZ
  Basis Set: (AUG-CC-PVTZ AUX)
    Blend: AUG-CC-PVTZ-JKFIT
	 Reference Energy          =    -512.8869435798794711 [Eh]
	 Singles Energy            =      -0.0000000000000000 [Eh]
	 Same-Spin Energy          =      -0.5108848478635178 [Eh]
	 Opposite-Spin Energy      =      -1.6145326174183685 [Eh]
	 Correlation Energy        =      -2.1254174652818865 [Eh]
	 Total Energy              =    -515.0123610451613558 [Eh]

	 ================> DF-SCS-MP2 Energies <==================
	-----------------------------------------------------------
	 SCS Same-Spin Scale       =       0.3333333333333333 [-]
	 SCS Opposite-Spin Scale   =       1.2000000000000000 [-]
	 SCS Same-Spin Energy      =      -0.1702949492878393 [Eh]
	 SCS Opposite-Spin Energy  =      -1.9374391409020422 [Eh]
	 SCS Correlation Energy    =      -2.1077340901898816 [Eh]
	 SCS Total Energy          =    -514.9946776700693363 [Eh]
	-----------------------------------------------------------

  Dipole Moment: [D]
     X:     0.2294      Y:    -3.2303      Z:     2.2839     Total:     3.9628

*** Psi4 exiting successfully. Buy a developer a beer!
