                               Psi4 1.3.2 release

  ==> Input File <==

--------------------------------------------------------------------------
#psi4
#
memory 32 gb

molecule  {
0 1
  O       -1.9756670     1.6664010     0.1857370
  O        1.6511300    -1.1930600    -0.6768240
  O       -3.2820610    -0.0444860    -0.5140140
  N        0.2152580     0.2772540     0.2951010
  C       -0.9464590    -0.4858680    -0.1100250
  C       -1.2010820    -1.6869190     0.8036840
  C        2.5941300     0.7851170     0.3678910
  C        1.4652130    -0.1360080    -0.0663740
  C       -2.1199951     0.3574862    -0.1692403
  C        3.9493650     0.2879730    -0.1118860
  H       -0.7666830    -0.8628490    -1.1247510
  H        0.0773990     1.1958980     0.6978160
  H       -1.3680630    -1.3508140     1.8303240
  H       -2.0758160    -2.2433210     0.4601180
  H       -0.3237180    -2.3338760     0.7750620
  H        2.3897550     1.7945520    -0.0146150
  H        2.5759940     0.8629050     1.4619760
  H        4.1547340    -0.7097650     0.2816620
  H        3.9712690     0.2233490    -1.2012200
  H        4.7420490     0.9661550     0.2171920
  H       -2.8273216     2.1476744     0.1213551
units angstrom
no_reorient  #important for SAPT in psi4, default
symmetry c1  #important for SAPT in psi4, default
}

set PROPERTIES_ORIGIN ["COM"]
properties('MP2/aug-cc-pvtz', properties = ['dipole'])
--------------------------------------------------------------------------

    Molecular point group: c1
  Charge       = 0
  Multiplicity = 1
  Basis Set: AUG-CC-PVTZ
    Blend: AUG-CC-PVTZ
  Basis Set: (AUG-CC-PVTZ AUX)
    Blend: AUG-CC-PVTZ-JKFIT

    Orbital Energies [Eh]
    ---------------------

    Doubly Occupied:

       1A    -20.636552     2A    -20.553638     3A    -20.527526
       4A    -15.595764     5A    -11.411107     6A    -11.358882
       7A    -11.299111     8A    -11.249530     9A    -11.231338
      10A    -11.221044    11A     -1.467386    12A     -1.383610
      13A     -1.336782    14A     -1.251594    15A     -1.083865
      16A     -1.042130    17A     -0.939376    18A     -0.889737
      19A     -0.825590    20A     -0.795026    21A     -0.736186
      22A     -0.703983    23A     -0.685555    24A     -0.665672
      25A     -0.642264    26A     -0.627873    27A     -0.605384
      28A     -0.597655    29A     -0.582597    30A     -0.550477
      31A     -0.544922    32A     -0.525917    33A     -0.522591
      34A     -0.521052    35A     -0.495492    36A     -0.472647
      37A     -0.463772    38A     -0.431431    39A     -0.403764

  @DF-RHF Final Energy:  -512.87102814838943

   => Energetics <=

    Nuclear Repulsion Energy =            548.4641399192084918
    One-Electron Energy =               -1788.9126953213744855
    Two-Electron Energy =                 727.5775272537765659
    Total Energy =                       -512.8710281483894278
  Basis Set: (AUG-CC-PVTZ AUX)
    Blend: AUG-CC-PVTZ-RI
    Molecular point group: c1

    Geometry (in Angstrom), charge = 0, multiplicity = 1:

       Center              X                  Y                   Z               Mass
    ------------   -----------------  -----------------  -----------------  -----------------
         O           -1.981548545987     1.667153969988     0.184656460530    15.994914619570
         O            1.645248454013    -1.192307030012    -0.677904539470    15.994914619570
         O           -3.287942545987    -0.043733030012    -0.515094539470    15.994914619570
         N            0.209376454013     0.278006969988     0.294020460530    14.003074004430
         C           -0.952340545987    -0.485115030012    -0.111105539470    12.000000000000
         C           -1.206963545987    -1.686166030012     0.802603460530    12.000000000000
         C            2.588248454013     0.785869969988     0.366810460530    12.000000000000
         C            1.459331454013    -0.135255030012    -0.067454539470    12.000000000000
         C           -2.125876645987     0.358239169988    -0.170320839470    12.000000000000
         C            3.943483454013     0.288725969988    -0.112966539470    12.000000000000
         H           -0.772564545987    -0.862096030012    -1.125831539470     1.007825032230
         H            0.071517454013     1.196650969988     0.696735460530     1.007825032230
         H           -1.373944545987    -1.350061030012     1.829243460530     1.007825032230
         H           -2.081697545987    -2.242568030012     0.459037460530     1.007825032230
         H           -0.329599545987    -2.333123030012     0.773981460530     1.007825032230
         H            2.383873454013     1.795304969988    -0.015695539470     1.007825032230
         H            2.570112454013     0.863657969988     1.460895460530     1.007825032230
         H            4.148852454013    -0.709012030012     0.280581460530     1.007825032230
         H            3.965387454013     0.224101969988    -1.202300539470     1.007825032230
         H            4.736167454013     0.966907969988     0.216111460530     1.007825032230
         H           -2.833203145987     2.148427369988     0.120274560530     1.007825032230

  Basis Set: AUG-CC-PVTZ
    Blend: AUG-CC-PVTZ
  Basis Set: (AUG-CC-PVTZ AUX)
    Blend: AUG-CC-PVTZ-JKFIT
	 Reference Energy          =    -512.8710281483894278 [Eh]
	 Singles Energy            =      -0.0000000000000000 [Eh]
	 Same-Spin Energy          =      -0.5130787691541862 [Eh]
	 Opposite-Spin Energy      =      -1.6182022276112793 [Eh]
	 Correlation Energy        =      -2.1312809967654656 [Eh]
	 Total Energy              =    -515.0023091451548680 [Eh]

	 ================> DF-SCS-MP2 Energies <==================
	-----------------------------------------------------------
	 SCS Same-Spin Scale       =       0.3333333333333333 [-]
	 SCS Opposite-Spin Scale   =       1.2000000000000000 [-]
	 SCS Same-Spin Energy      =      -0.1710262563847287 [Eh]
	 SCS Opposite-Spin Energy  =      -1.9418426731335350 [Eh]
	 SCS Correlation Energy    =      -2.1128689295182639 [Eh]
	 SCS Total Energy          =    -514.9838970779077272 [Eh]
	-----------------------------------------------------------

  Dipole Moment: [D]
     X:     0.3893      Y:     3.3303      Z:     2.0754     Total:     3.9433

*** Psi4 exiting successfully. Buy a developer a beer!
