                               Psi4 1.3.2 release

  ==> Input File <==

--------------------------------------------------------------------------
#psi4
#
memory 32 gb

molecule  {
0 1
  O       -1.9756670     1.6664010     0.1857370
  O        1.6511300    -1.1930600    -0.6768240
  O       -3.2820610    -0.0444860    -0.5140140
  N        0.2152580     0.2772540     0.2951010
  C       -0.9312573    -0.5045967    -0.1175499
  C       -1.2010820    -1.6869190     0.8036840
  C        2.5941300     0.7851170     0.3678910
  C        1.4652130    -0.1360080    -0.0663740
  C       -2.1892550     0.3702600    -0.1810000
  C        3.9493650     0.2879730    -0.1118860
  H       -0.7666830    -0.8628490    -1.1247510
  H        0.0949027     1.1975976     0.6995433
  H       -1.3680630    -1.3508140     1.8303240
  H       -2.0758160    -2.2433210     0.4601180
  H       -0.3237180    -2.3338760     0.7750620
  H        2.3897550     1.7945520    -0.0146150
  H        2.5759940     0.8629050     1.4619760
  H        4.1547340    -0.7097650     0.2816620
  H        3.9712690     0.2233490    -1.2012200
  H        4.7420490     0.9661550     0.2171920
  H       -2.8492950     2.1039740     0.1058080
units angstrom
no_reorient  #important for SAPT in psi4, default
symmetry c1  #important for SAPT in psi4, default
}

set PROPERTIES_ORIGIN ["COM"]
properties('MP2/aug-cc-pvtz', properties = ['dipole'])
--------------------------------------------------------------------------

    Molecular point group: c1
  Charge       = 0
  Multiplicity = 1
  Basis Set: AUG-CC-PVTZ
    Blend: AUG-CC-PVTZ
  Basis Set: (AUG-CC-PVTZ AUX)
    Blend: AUG-CC-PVTZ-JKFIT

    Orbital Energies [Eh]
    ---------------------

    Doubly Occupied:

       1A    -20.635550     2A    -20.563442     3A    -20.524361
       4A    -15.592274     5A    -11.404393     6A    -11.355408
       7A    -11.296966     8A    -11.247516     9A    -11.226220
      10A    -11.219511    11A     -1.477341    12A     -1.380749
      13A     -1.372829    14A     -1.245210    15A     -1.074641
      16A     -1.035425    17A     -0.925523    18A     -0.884022
      19A     -0.818561    20A     -0.790829    21A     -0.729275
      22A     -0.714099    23A     -0.683156    24A     -0.665107
      25A     -0.641162    26A     -0.634660    27A     -0.609222
      28A     -0.603282    29A     -0.582807    30A     -0.546599
      31A     -0.542387    32A     -0.524431    33A     -0.522065
      34A     -0.519372    35A     -0.497235    36A     -0.489086
      37A     -0.465384    38A     -0.428406    39A     -0.400914

  @DF-RHF Final Energy:  -512.88565046931603

   => Energetics <=

    Nuclear Repulsion Energy =            548.0525996132843147
    One-Electron Energy =               -1788.1376679423697169
    Two-Electron Energy =                 727.1994178597694827
    Total Energy =                       -512.8856504693160332
  Basis Set: (AUG-CC-PVTZ AUX)
    Blend: AUG-CC-PVTZ-RI
    Molecular point group: c1

    Geometry (in Angstrom), charge = 0, multiplicity = 1:

       Center              X                  Y                   Z               Mass
    ------------   -----------------  -----------------  -----------------  -----------------
         O           -1.977045991729     1.667938316882     0.186347620359    15.994914619570
         O            1.649751008271    -1.191522683118    -0.676213379641    15.994914619570
         O           -3.283439991729    -0.042948683118    -0.513403379641    15.994914619570
         N            0.213879008271     0.278791316882     0.295711620359    14.003074004430
         C           -0.932636291729    -0.503059383118    -0.116939279641    12.000000000000
         C           -1.202460991729    -1.685381683118     0.804294620359    12.000000000000
         C            2.592751008271     0.786654316882     0.368501620359    12.000000000000
         C            1.463834008271    -0.134470683118    -0.065763379641    12.000000000000
         C           -2.190633991729     0.371797316882    -0.180389379641    12.000000000000
         C            3.947986008271     0.289510316882    -0.111275379641    12.000000000000
         H           -0.768061991729    -0.861311683118    -1.124140379641     1.007825032230
         H            0.093523708271     1.199134916882     0.700153920359     1.007825032230
         H           -1.369441991729    -1.349276683118     1.830934620359     1.007825032230
         H           -2.077194991729    -2.241783683118     0.460728620359     1.007825032230
         H           -0.325096991729    -2.332338683118     0.775672620359     1.007825032230
         H            2.388376008271     1.796089316882    -0.014004379641     1.007825032230
         H            2.574615008271     0.864442316882     1.462586620359     1.007825032230
         H            4.153355008271    -0.708227683118     0.282272620359     1.007825032230
         H            3.969890008271     0.224886316882    -1.200609379641     1.007825032230
         H            4.740670008271     0.967692316882     0.217802620359     1.007825032230
         H           -2.850673991729     2.105511316882     0.106418620359     1.007825032230

  Basis Set: AUG-CC-PVTZ
    Blend: AUG-CC-PVTZ
  Basis Set: (AUG-CC-PVTZ AUX)
    Blend: AUG-CC-PVTZ-JKFIT
	 Reference Energy          =    -512.8856504693160332 [Eh]
	 Singles Energy            =      -0.0000000000000000 [Eh]
	 Same-Spin Energy          =      -0.5112040099827291 [Eh]
	 Opposite-Spin Energy      =      -1.6147397069646117 [Eh]
	 Correlation Energy        =      -2.1259437169473410 [Eh]
	 Total Energy              =    -515.0115941862633235 [Eh]

	 ================> DF-SCS-MP2 Energies <==================
	-----------------------------------------------------------
	 SCS Same-Spin Scale       =       0.3333333333333333 [-]
	 SCS Opposite-Spin Scale   =       1.2000000000000000 [-]
	 SCS Same-Spin Energy      =      -0.1704013366609097 [Eh]
	 SCS Opposite-Spin Energy  =      -1.9376876483575338 [Eh]
	 SCS Correlation Energy    =      -2.1080889850184437 [Eh]
	 SCS Total Energy          =    -514.9937394543344453 [Eh]
	-----------------------------------------------------------

  Dipole Moment: [D]
     X:    -0.0418      Y:     3.3128      Z:     1.9614     Total:     3.8501

*** Psi4 exiting successfully. Buy a developer a beer!
