                               Psi4 1.3.2 release

  ==> Input File <==

--------------------------------------------------------------------------
#psi4
#
memory 32 gb

molecule  {
0 1
  O       -1.9756670     1.6664010     0.1857370
  O        1.6511300    -1.1930600    -0.6768240
  O       -3.2820610    -0.0444860    -0.5140140
  N        0.2152580     0.2772540     0.2951010
  C       -0.9464590    -0.4858680    -0.1100250
  C       -1.1886160    -1.6911705     0.8014718
  C        2.5941300     0.7851170     0.3678910
  C        1.4652130    -0.1360080    -0.0663740
  C       -2.1830113     0.3785479    -0.1891332
  C        3.9493650     0.2879730    -0.1118860
  H       -0.7666830    -0.8628490    -1.1247510
  H        0.0773990     1.1958980     0.6978160
  H       -1.3680630    -1.3508140     1.8303240
  H       -2.0758160    -2.2433210     0.4601180
  H       -0.3237180    -2.3338760     0.7750620
  H        2.3897550     1.7945520    -0.0146150
  H        2.5759940     0.8629050     1.4619760
  H        4.1547340    -0.7097650     0.2816620
  H        3.9712690     0.2233490    -1.2012200
  H        4.7420490     0.9661550     0.2171920
  H       -2.8492950     2.1039740     0.1058080
units angstrom
no_reorient  #important for SAPT in psi4, default
symmetry c1  #important for SAPT in psi4, default
}

set PROPERTIES_ORIGIN ["COM"]
properties('MP2/aug-cc-pvtz', properties = ['dipole'])
--------------------------------------------------------------------------

    Molecular point group: c1
  Charge       = 0
  Multiplicity = 1
  Basis Set: AUG-CC-PVTZ
    Blend: AUG-CC-PVTZ
  Basis Set: (AUG-CC-PVTZ AUX)
    Blend: AUG-CC-PVTZ-JKFIT

    Orbital Energies [Eh]
    ---------------------

    Doubly Occupied:

       1A    -20.638115     2A    -20.562585     3A    -20.524630
       4A    -15.592233     5A    -11.405459     6A    -11.356124
       7A    -11.296394     8A    -11.247597     9A    -11.226960
      10A    -11.219545    11A     -1.480203    12A     -1.380672
      13A     -1.371020    14A     -1.245498    15A     -1.074752
      16A     -1.035319    17A     -0.928898    18A     -0.885780
      19A     -0.818025    20A     -0.792824    21A     -0.731092
      22A     -0.714974    23A     -0.683026    24A     -0.665908
      25A     -0.641474    26A     -0.633130    27A     -0.609894
      28A     -0.602344    29A     -0.580488    30A     -0.548612
      31A     -0.543143    32A     -0.523312    33A     -0.520374
      34A     -0.519105    35A     -0.496724    36A     -0.487175
      37A     -0.467477    38A     -0.428814    39A     -0.400248

  @DF-RHF Final Energy:  -512.88528508761328

   => Energetics <=

    Nuclear Repulsion Energy =            548.2093820567545208
    One-Electron Energy =               -1788.4294427932334202
    Two-Electron Energy =                 727.3347756488656159
    Total Energy =                       -512.8852850876132834
  Basis Set: (AUG-CC-PVTZ AUX)
    Blend: AUG-CC-PVTZ-RI
    Molecular point group: c1

    Geometry (in Angstrom), charge = 0, multiplicity = 1:

       Center              X                  Y                   Z               Mass
    ------------   -----------------  -----------------  -----------------  -----------------
         O           -1.977214563293     1.666067075306     0.186592921670    15.994914619570
         O            1.649582436707    -1.193393924694    -0.675968078330    15.994914619570
         O           -3.283608563293    -0.044819924694    -0.513158078330    15.994914619570
         N            0.213710436707     0.276920075306     0.295956921670    14.003074004430
         C           -0.948006563293    -0.486201924694    -0.109169078330    12.000000000000
         C           -1.190163563293    -1.691504424694     0.802327721670    12.000000000000
         C            2.592582436707     0.784783075306     0.368746921670    12.000000000000
         C            1.463665436707    -0.136341924694    -0.065518078330    12.000000000000
         C           -2.184558863293     0.378213975306    -0.188277278330    12.000000000000
         C            3.947817436707     0.287639075306    -0.111030078330    12.000000000000
         H           -0.768230563293    -0.863182924694    -1.123895078330     1.007825032230
         H            0.075851436707     1.195564075306     0.698671921670     1.007825032230
         H           -1.369610563293    -1.351147924694     1.831179921670     1.007825032230
         H           -2.077363563293    -2.243654924694     0.460973921670     1.007825032230
         H           -0.325265563293    -2.334209924694     0.775917921670     1.007825032230
         H            2.388207436707     1.794218075306    -0.013759078330     1.007825032230
         H            2.574446436707     0.862571075306     1.462831921670     1.007825032230
         H            4.153186436707    -0.710098924694     0.282517921670     1.007825032230
         H            3.969721436707     0.223015075306    -1.200364078330     1.007825032230
         H            4.740501436707     0.965821075306     0.218047921670     1.007825032230
         H           -2.850842563293     2.103640075306     0.106663921670     1.007825032230

  Basis Set: AUG-CC-PVTZ
    Blend: AUG-CC-PVTZ
  Basis Set: (AUG-CC-PVTZ AUX)
    Blend: AUG-CC-PVTZ-JKFIT
	 Reference Energy          =    -512.8852850876132834 [Eh]
	 Singles Energy            =      -0.0000000000000000 [Eh]
	 Same-Spin Energy          =      -0.5114499114335981 [Eh]
	 Opposite-Spin Energy      =      -1.6151119320832943 [Eh]
	 Correlation Energy        =      -2.1265618435168925 [Eh]
	 Total Energy              =    -515.0118469311302078 [Eh]

	 ================> DF-SCS-MP2 Energies <==================
	-----------------------------------------------------------
	 SCS Same-Spin Scale       =       0.3333333333333333 [-]
	 SCS Opposite-Spin Scale   =       1.2000000000000000 [-]
	 SCS Same-Spin Energy      =      -0.1704833038111994 [Eh]
	 SCS Opposite-Spin Energy  =      -1.9381343184999531 [Eh]
	 SCS Correlation Energy    =      -2.1086176223111526 [Eh]
	 SCS Total Energy          =    -514.9939027099244413 [Eh]
	-----------------------------------------------------------

  Dipole Moment: [D]
     X:    -0.0193      Y:     3.3652      Z:     1.9664     Total:     3.8976

*** Psi4 exiting successfully. Buy a developer a beer!
