                               Psi4 1.3.2 release

  ==> Input File <==

--------------------------------------------------------------------------
#psi4
#
memory 32 gb

molecule  {
0 1
  O       -1.9756670     1.6664010     0.1857370
  O        1.6511300    -1.1930600    -0.6768240
  O       -3.2820610    -0.0444860    -0.5140140
  N        0.2152580     0.2772540     0.2951010
  C       -0.9464590    -0.4858680    -0.1100250
  C       -1.2010820    -1.6869190     0.8036840
  C        2.5941300     0.7851170     0.3678910
  C        1.4652130    -0.1360080    -0.0663740
  C       -2.2205762     0.1801896    -0.2347795
  C        3.9493650     0.2879730    -0.1118860
  H       -0.7666830    -0.8628490    -1.1247510
  H        0.0773990     1.1958980     0.6978160
  H       -1.3680630    -1.3508140     1.8303240
  H       -2.0758160    -2.2433210     0.4601180
  H       -0.3237180    -2.3338760     0.7750620
  H        2.3897550     1.7945520    -0.0146150
  H        2.5759940     0.8629050     1.4619760
  H        4.1547340    -0.7097650     0.2816620
  H        3.9712690     0.2233490    -1.2012200
  H        4.7420490     0.9661550     0.2171920
  H       -2.8492950     2.1039740     0.1058080
units angstrom
no_reorient  #important for SAPT in psi4, default
symmetry c1  #important for SAPT in psi4, default
}

set PROPERTIES_ORIGIN ["COM"]
properties('MP2/aug-cc-pvtz', properties = ['dipole'])
--------------------------------------------------------------------------

    Molecular point group: c1
  Charge       = 0
  Multiplicity = 1
  Basis Set: AUG-CC-PVTZ
    Blend: AUG-CC-PVTZ
  Basis Set: (AUG-CC-PVTZ AUX)
    Blend: AUG-CC-PVTZ-JKFIT

    Orbital Energies [Eh]
    ---------------------

    Doubly Occupied:

       1A    -20.595662     2A    -20.572804     3A    -20.526668
       4A    -15.596617     5A    -11.405772     6A    -11.358920
       7A    -11.304896     8A    -11.248314     9A    -11.236813
      10A    -11.220089    11A     -1.507851    12A     -1.383436
      13A     -1.328995    14A     -1.247490    15A     -1.090399
      16A     -1.045754    17A     -0.930276    18A     -0.888414
      19A     -0.800797    20A     -0.784426    21A     -0.733254
      22A     -0.710704    23A     -0.681049    24A     -0.671496
      25A     -0.642423    26A     -0.636254    27A     -0.611277
      28A     -0.603692    29A     -0.585346    30A     -0.550985
      31A     -0.548748    32A     -0.527194    33A     -0.521901
      34A     -0.519652    35A     -0.496904    36A     -0.493143
      37A     -0.457417    38A     -0.431787    39A     -0.404341

  @DF-RHF Final Energy:  -512.84846192723694

   => Energetics <=

    Nuclear Repulsion Energy =            548.3934552822968271
    One-Electron Energy =               -1788.6799173853692082
    Two-Electron Energy =                 727.4380001758354410
    Total Energy =                       -512.8484619272369400
  Basis Set: (AUG-CC-PVTZ AUX)
    Blend: AUG-CC-PVTZ-RI
    Molecular point group: c1

    Geometry (in Angstrom), charge = 0, multiplicity = 1:

       Center              X                  Y                   Z               Mass
    ------------   -----------------  -----------------  -----------------  -----------------
         O           -1.973076183970     1.682122904155     0.190185636999    15.994914619570
         O            1.653720816030    -1.177338095845    -0.672375363001    15.994914619570
         O           -3.279470183970    -0.028764095845    -0.509565363001    15.994914619570
         N            0.217848816030     0.292975904155     0.299549636999    14.003074004430
         C           -0.943868183970    -0.470146095845    -0.105576363001    12.000000000000
         C           -1.198491183970    -1.671197095845     0.808132636999    12.000000000000
         C            2.596720816030     0.800838904155     0.372339636999    12.000000000000
         C            1.467803816030    -0.120286095845    -0.061925363001    12.000000000000
         C           -2.217985383970     0.195911504155    -0.230330863001    12.000000000000
         C            3.951955816030     0.303694904155    -0.107437363001    12.000000000000
         H           -0.764092183970    -0.847127095845    -1.120302363001     1.007825032230
         H            0.079989816030     1.211619904155     0.702264636999     1.007825032230
         H           -1.365472183970    -1.335092095845     1.834772636999     1.007825032230
         H           -2.073225183970    -2.227599095845     0.464566636999     1.007825032230
         H           -0.321127183970    -2.318154095845     0.779510636999     1.007825032230
         H            2.392345816030     1.810273904155    -0.010166363001     1.007825032230
         H            2.578584816030     0.878626904155     1.466424636999     1.007825032230
         H            4.157324816030    -0.694043095845     0.286110636999     1.007825032230
         H            3.973859816030     0.239070904155    -1.196771363001     1.007825032230
         H            4.744639816030     0.981876904155     0.221640636999     1.007825032230
         H           -2.846704183970     2.119695904155     0.110256636999     1.007825032230

  Basis Set: AUG-CC-PVTZ
    Blend: AUG-CC-PVTZ
  Basis Set: (AUG-CC-PVTZ AUX)
    Blend: AUG-CC-PVTZ-JKFIT
	 Reference Energy          =    -512.8484619272369400 [Eh]
	 Singles Energy            =      -0.0000000000000000 [Eh]
	 Same-Spin Energy          =      -0.5121046587747982 [Eh]
	 Opposite-Spin Energy      =      -1.6170810385213499 [Eh]
	 Correlation Energy        =      -2.1291856972961480 [Eh]
	 Total Energy              =    -514.9776476245331196 [Eh]

	 ================> DF-SCS-MP2 Energies <==================
	-----------------------------------------------------------
	 SCS Same-Spin Scale       =       0.3333333333333333 [-]
	 SCS Opposite-Spin Scale   =       1.2000000000000000 [-]
	 SCS Same-Spin Energy      =      -0.1707015529249327 [Eh]
	 SCS Opposite-Spin Energy  =      -1.9404972462256198 [Eh]
	 SCS Correlation Energy    =      -2.1111987991505528 [Eh]
	 SCS Total Energy          =    -514.9596607263874830 [Eh]
	-----------------------------------------------------------

  Dipole Moment: [D]
     X:    -0.2523      Y:     1.6880      Z:     1.5449     Total:     2.3021

*** Psi4 exiting successfully. Buy a developer a beer!
