                               Psi4 1.3.2 release

  ==> Input File <==

--------------------------------------------------------------------------
#psi4
#
memory 32 gb

molecule  {
0 1
  O       -1.9527527     1.6612940     0.1896687
  O        1.6511300    -1.1930600    -0.6768240
  O       -3.2820610    -0.0444860    -0.5140140
  N        0.2152580     0.2772540     0.2951010
  C       -0.9327651    -0.4648992    -0.1017747
  C       -1.2010820    -1.6869190     0.8036840
  C        2.5941300     0.7851170     0.3678910
  C        1.4652130    -0.1360080    -0.0663740
  C       -2.1892550     0.3702600    -0.1810000
  C        3.9493650     0.2879730    -0.1118860
  H       -0.7666830    -0.8628490    -1.1247510
  H        0.0773990     1.1958980     0.6978160
  H       -1.3680630    -1.3508140     1.8303240
  H       -2.0758160    -2.2433210     0.4601180
  H       -0.3237180    -2.3338760     0.7750620
  H        2.3897550     1.7945520    -0.0146150
  H        2.5759940     0.8629050     1.4619760
  H        4.1547340    -0.7097650     0.2816620
  H        3.9712690     0.2233490    -1.2012200
  H        4.7420490     0.9661550     0.2171920
  H       -2.8492950     2.1039740     0.1058080
units angstrom
no_reorient  #important for SAPT in psi4, default
symmetry c1  #important for SAPT in psi4, default
}

set PROPERTIES_ORIGIN ["COM"]
properties('MP2/aug-cc-pvtz', properties = ['dipole'])
--------------------------------------------------------------------------

    Molecular point group: c1
  Charge       = 0
  Multiplicity = 1
  Basis Set: AUG-CC-PVTZ
    Blend: AUG-CC-PVTZ
  Basis Set: (AUG-CC-PVTZ AUX)
    Blend: AUG-CC-PVTZ-JKFIT

    Orbital Energies [Eh]
    ---------------------

    Doubly Occupied:

       1A    -20.638249     2A    -20.564756     3A    -20.525388
       4A    -15.592741     5A    -11.404757     6A    -11.356935
       7A    -11.294678     8A    -11.248090     9A    -11.226289
      10A    -11.219851    11A     -1.476149    12A     -1.381897
      13A     -1.373153    14A     -1.250394    15A     -1.073946
      16A     -1.033852    17A     -0.926243    18A     -0.885753
      19A     -0.812533    20A     -0.794487    21A     -0.732258
      22A     -0.713403    23A     -0.684269    24A     -0.664725
      25A     -0.641633    26A     -0.633516    27A     -0.608686
      28A     -0.602428    29A     -0.581312    30A     -0.545756
      31A     -0.541982    32A     -0.525895    33A     -0.520074
      34A     -0.517938    35A     -0.498231    36A     -0.487507
      37A     -0.467212    38A     -0.429700    39A     -0.398703

  @DF-RHF Final Energy:  -512.88225273180717

   => Energetics <=

    Nuclear Repulsion Energy =            548.6292663656372497
    One-Electron Energy =               -1789.2723024056922441
    Two-Electron Energy =                 727.7607833082478237
    Total Energy =                       -512.8822527318071707
  Basis Set: (AUG-CC-PVTZ AUX)
    Blend: AUG-CC-PVTZ-RI
    Molecular point group: c1

    Geometry (in Angstrom), charge = 0, multiplicity = 1:

       Center              X                  Y                   Z               Mass
    ------------   -----------------  -----------------  -----------------  -----------------
         O           -1.956411757410     1.660122551970     0.188552967091    15.994914619570
         O            1.647470942590    -1.194231448030    -0.677939732909    15.994914619570
         O           -3.285720057410    -0.045657448030    -0.515129732909    15.994914619570
         N            0.211598942590     0.276082551970     0.293985267091    14.003074004430
         C           -0.936424157410    -0.466070648030    -0.102890432909    12.000000000000
         C           -1.204741057410    -1.688090448030     0.802568267091    12.000000000000
         C            2.590470942590     0.783945551970     0.366775267091    12.000000000000
         C            1.461553942590    -0.137179448030    -0.067489732909    12.000000000000
         C           -2.192914057410     0.369088551970    -0.182115732909    12.000000000000
         C            3.945705942590     0.286801551970    -0.113001732909    12.000000000000
         H           -0.770342057410    -0.864020448030    -1.125866732909     1.007825032230
         H            0.073739942590     1.194726551970     0.696700267091     1.007825032230
         H           -1.371722057410    -1.351985448030     1.829208267091     1.007825032230
         H           -2.079475057410    -2.244492448030     0.459002267091     1.007825032230
         H           -0.327377057410    -2.335047448030     0.773946267091     1.007825032230
         H            2.386095942590     1.793380551970    -0.015730732909     1.007825032230
         H            2.572334942590     0.861733551970     1.460860267091     1.007825032230
         H            4.151074942590    -0.710936448030     0.280546267091     1.007825032230
         H            3.967609942590     0.222177551970    -1.202335732909     1.007825032230
         H            4.738389942590     0.964983551970     0.216076267091     1.007825032230
         H           -2.852954057410     2.102802551970     0.104692267091     1.007825032230

  Basis Set: AUG-CC-PVTZ
    Blend: AUG-CC-PVTZ
  Basis Set: (AUG-CC-PVTZ AUX)
    Blend: AUG-CC-PVTZ-JKFIT
	 Reference Energy          =    -512.8822527318071707 [Eh]
	 Singles Energy            =      -0.0000000000000000 [Eh]
	 Same-Spin Energy          =      -0.5121225708107671 [Eh]
	 Opposite-Spin Energy      =      -1.6162073336736102 [Eh]
	 Correlation Energy        =      -2.1283299044843771 [Eh]
	 Total Energy              =    -515.0105826362915877 [Eh]

	 ================> DF-SCS-MP2 Energies <==================
	-----------------------------------------------------------
	 SCS Same-Spin Scale       =       0.3333333333333333 [-]
	 SCS Opposite-Spin Scale   =       1.2000000000000000 [-]
	 SCS Same-Spin Energy      =      -0.1707075236035890 [Eh]
	 SCS Opposite-Spin Energy  =      -1.9394488004083321 [Eh]
	 SCS Correlation Energy    =      -2.1101563240119212 [Eh]
	 SCS Total Energy          =    -514.9924090558190528 [Eh]
	-----------------------------------------------------------

  Dipole Moment: [D]
     X:    -0.0141      Y:     3.3743      Z:     1.9560     Total:     3.9003

*** Psi4 exiting successfully. Buy a developer a beer!
