                               Psi4 1.4a3.dev225

  ==> Input File <==

--------------------------------------------------------------------------
#psi4
#
memory 32 gb

molecule  {
0 1
  O        2.1858500    -1.4843500     0.4466430
  O       -1.5901990     1.2021140    -0.7742790
  O        3.2899360     0.0893000    -0.7567370
  N       -0.1552130    -0.3501220     0.0655300
  C        0.9973750     0.5138300    -0.1038320
  C        1.1366130     1.5332170     1.0331740
  C       -2.5208420    -0.9251940    -0.0919400
  C       -1.4008270     0.0814870    -0.2899980
  C        2.2713450    -0.2912280    -0.2118740
  C       -3.8280260    -0.2360070     0.2837800
  H        0.8752740     1.0541530    -1.0466610
  H       -0.0274960    -1.2421660     0.5250420
  H        1.2555520     1.0181310     1.9903510
  H        2.0023980     2.1787030     0.8613650
  H        0.2327940     2.1443920     1.0604580
  H       -2.6404080    -1.4674310    -1.0380590
  H       -2.2372030    -1.6677960     0.6628800
  H       -3.7417830     0.2575120     1.2553170
  H       -4.0728600     0.5241080    -0.4590610
  H       -4.6456460    -0.9595500     0.3374610
  H        3.0493644    -1.8938145     0.3532679
units angstrom
no_reorient  #important for SAPT in psi4, default
symmetry c1  #important for SAPT in psi4, default
}

set PROPERTIES_ORIGIN ["COM"]
properties('MP2/aug-cc-pvtz', properties = ['dipole'])
--------------------------------------------------------------------------

    Molecular point group: c1
  Charge       = 0
  Multiplicity = 1
  Basis Set: AUG-CC-PVTZ
    Blend: AUG-CC-PVTZ
  Basis Set: (AUG-CC-PVTZ AUX)
    Blend: AUG-CC-PVTZ-JKFIT

    Orbital Energies [Eh]
    ---------------------

    Doubly Occupied:

       1A    -20.633315     2A    -20.565613     3A    -20.522756
       4A    -15.596074     5A    -11.404467     6A    -11.357019
       7A    -11.296696     8A    -11.247837     9A    -11.233103
      10A    -11.222467    11A     -1.479686    12A     -1.379603
      13A     -1.374653    14A     -1.246229    15A     -1.076418
      16A     -1.037756    17A     -0.929073    18A     -0.887281
      19A     -0.824709    20A     -0.794920    21A     -0.728123
      22A     -0.716422    23A     -0.680738    24A     -0.661048
      25A     -0.642964    26A     -0.634867    27A     -0.612003
      28A     -0.599095    29A     -0.584675    30A     -0.556527
      31A     -0.551310    32A     -0.528358    33A     -0.523766
      34A     -0.513460    35A     -0.498365    36A     -0.487766
      37A     -0.469723    38A     -0.427748    39A     -0.400525

  @DF-RHF Final Energy:  -512.88720576986327

   => Energetics <=

    Nuclear Repulsion Energy =            548.0201069282308026
    One-Electron Energy =               -1787.9603148006551692
    Two-Electron Energy =                 727.0530021025609813
    Total Energy =                       -512.8872057698632716
  Basis Set: (AUG-CC-PVTZ AUX)
    Blend: AUG-CC-PVTZ-RI
    Molecular point group: c1

    Geometry (in Angstrom), charge = 0, multiplicity = 1:

       Center              X                  Y                   Z               Mass
    ------------   -----------------  -----------------  -----------------  -----------------
         O            2.118188229907    -1.484834592457     0.477368859720    15.994914619570
         O           -1.657860770093     1.201629407543    -0.743553140280    15.994914619570
         O            3.222274229907     0.088815407543    -0.726011140280    15.994914619570
         N           -0.222874770093    -0.350606592457     0.096255859720    14.003074004430
         C            0.929713229907     0.513345407543    -0.073106140280    12.000000000000
         C            1.068951229907     1.532732407543     1.063899859720    12.000000000000
         C           -2.588503770093    -0.925678592457    -0.061214140280    12.000000000000
         C           -1.468488770093     0.081002407543    -0.259272140280    12.000000000000
         C            2.203683229907    -0.291712592457    -0.181148140280    12.000000000000
         C           -3.895687770093    -0.236491592457     0.314505859720    12.000000000000
         H            0.807612229907     1.053668407543    -1.015935140280     1.007825032230
         H           -0.095157770093    -1.242650592457     0.555767859720     1.007825032230
         H            1.187890229907     1.017646407543     2.021076859720     1.007825032230
         H            1.934736229907     2.178218407543     0.892090859720     1.007825032230
         H            0.165132229907     2.143907407543     1.091183859720     1.007825032230
         H           -2.708069770093    -1.467915592457    -1.007333140280     1.007825032230
         H           -2.304864770093    -1.668280592457     0.693605859720     1.007825032230
         H           -3.809444770093     0.257027407543     1.286042859720     1.007825032230
         H           -4.140521770093     0.523623407543    -0.428335140280     1.007825032230
         H           -4.713307770093    -0.960034592457     0.368186859720     1.007825032230
         H            2.981702629907    -1.894299092457     0.383993759720     1.007825032230

  Basis Set: AUG-CC-PVTZ
    Blend: AUG-CC-PVTZ
  Basis Set: (AUG-CC-PVTZ AUX)
    Blend: AUG-CC-PVTZ-JKFIT
	 Reference Energy          =    -512.8872057698632716 [Eh]
	 Singles Energy            =      -0.0000000000000000 [Eh]
	 Same-Spin Energy          =      -0.5109378938834752 [Eh]
	 Opposite-Spin Energy      =      -1.6145403791973301 [Eh]
	 Correlation Energy        =      -2.1254782730808053 [Eh]
	 Total Energy              =    -515.0126840429441017 [Eh]

	 ================> DF-SCS-MP2 Energies <==================
	-----------------------------------------------------------
	 SCS Same-Spin Scale       =       0.3333333333333333 [-]
	 SCS Opposite-Spin Scale   =       1.2000000000000000 [-]
	 SCS Same-Spin Energy      =      -0.1703126312944917 [Eh]
	 SCS Opposite-Spin Energy  =      -1.9374484550367961 [Eh]
	 SCS Correlation Energy    =      -2.1077610863312879 [Eh]
	 SCS Total Energy          =    -514.9949668561945373 [Eh]
	-----------------------------------------------------------

  Dipole Moment: [D]
     X:     0.1152      Y:    -3.2718      Z:     2.2902     Total:     3.9954

*** Psi4 exiting successfully. Buy a developer a beer!
