                               Psi4 1.3.2 release

  ==> Input File <==

--------------------------------------------------------------------------
#psi4
#
memory 32 gb

molecule  {
0 1
  O       -1.9756670     1.6664010     0.1857370
  O        1.6511300    -1.1930600    -0.6768240
  O       -3.2820610    -0.0444860    -0.5140140
  N        0.2152580     0.2772540     0.2951010
  C       -1.0267002    -0.5385778    -0.1380076
  C       -1.2010820    -1.6869190     0.8036840
  C        2.5941300     0.7851170     0.3678910
  C        1.4652130    -0.1360080    -0.0663740
  C       -2.1892550     0.3702600    -0.1810000
  C        3.9493650     0.2879730    -0.1118860
  H       -0.7666830    -0.8628490    -1.1247510
  H        0.0773990     1.1958980     0.6978160
  H       -1.3680630    -1.3508140     1.8303240
  H       -2.0758160    -2.2433210     0.4601180
  H       -0.3237180    -2.3338760     0.7750620
  H        2.3897550     1.7945520    -0.0146150
  H        2.5759940     0.8629050     1.4619760
  H        4.1547340    -0.7097650     0.2816620
  H        3.9712690     0.2233490    -1.2012200
  H        4.7420490     0.9661550     0.2171920
  H       -2.8492950     2.1039740     0.1058080
units angstrom
no_reorient  #important for SAPT in psi4, default
symmetry c1  #important for SAPT in psi4, default
}

set PROPERTIES_ORIGIN ["COM"]
properties('MP2/aug-cc-pvtz', properties = ['dipole'])
--------------------------------------------------------------------------

    Molecular point group: c1
  Charge       = 0
  Multiplicity = 1
  Basis Set: AUG-CC-PVTZ
    Blend: AUG-CC-PVTZ
  Basis Set: (AUG-CC-PVTZ AUX)
    Blend: AUG-CC-PVTZ-JKFIT

    Orbital Energies [Eh]
    ---------------------

    Doubly Occupied:

       1A    -20.639575     2A    -20.565294     3A    -20.519554
       4A    -15.586786     5A    -11.406309     6A    -11.351396
       7A    -11.300369     8A    -11.244365     9A    -11.229329
      10A    -11.217213    11A     -1.481504    12A     -1.377107
      13A     -1.374003    14A     -1.224703    15A     -1.079519
      16A     -1.039089    17A     -0.932702    18A     -0.881761
      19A     -0.818613    20A     -0.783754    21A     -0.727603
      22A     -0.716421    23A     -0.676037    24A     -0.669277
      25A     -0.638970    26A     -0.632350    27A     -0.616475
      28A     -0.599190    29A     -0.577308    30A     -0.555067
      31A     -0.543387    32A     -0.525258    33A     -0.516737
      34A     -0.512934    35A     -0.497034    36A     -0.489123
      37A     -0.472304    38A     -0.423300    39A     -0.399348

  @DF-RHF Final Energy:  -512.87717417461408

   => Energetics <=

    Nuclear Repulsion Energy =            547.3973942484012696
    One-Electron Energy =               -1786.8669960897684632
    Two-Electron Energy =                 726.5924276667531103
    Total Energy =                       -512.8771741746140833
  Basis Set: (AUG-CC-PVTZ AUX)
    Blend: AUG-CC-PVTZ-RI
    Molecular point group: c1

    Geometry (in Angstrom), charge = 0, multiplicity = 1:

       Center              X                  Y                   Z               Mass
    ------------   -----------------  -----------------  -----------------  -----------------
         O           -1.969029694371     1.670760920524     0.188051808553    15.994914619570
         O            1.657767305629    -1.188700079476    -0.674509191447    15.994914619570
         O           -3.275423694371    -0.040126079476    -0.511699191447    15.994914619570
         N            0.221895305629     0.281613920524     0.297415808553    14.003074004430
         C           -1.020062894371    -0.534217879476    -0.135692791447    12.000000000000
         C           -1.194444694371    -1.682559079476     0.805998808553    12.000000000000
         C            2.600767305629     0.789476920524     0.370205808553    12.000000000000
         C            1.471850305629    -0.131648079476    -0.064059191447    12.000000000000
         C           -2.182617694371     0.374619920524    -0.178685191447    12.000000000000
         C            3.956002305629     0.292332920524    -0.109571191447    12.000000000000
         H           -0.760045694371    -0.858489079476    -1.122436191447     1.007825032230
         H            0.084036305629     1.200257920524     0.700130808553     1.007825032230
         H           -1.361425694371    -1.346454079476     1.832638808553     1.007825032230
         H           -2.069178694371    -2.238961079476     0.462432808553     1.007825032230
         H           -0.317080694371    -2.329516079476     0.777376808553     1.007825032230
         H            2.396392305629     1.798911920524    -0.012300191447     1.007825032230
         H            2.582631305629     0.867264920524     1.464290808553     1.007825032230
         H            4.161371305629    -0.705405079476     0.283976808553     1.007825032230
         H            3.977906305629     0.227708920524    -1.198905191447     1.007825032230
         H            4.748686305629     0.970514920524     0.219506808553     1.007825032230
         H           -2.842657694371     2.108333920524     0.108122808553     1.007825032230

  Basis Set: AUG-CC-PVTZ
    Blend: AUG-CC-PVTZ
  Basis Set: (AUG-CC-PVTZ AUX)
    Blend: AUG-CC-PVTZ-JKFIT
	 Reference Energy          =    -512.8771741746140833 [Eh]
	 Singles Energy            =      -0.0000000000000000 [Eh]
	 Same-Spin Energy          =      -0.5112975301728213 [Eh]
	 Opposite-Spin Energy      =      -1.6155961364180556 [Eh]
	 Correlation Energy        =      -2.1268936665908766 [Eh]
	 Total Energy              =    -515.0040678412049147 [Eh]

	 ================> DF-SCS-MP2 Energies <==================
	-----------------------------------------------------------
	 SCS Same-Spin Scale       =       0.3333333333333333 [-]
	 SCS Opposite-Spin Scale   =       1.2000000000000000 [-]
	 SCS Same-Spin Energy      =      -0.1704325100576071 [Eh]
	 SCS Opposite-Spin Energy  =      -1.9387153637016665 [Eh]
	 SCS Correlation Energy    =      -2.1091478737592735 [Eh]
	 SCS Total Energy          =    -514.9863220483733812 [Eh]
	-----------------------------------------------------------

  Dipole Moment: [D]
     X:    -0.3593      Y:     3.2030      Z:     1.9575     Total:     3.7710

*** Psi4 exiting successfully. Buy a developer a beer!
