                               Psi4 1.3.2 release

  ==> Input File <==

--------------------------------------------------------------------------
#psi4
#
memory 32 gb

molecule  {
0 1
  O       -1.9756670     1.6664010     0.1857370
  O        1.6511300    -1.1930600    -0.6768240
  O       -3.2820610    -0.0444860    -0.5140140
  N        0.2152580     0.2772540     0.2951010
  C       -0.9464590    -0.4858680    -0.1100250
  C       -1.2010820    -1.6869190     0.8036840
  C        2.5941300     0.7851170     0.3678910
  C        1.4652130    -0.1360080    -0.0663740
  C       -2.1845671     0.3797243    -0.1293341
  C        3.9493650     0.2879730    -0.1118860
  H       -0.7357896    -0.8813396    -1.1116854
  H        0.0773990     1.1958980     0.6978160
  H       -1.3680630    -1.3508140     1.8303240
  H       -2.0758160    -2.2433210     0.4601180
  H       -0.3237180    -2.3338760     0.7750620
  H        2.3897550     1.7945520    -0.0146150
  H        2.5759940     0.8629050     1.4619760
  H        4.1547340    -0.7097650     0.2816620
  H        3.9712690     0.2233490    -1.2012200
  H        4.7420490     0.9661550     0.2171920
  H       -2.8492950     2.1039740     0.1058080
units angstrom
no_reorient  #important for SAPT in psi4, default
symmetry c1  #important for SAPT in psi4, default
}

set PROPERTIES_ORIGIN ["COM"]
properties('MP2/aug-cc-pvtz', properties = ['dipole'])
--------------------------------------------------------------------------

    Molecular point group: c1
  Charge       = 0
  Multiplicity = 1
  Basis Set: AUG-CC-PVTZ
    Blend: AUG-CC-PVTZ
  Basis Set: (AUG-CC-PVTZ AUX)
    Blend: AUG-CC-PVTZ-JKFIT

    Orbital Energies [Eh]
    ---------------------

    Doubly Occupied:

       1A    -20.643129     2A    -20.559449     3A    -20.525167
       4A    -15.592395     5A    -11.406781     6A    -11.356476
       7A    -11.296430     8A    -11.247857     9A    -11.226000
      10A    -11.219744    11A     -1.485568    12A     -1.381208
      13A     -1.363192    14A     -1.246165    15A     -1.075176
      16A     -1.035707    17A     -0.929136    18A     -0.886636
      19A     -0.821781    20A     -0.794104    21A     -0.731935
      22A     -0.716356    23A     -0.683142    24A     -0.667446
      25A     -0.642248    26A     -0.634343    27A     -0.608498
      28A     -0.602872    29A     -0.581227    30A     -0.545800
      31A     -0.542360    32A     -0.524168    33A     -0.520204
      34A     -0.518901    35A     -0.494863    36A     -0.483915
      37A     -0.467453    38A     -0.429035    39A     -0.399427

  @DF-RHF Final Energy:  -512.88218574472171

   => Energetics <=

    Nuclear Repulsion Energy =            548.2923505305831213
    One-Electron Energy =               -1788.5764853692796805
    Two-Electron Energy =                 727.4019490939747357
    Total Energy =                       -512.8821857447217099
  Basis Set: (AUG-CC-PVTZ AUX)
    Blend: AUG-CC-PVTZ-RI
    Molecular point group: c1

    Geometry (in Angstrom), charge = 0, multiplicity = 1:

       Center              X                  Y                   Z               Mass
    ------------   -----------------  -----------------  -----------------  -----------------
         O           -1.976269345272     1.665746552368     0.181372799552    15.994914619570
         O            1.650527654728    -1.193714447632    -0.681188200448    15.994914619570
         O           -3.282663345272    -0.045140447632    -0.518378200448    15.994914619570
         N            0.214655654728     0.276599552368     0.290736799552    14.003074004430
         C           -0.947061345272    -0.486522447632    -0.114389200448    12.000000000000
         C           -1.201684345272    -1.687573447632     0.799319799552    12.000000000000
         C            2.593527654728     0.784462552368     0.363526799552    12.000000000000
         C            1.464610654728    -0.136662447632    -0.070738200448    12.000000000000
         C           -2.185169445272     0.379069852368    -0.133698300448    12.000000000000
         C            3.948762654728     0.287318552368    -0.116250200448    12.000000000000
         H           -0.736391945272    -0.881994047632    -1.116049600448     1.007825032230
         H            0.076796654728     1.195243552368     0.693451799552     1.007825032230
         H           -1.368665345272    -1.351468447632     1.825959799552     1.007825032230
         H           -2.076418345272    -2.243975447632     0.455753799552     1.007825032230
         H           -0.324320345272    -2.334530447632     0.770697799552     1.007825032230
         H            2.389152654728     1.793897552368    -0.018979200448     1.007825032230
         H            2.575391654728     0.862250552368     1.457611799552     1.007825032230
         H            4.154131654728    -0.710419447632     0.277297799552     1.007825032230
         H            3.970666654728     0.222694552368    -1.205584200448     1.007825032230
         H            4.741446654728     0.965500552368     0.212827799552     1.007825032230
         H           -2.849897345272     2.103319552368     0.101443799552     1.007825032230

  Basis Set: AUG-CC-PVTZ
    Blend: AUG-CC-PVTZ
  Basis Set: (AUG-CC-PVTZ AUX)
    Blend: AUG-CC-PVTZ-JKFIT
	 Reference Energy          =    -512.8821857447217099 [Eh]
	 Singles Energy            =      -0.0000000000000000 [Eh]
	 Same-Spin Energy          =      -0.5118182571258758 [Eh]
	 Opposite-Spin Energy      =      -1.6157435979621497 [Eh]
	 Correlation Energy        =      -2.1275618550880253 [Eh]
	 Total Energy              =    -515.0097475998097707 [Eh]

	 ================> DF-SCS-MP2 Energies <==================
	-----------------------------------------------------------
	 SCS Same-Spin Scale       =       0.3333333333333333 [-]
	 SCS Opposite-Spin Scale   =       1.2000000000000000 [-]
	 SCS Same-Spin Energy      =      -0.1706060857086253 [Eh]
	 SCS Opposite-Spin Energy  =      -1.9388923175545796 [Eh]
	 SCS Correlation Energy    =      -2.1094984032632049 [Eh]
	 SCS Total Energy          =    -514.9916841479848699 [Eh]
	-----------------------------------------------------------

  Dipole Moment: [D]
     X:     0.0449      Y:     3.4692      Z:     2.0638     Total:     4.0369

*** Psi4 exiting successfully. Buy a developer a beer!
