                               Psi4 1.3.2 release

  ==> Input File <==

--------------------------------------------------------------------------
#psi4
#
memory 32 gb

molecule  {
0 1
  O       -1.9756670     1.6664010     0.1857370
  O        1.6511300    -1.1930600    -0.6768240
  O       -3.2820610    -0.0444860    -0.5140140
  N        0.1861005     0.3184261     0.2980052
  C       -0.9464590    -0.4858680    -0.1100250
  C       -1.2010820    -1.6869190     0.8036840
  C        2.5941300     0.7851170     0.3678910
  C        1.4652130    -0.1360080    -0.0663740
  C       -2.1603879     0.4117805    -0.1660450
  C        3.9493650     0.2879730    -0.1118860
  H       -0.7666830    -0.8628490    -1.1247510
  H        0.0773990     1.1958980     0.6978160
  H       -1.3680630    -1.3508140     1.8303240
  H       -2.0758160    -2.2433210     0.4601180
  H       -0.3237180    -2.3338760     0.7750620
  H        2.3897550     1.7945520    -0.0146150
  H        2.5759940     0.8629050     1.4619760
  H        4.1547340    -0.7097650     0.2816620
  H        3.9712690     0.2233490    -1.2012200
  H        4.7420490     0.9661550     0.2171920
  H       -2.8492950     2.1039740     0.1058080
units angstrom
no_reorient  #important for SAPT in psi4, default
symmetry c1  #important for SAPT in psi4, default
}

set PROPERTIES_ORIGIN ["COM"]
properties('MP2/aug-cc-pvtz', properties = ['dipole'])
--------------------------------------------------------------------------

    Molecular point group: c1
  Charge       = 0
  Multiplicity = 1
  Basis Set: AUG-CC-PVTZ
    Blend: AUG-CC-PVTZ
  Basis Set: (AUG-CC-PVTZ AUX)
    Blend: AUG-CC-PVTZ-JKFIT

    Orbital Energies [Eh]
    ---------------------

    Doubly Occupied:

       1A    -20.647576     2A    -20.550939     3A    -20.533155
       4A    -15.587941     5A    -11.404054     6A    -11.362905
       7A    -11.295675     8A    -11.249287     9A    -11.225764
      10A    -11.221093    11A     -1.494158    12A     -1.382161
      13A     -1.348008    14A     -1.244948    15A     -1.073483
      16A     -1.034162    17A     -0.931601    18A     -0.888340
      19A     -0.829395    20A     -0.794791    21A     -0.730245
      22A     -0.717383    23A     -0.683992    24A     -0.666777
      25A     -0.642577    26A     -0.635149    27A     -0.609130
      28A     -0.598528    29A     -0.583209    30A     -0.545236
      31A     -0.540800    32A     -0.526774    33A     -0.521301
      34A     -0.518899    35A     -0.494543    36A     -0.476604
      37A     -0.461432    38A     -0.430955    39A     -0.400492

  @DF-RHF Final Energy:  -512.87601682883621

   => Energetics <=

    Nuclear Repulsion Energy =            547.8963844716224685
    One-Electron Energy =               -1787.7778737414130319
    Two-Electron Energy =                 727.0054724409543496
    Total Energy =                       -512.8760168288362138
  Basis Set: (AUG-CC-PVTZ AUX)
    Blend: AUG-CC-PVTZ-RI
    Molecular point group: c1

    Geometry (in Angstrom), charge = 0, multiplicity = 1:

       Center              X                  Y                   Z               Mass
    ------------   -----------------  -----------------  -----------------  -----------------
         O           -1.975240356742     1.658992438096     0.184219837720    15.994914619570
         O            1.651556643258    -1.200468561904    -0.678341162280    15.994914619570
         O           -3.281634356742    -0.051894561904    -0.515531162280    15.994914619570
         N            0.186527143258     0.311017538096     0.296488037720    14.003074004430
         C           -0.946032356742    -0.493276561904    -0.111542162280    12.000000000000
         C           -1.200655356742    -1.694327561904     0.802166837720    12.000000000000
         C            2.594556643258     0.777708438096     0.366373837720    12.000000000000
         C            1.465639643258    -0.143416561904    -0.067891162280    12.000000000000
         C           -2.159961256742     0.404371938096    -0.167562162280    12.000000000000
         C            3.949791643258     0.280564438096    -0.113403162280    12.000000000000
         H           -0.766256356742    -0.870257561904    -1.126268162280     1.007825032230
         H            0.077825643258     1.188489438096     0.696298837720     1.007825032230
         H           -1.367636356742    -1.358222561904     1.828806837720     1.007825032230
         H           -2.075389356742    -2.250729561904     0.458600837720     1.007825032230
         H           -0.323291356742    -2.341284561904     0.773544837720     1.007825032230
         H            2.390181643258     1.787143438096    -0.016132162280     1.007825032230
         H            2.576420643258     0.855496438096     1.460458837720     1.007825032230
         H            4.155160643258    -0.717173561904     0.280144837720     1.007825032230
         H            3.971695643258     0.215940438096    -1.202737162280     1.007825032230
         H            4.742475643258     0.958746438096     0.215674837720     1.007825032230
         H           -2.848868356742     2.096565438096     0.104290837720     1.007825032230

  Basis Set: AUG-CC-PVTZ
    Blend: AUG-CC-PVTZ
  Basis Set: (AUG-CC-PVTZ AUX)
    Blend: AUG-CC-PVTZ-JKFIT
	 Reference Energy          =    -512.8760168288362138 [Eh]
	 Singles Energy            =      -0.0000000000000000 [Eh]
	 Same-Spin Energy          =      -0.5118800092175622 [Eh]
	 Opposite-Spin Energy      =      -1.6160426057602497 [Eh]
	 Correlation Energy        =      -2.1279226149778117 [Eh]
	 Total Energy              =    -515.0039394438140334 [Eh]

	 ================> DF-SCS-MP2 Energies <==================
	-----------------------------------------------------------
	 SCS Same-Spin Scale       =       0.3333333333333333 [-]
	 SCS Opposite-Spin Scale   =       1.2000000000000000 [-]
	 SCS Same-Spin Energy      =      -0.1706266697391874 [Eh]
	 SCS Opposite-Spin Energy  =      -1.9392511269122996 [Eh]
	 SCS Correlation Energy    =      -2.1098777966514870 [Eh]
	 SCS Total Energy          =    -514.9858946254877310 [Eh]
	-----------------------------------------------------------

  Dipole Moment: [D]
     X:     0.3862      Y:     3.5230      Z:     2.0410     Total:     4.0898

*** Psi4 exiting successfully. Buy a developer a beer!
