                               Psi4 1.3.2 release

  ==> Input File <==

--------------------------------------------------------------------------
#psi4
#
memory 32 gb

molecule  {
0 1
  O       -1.9756670     1.6664010     0.1857370
  O        1.6511300    -1.1930600    -0.6768240
  O       -3.2820610    -0.0444860    -0.5140140
  N        0.2152580     0.2772540     0.2951010
  C       -0.9464590    -0.4858680    -0.1100250
  C       -1.1978886    -1.7032151     0.7827626
  C        2.5941300     0.7851170     0.3678910
  C        1.4652130    -0.1360080    -0.0663740
  C       -2.1892550     0.3702600    -0.1810000
  C        3.9493650     0.2879730    -0.1118860
  H       -0.7690393    -0.8807413    -1.1183405
  H        0.0773990     1.1958980     0.6978160
  H       -1.3680630    -1.3508140     1.8303240
  H       -2.0758160    -2.2433210     0.4601180
  H       -0.3237180    -2.3338760     0.7750620
  H        2.3897550     1.7945520    -0.0146150
  H        2.5759940     0.8629050     1.4619760
  H        4.1547340    -0.7097650     0.2816620
  H        3.9712690     0.2233490    -1.2012200
  H        4.7420490     0.9661550     0.2171920
  H       -2.8492950     2.1039740     0.1058080
units angstrom
no_reorient  #important for SAPT in psi4, default
symmetry c1  #important for SAPT in psi4, default
}

set PROPERTIES_ORIGIN ["COM"]
properties('MP2/aug-cc-pvtz', properties = ['dipole'])
--------------------------------------------------------------------------

    Molecular point group: c1
  Charge       = 0
  Multiplicity = 1
  Basis Set: AUG-CC-PVTZ
    Blend: AUG-CC-PVTZ
  Basis Set: (AUG-CC-PVTZ AUX)
    Blend: AUG-CC-PVTZ-JKFIT

    Orbital Energies [Eh]
    ---------------------

    Doubly Occupied:

       1A    -20.636155     2A    -20.563949     3A    -20.524815
       4A    -15.592878     5A    -11.405155     6A    -11.356353
       7A    -11.296330     8A    -11.247688     9A    -11.227048
      10A    -11.219599    11A     -1.478573    12A     -1.380863
      13A     -1.373687    14A     -1.245388    15A     -1.075032
      16A     -1.035885    17A     -0.928021    18A     -0.885520
      19A     -0.816274    20A     -0.792558    21A     -0.731192
      22A     -0.714743    23A     -0.683048    24A     -0.665648
      25A     -0.641392    26A     -0.633454    27A     -0.610512
      28A     -0.602970    29A     -0.580792    30A     -0.550944
      31A     -0.543545    32A     -0.524859    33A     -0.519715
      34A     -0.516365    35A     -0.498024    36A     -0.487170
      37A     -0.467761    38A     -0.429102    39A     -0.400310

  @DF-RHF Final Energy:  -512.88513902430577

   => Energetics <=

    Nuclear Repulsion Energy =            548.1346125405835892
    One-Electron Energy =               -1788.2728619491742847
    Two-Electron Energy =                 727.2531103842848097
    Total Energy =                       -512.8851390243057722
  Basis Set: (AUG-CC-PVTZ AUX)
    Blend: AUG-CC-PVTZ-RI
    Molecular point group: c1

    Geometry (in Angstrom), charge = 0, multiplicity = 1:

       Center              X                  Y                   Z               Mass
    ------------   -----------------  -----------------  -----------------  -----------------
         O           -1.975914740603     1.667873205286     0.187423197434    15.994914619570
         O            1.650882259397    -1.191587794714    -0.675137802566    15.994914619570
         O           -3.282308740603    -0.043013794714    -0.512327802566    15.994914619570
         N            0.215010259397     0.278726205286     0.296787197434    14.003074004430
         C           -0.946706740603    -0.484395794714    -0.108338802566    12.000000000000
         C           -1.198136340603    -1.701742894714     0.784448797434    12.000000000000
         C            2.593882259397     0.786589205286     0.369577197434    12.000000000000
         C            1.464965259397    -0.134535794714    -0.064687802566    12.000000000000
         C           -2.189502740603     0.371732205286    -0.179313802566    12.000000000000
         C            3.949117259397     0.289445205286    -0.110199802566    12.000000000000
         H           -0.769287040603    -0.879269094714    -1.116654302566     1.007825032230
         H            0.077151259397     1.197370205286     0.699502197434     1.007825032230
         H           -1.368310740603    -1.349341794714     1.832010197434     1.007825032230
         H           -2.076063740603    -2.241848794714     0.461804197434     1.007825032230
         H           -0.323965740603    -2.332403794714     0.776748197434     1.007825032230
         H            2.389507259397     1.796024205286    -0.012928802566     1.007825032230
         H            2.575746259397     0.864377205286     1.463662197434     1.007825032230
         H            4.154486259397    -0.708292794714     0.283348197434     1.007825032230
         H            3.971021259397     0.224821205286    -1.199533802566     1.007825032230
         H            4.741801259397     0.967627205286     0.218878197434     1.007825032230
         H           -2.849542740603     2.105446205286     0.107494197434     1.007825032230

  Basis Set: AUG-CC-PVTZ
    Blend: AUG-CC-PVTZ
  Basis Set: (AUG-CC-PVTZ AUX)
    Blend: AUG-CC-PVTZ-JKFIT
	 Reference Energy          =    -512.8851390243057722 [Eh]
	 Singles Energy            =      -0.0000000000000000 [Eh]
	 Same-Spin Energy          =      -0.5113592962768068 [Eh]
	 Opposite-Spin Energy      =      -1.6149644890632056 [Eh]
	 Correlation Energy        =      -2.1263237853400123 [Eh]
	 Total Energy              =    -515.0114628096457636 [Eh]

	 ================> DF-SCS-MP2 Energies <==================
	-----------------------------------------------------------
	 SCS Same-Spin Scale       =       0.3333333333333333 [-]
	 SCS Opposite-Spin Scale   =       1.2000000000000000 [-]
	 SCS Same-Spin Energy      =      -0.1704530987589356 [Eh]
	 SCS Opposite-Spin Energy  =      -1.9379573868758466 [Eh]
	 SCS Correlation Energy    =      -2.1084104856347823 [Eh]
	 SCS Total Energy          =    -514.9935495099405216 [Eh]
	-----------------------------------------------------------

  Dipole Moment: [D]
     X:    -0.0345      Y:     3.3078      Z:     1.9472     Total:     3.8385

*** Psi4 exiting successfully. Buy a developer a beer!
