                               Psi4 1.3.2 release

  ==> Input File <==

--------------------------------------------------------------------------
#psi4
#
memory 32 gb

molecule  {
0 1
  O       -1.9756670     1.6664010     0.1857370
  O        1.6511300    -1.1930600    -0.6768240
  O       -3.2820610    -0.0444860    -0.5140140
  N        0.2152580     0.2772540     0.2951010
  C       -0.9464590    -0.4858680    -0.1100250
  C       -1.2010820    -1.6869190     0.8036840
  C        2.5941300     0.7851170     0.3678910
  C        1.4652130    -0.1360080    -0.0663740
  C       -2.2579295     0.3865864    -0.1917545
  C        3.9493650     0.2879730    -0.1118860
  H       -0.7666830    -0.8628490    -1.1247510
  H        0.0773990     1.1958980     0.6978160
  H       -1.3680630    -1.3508140     1.8303240
  H       -2.0758160    -2.2433210     0.4601180
  H       -0.3237180    -2.3338760     0.7750620
  H        2.3897550     1.7945520    -0.0146150
  H        2.5759940     0.8629050     1.4619760
  H        4.1547340    -0.7097650     0.2816620
  H        3.9712690     0.2233490    -1.2012200
  H        4.7420490     0.9661550     0.2171920
  H       -2.8688738     2.0590743     0.0904799
units angstrom
no_reorient  #important for SAPT in psi4, default
symmetry c1  #important for SAPT in psi4, default
}

set PROPERTIES_ORIGIN ["COM"]
properties('MP2/aug-cc-pvtz', properties = ['dipole'])
--------------------------------------------------------------------------

    Molecular point group: c1
  Charge       = 0
  Multiplicity = 1
  Basis Set: AUG-CC-PVTZ
    Blend: AUG-CC-PVTZ
  Basis Set: (AUG-CC-PVTZ AUX)
    Blend: AUG-CC-PVTZ-JKFIT

    Orbital Energies [Eh]
    ---------------------

    Doubly Occupied:

       1A    -20.636109     2A    -20.573802     3A    -20.521523
       4A    -15.588727     5A    -11.399323     6A    -11.353188
       7A    -11.291931     8A    -11.245478     9A    -11.222614
      10A    -11.217885    11A     -1.497940    12A     -1.405720
      13A     -1.377368    14A     -1.239423    15A     -1.067977
      16A     -1.028313    17A     -0.916901    18A     -0.879523
      19A     -0.808371    20A     -0.790191    21A     -0.733645
      22A     -0.722805    23A     -0.681297    24A     -0.669443
      25A     -0.646470    26A     -0.638608    27A     -0.614114
      28A     -0.600895    29A     -0.577794    30A     -0.547368
      31A     -0.543423    32A     -0.523003    33A     -0.521528
      34A     -0.517676    35A     -0.509375    36A     -0.488729
      37A     -0.460509    38A     -0.425727    39A     -0.395920

  @DF-RHF Final Energy:  -512.88143843325338

   => Energetics <=

    Nuclear Repulsion Energy =            548.0429769913323526
    One-Electron Energy =               -1788.0875610986997799
    Two-Electron Energy =                 727.1631456741140482
    Total Energy =                       -512.8814384332533791
  Basis Set: (AUG-CC-PVTZ AUX)
    Blend: AUG-CC-PVTZ-RI
    Molecular point group: c1

    Geometry (in Angstrom), charge = 0, multiplicity = 1:

       Center              X                  Y                   Z               Mass
    ------------   -----------------  -----------------  -----------------  -----------------
         O           -1.969850437460     1.665362407112     0.186733244938    15.994914619570
         O            1.656946562540    -1.194098592888    -0.675827755062    15.994914619570
         O           -3.276244437460    -0.045524592888    -0.513017755062    15.994914619570
         N            0.221074562540     0.276215407112     0.296097244938    14.003074004430
         C           -0.940642437460    -0.486906592888    -0.109028755062    12.000000000000
         C           -1.195265437460    -1.687957592888     0.804680244938    12.000000000000
         C            2.599946562540     0.784078407112     0.368887244938    12.000000000000
         C            1.471029562540    -0.137046592888    -0.065377755062    12.000000000000
         C           -2.252112937460     0.385547807112    -0.190758255062    12.000000000000
         C            3.955181562540     0.286934407112    -0.110889755062    12.000000000000
         H           -0.760866437460    -0.863887592888    -1.123754755062     1.007825032230
         H            0.083215562540     1.194859407112     0.698812244938     1.007825032230
         H           -1.362246437460    -1.351852592888     1.831320244938     1.007825032230
         H           -2.069999437460    -2.244359592888     0.461114244938     1.007825032230
         H           -0.317901437460    -2.334914592888     0.776058244938     1.007825032230
         H            2.395571562540     1.793513407112    -0.013618755062     1.007825032230
         H            2.581810562540     0.861866407112     1.462972244938     1.007825032230
         H            4.160550562540    -0.710803592888     0.282658244938     1.007825032230
         H            3.977085562540     0.222310407112    -1.200223755062     1.007825032230
         H            4.747865562540     0.965116407112     0.218188244938     1.007825032230
         H           -2.863057237460     2.058035707112     0.091476144938     1.007825032230

  Basis Set: AUG-CC-PVTZ
    Blend: AUG-CC-PVTZ
  Basis Set: (AUG-CC-PVTZ AUX)
    Blend: AUG-CC-PVTZ-JKFIT
	 Reference Energy          =    -512.8814384332533791 [Eh]
	 Singles Energy            =      -0.0000000000000000 [Eh]
	 Same-Spin Energy          =      -0.5103069844256676 [Eh]
	 Opposite-Spin Energy      =      -1.6128515603107620 [Eh]
	 Correlation Energy        =      -2.1231585447364294 [Eh]
	 Total Energy              =    -515.0045969779897632 [Eh]

	 ================> DF-SCS-MP2 Energies <==================
	-----------------------------------------------------------
	 SCS Same-Spin Scale       =       0.3333333333333333 [-]
	 SCS Opposite-Spin Scale   =       1.2000000000000000 [-]
	 SCS Same-Spin Energy      =      -0.1701023281418892 [Eh]
	 SCS Opposite-Spin Energy  =      -1.9354218723729144 [Eh]
	 SCS Correlation Energy    =      -2.1055242005148038 [Eh]
	 SCS Total Energy          =    -514.9869626337681439 [Eh]
	-----------------------------------------------------------

  Dipole Moment: [D]
     X:    -0.5153      Y:     3.3154      Z:     1.8419     Total:     3.8276

*** Psi4 exiting successfully. Buy a developer a beer!
