                               Psi4 1.3.2 release

  ==> Input File <==

--------------------------------------------------------------------------
#psi4
#
memory 32 gb

molecule  {
0 1
  O       -1.9756670     1.6664010     0.1857370
  O        1.6511300    -1.1930600    -0.6768240
  O       -3.2820610    -0.0444860    -0.5140140
  N        0.2152580     0.2772540     0.2951010
  C       -0.9464590    -0.4858680    -0.1100250
  C       -1.2010820    -1.6869190     0.8036840
  C        2.5941300     0.7851170     0.3678910
  C        1.4802702    -0.2216175    -0.1158137
  C       -2.1892550     0.3702600    -0.1810000
  C        3.9493650     0.2879730    -0.1118860
  H       -0.7666830    -0.8628490    -1.1247510
  H        0.0773990     1.1958980     0.6978160
  H       -1.3680630    -1.3508140     1.8303240
  H       -2.0758160    -2.2433210     0.4601180
  H       -0.3237180    -2.3338760     0.7750620
  H        2.3897550     1.7945520    -0.0146150
  H        2.5759940     0.8629050     1.4619760
  H        4.1547340    -0.7097650     0.2816620
  H        3.9712690     0.2233490    -1.2012200
  H        4.7420490     0.9661550     0.2171920
  H       -2.8492950     2.1039740     0.1058080
units angstrom
no_reorient  #important for SAPT in psi4, default
symmetry c1  #important for SAPT in psi4, default
}

set PROPERTIES_ORIGIN ["COM"]
properties('MP2/aug-cc-pvtz', properties = ['dipole'])
--------------------------------------------------------------------------

    Molecular point group: c1
  Charge       = 0
  Multiplicity = 1
  Basis Set: AUG-CC-PVTZ
    Blend: AUG-CC-PVTZ
  Basis Set: (AUG-CC-PVTZ AUX)
    Blend: AUG-CC-PVTZ-JKFIT

    Orbital Energies [Eh]
    ---------------------

    Doubly Occupied:

       1A    -20.632037     2A    -20.559935     3A    -20.544870
       4A    -15.577048     5A    -11.400253     6A    -11.353089
       7A    -11.289793     8A    -11.243395     9A    -11.224530
      10A    -11.218088    11A     -1.474446    12A     -1.453055
      13A     -1.369778    14A     -1.233756    15A     -1.063104
      16A     -1.027350    17A     -0.922005    18A     -0.874388
      19A     -0.811806    20A     -0.783572    21A     -0.727297
      22A     -0.711784    23A     -0.689146    24A     -0.664517
      25A     -0.648243    26A     -0.640991    27A     -0.613889
      28A     -0.606378    29A     -0.584646    30A     -0.552088
      31A     -0.543268    32A     -0.532308    33A     -0.525138
      34A     -0.517812    35A     -0.499977    36A     -0.492011
      37A     -0.466798    38A     -0.421282    39A     -0.397290

  @DF-RHF Final Energy:  -512.87489365635258

   => Energetics <=

    Nuclear Repulsion Energy =            548.6729171024990137
    One-Electron Energy =               -1789.3132952281100643
    Two-Electron Energy =                 727.7654844692584675
    Total Energy =                       -512.8748936563525831
  Basis Set: (AUG-CC-PVTZ AUX)
    Blend: AUG-CC-PVTZ-RI
    Molecular point group: c1

    Geometry (in Angstrom), charge = 0, multiplicity = 1:

       Center              X                  Y                   Z               Mass
    ------------   -----------------  -----------------  -----------------  -----------------
         O           -1.976912441394     1.673482267496     0.189826664072    15.994914619570
         O            1.649884558606    -1.185978732504    -0.672734335928    15.994914619570
         O           -3.283306441394    -0.037404732504    -0.509924335928    15.994914619570
         N            0.214012558606     0.284335267496     0.299190664072    14.003074004430
         C           -0.947704441394    -0.478786732504    -0.105935335928    12.000000000000
         C           -1.202327441394    -1.679837732504     0.807773664072    12.000000000000
         C            2.592884558606     0.792198267496     0.371980664072    12.000000000000
         C            1.479024758606    -0.214536232504    -0.111724035928    12.000000000000
         C           -2.190500441394     0.377341267496    -0.176910335928    12.000000000000
         C            3.948119558606     0.295054267496    -0.107796335928    12.000000000000
         H           -0.767928441394    -0.855767732504    -1.120661335928     1.007825032230
         H            0.076153558606     1.202979267496     0.701905664072     1.007825032230
         H           -1.369308441394    -1.343732732504     1.834413664072     1.007825032230
         H           -2.077061441394    -2.236239732504     0.464207664072     1.007825032230
         H           -0.324963441394    -2.326794732504     0.779151664072     1.007825032230
         H            2.388509558606     1.801633267496    -0.010525335928     1.007825032230
         H            2.574748558606     0.869986267496     1.466065664072     1.007825032230
         H            4.153488558606    -0.702683732504     0.285751664072     1.007825032230
         H            3.970023558606     0.230430267496    -1.197130335928     1.007825032230
         H            4.740803558606     0.973236267496     0.221281664072     1.007825032230
         H           -2.850540441394     2.111055267496     0.109897664072     1.007825032230

  Basis Set: AUG-CC-PVTZ
    Blend: AUG-CC-PVTZ
  Basis Set: (AUG-CC-PVTZ AUX)
    Blend: AUG-CC-PVTZ-JKFIT
	 Reference Energy          =    -512.8748936563525831 [Eh]
	 Singles Energy            =      -0.0000000000000000 [Eh]
	 Same-Spin Energy          =      -0.5093830411752335 [Eh]
	 Opposite-Spin Energy      =      -1.6112518611098201 [Eh]
	 Correlation Energy        =      -2.1206349022850537 [Eh]
	 Total Energy              =    -514.9955285586376021 [Eh]

	 ================> DF-SCS-MP2 Energies <==================
	-----------------------------------------------------------
	 SCS Same-Spin Scale       =       0.3333333333333333 [-]
	 SCS Opposite-Spin Scale   =       1.2000000000000000 [-]
	 SCS Same-Spin Energy      =      -0.1697943470584111 [Eh]
	 SCS Opposite-Spin Energy  =      -1.9335022333317839 [Eh]
	 SCS Correlation Energy    =      -2.1032965803901953 [Eh]
	 SCS Total Energy          =    -514.9781902367427620 [Eh]
	-----------------------------------------------------------

  Dipole Moment: [D]
     X:     0.3351      Y:     2.8295      Z:     1.6275     Total:     3.2814

*** Psi4 exiting successfully. Buy a developer a beer!
