                               Psi4 1.3.2 release

  ==> Input File <==

--------------------------------------------------------------------------
#psi4
#
memory 32 gb

molecule  {
0 1
  O       -2.0216837     1.6754291     0.1775398
  O        1.6511300    -1.1930600    -0.6768240
  O       -3.2820610    -0.0444860    -0.5140140
  N        0.2152580     0.2772540     0.2951010
  C       -0.9749783    -0.5270169    -0.1265880
  C       -1.2010820    -1.6869190     0.8036840
  C        2.5941300     0.7851170     0.3678910
  C        1.4652130    -0.1360080    -0.0663740
  C       -2.1892550     0.3702600    -0.1810000
  C        3.9493650     0.2879730    -0.1118860
  H       -0.7666830    -0.8628490    -1.1247510
  H        0.0773990     1.1958980     0.6978160
  H       -1.3680630    -1.3508140     1.8303240
  H       -2.0758160    -2.2433210     0.4601180
  H       -0.3237180    -2.3338760     0.7750620
  H        2.3897550     1.7945520    -0.0146150
  H        2.5759940     0.8629050     1.4619760
  H        4.1547340    -0.7097650     0.2816620
  H        3.9712690     0.2233490    -1.2012200
  H        4.7420490     0.9661550     0.2171920
  H       -2.8492950     2.1039740     0.1058080
units angstrom
no_reorient  #important for SAPT in psi4, default
symmetry c1  #important for SAPT in psi4, default
}

set PROPERTIES_ORIGIN ["COM"]
properties('MP2/aug-cc-pvtz', properties = ['dipole'])
--------------------------------------------------------------------------

    Molecular point group: c1
  Charge       = 0
  Multiplicity = 1
  Basis Set: AUG-CC-PVTZ
    Blend: AUG-CC-PVTZ
  Basis Set: (AUG-CC-PVTZ AUX)
    Blend: AUG-CC-PVTZ-JKFIT

    Orbital Energies [Eh]
    ---------------------

    Doubly Occupied:

       1A    -20.631012     2A    -20.562049     3A    -20.523018
       4A    -15.591207     5A    -11.405249     6A    -11.354525
       7A    -11.300634     8A    -11.246479     9A    -11.228236
      10A    -11.218792    11A     -1.483828    12A     -1.378351
      13A     -1.374839    14A     -1.235957    15A     -1.077660
      16A     -1.038615    17A     -0.931769    18A     -0.884739
      19A     -0.826931    20A     -0.788409    21A     -0.729146
      22A     -0.715770    23A     -0.680078    24A     -0.667848
      25A     -0.640432    26A     -0.634138    27A     -0.612282
      28A     -0.602602    29A     -0.580842    30A     -0.550907
      31A     -0.544613    32A     -0.524690    33A     -0.519844
      34A     -0.518601    35A     -0.496261    36A     -0.489233
      37A     -0.468328    38A     -0.426879    39A     -0.402044

  @DF-RHF Final Energy:  -512.88484418474400

   => Energetics <=

    Nuclear Repulsion Energy =            547.3913507320540930
    One-Electron Energy =               -1786.7787170681019688
    Two-Electron Energy =                 726.5025221513037650
    Total Energy =                       -512.8848441847439972
  Basis Set: (AUG-CC-PVTZ AUX)
    Blend: AUG-CC-PVTZ-RI
    Molecular point group: c1

    Geometry (in Angstrom), charge = 0, multiplicity = 1:

       Center              X                  Y                   Z               Mass
    ------------   -----------------  -----------------  -----------------  -----------------
         O           -2.014251141793     1.677837363459     0.179813790142    15.994914619570
         O            1.658562558207    -1.190651736541    -0.674550009858    15.994914619570
         O           -3.274628441793    -0.042077736541    -0.511740009858    15.994914619570
         N            0.222690558207     0.279662263459     0.297374990142    14.003074004430
         C           -0.967545741793    -0.524608636541    -0.124314009858    12.000000000000
         C           -1.193649441793    -1.684510736541     0.805957990142    12.000000000000
         C            2.601562558207     0.787525263459     0.370164990142    12.000000000000
         C            1.472645558207    -0.133599736541    -0.064100009858    12.000000000000
         C           -2.181822441793     0.372668263459    -0.178726009858    12.000000000000
         C            3.956797558207     0.290381263459    -0.109612009858    12.000000000000
         H           -0.759250441793    -0.860440736541    -1.122477009858     1.007825032230
         H            0.084831558207     1.198306263459     0.700089990142     1.007825032230
         H           -1.360630441793    -1.348405736541     1.832597990142     1.007825032230
         H           -2.068383441793    -2.240912736541     0.462391990142     1.007825032230
         H           -0.316285441793    -2.331467736541     0.777335990142     1.007825032230
         H            2.397187558207     1.796960263459    -0.012341009858     1.007825032230
         H            2.583426558207     0.865313263459     1.464249990142     1.007825032230
         H            4.162166558207    -0.707356736541     0.283935990142     1.007825032230
         H            3.978701558207     0.225757263459    -1.198946009858     1.007825032230
         H            4.749481558207     0.968563263459     0.219465990142     1.007825032230
         H           -2.841862441793     2.106382263459     0.108081990142     1.007825032230

  Basis Set: AUG-CC-PVTZ
    Blend: AUG-CC-PVTZ
  Basis Set: (AUG-CC-PVTZ AUX)
    Blend: AUG-CC-PVTZ-JKFIT
	 Reference Energy          =    -512.8848441847439972 [Eh]
	 Singles Energy            =      -0.0000000000000000 [Eh]
	 Same-Spin Energy          =      -0.5101682081975538 [Eh]
	 Opposite-Spin Energy      =      -1.6130509080937625 [Eh]
	 Correlation Energy        =      -2.1232191162913163 [Eh]
	 Total Energy              =    -515.0080633010353495 [Eh]

	 ================> DF-SCS-MP2 Energies <==================
	-----------------------------------------------------------
	 SCS Same-Spin Scale       =       0.3333333333333333 [-]
	 SCS Opposite-Spin Scale   =       1.2000000000000000 [-]
	 SCS Same-Spin Energy      =      -0.1700560693991846 [Eh]
	 SCS Opposite-Spin Energy  =      -1.9356610897125148 [Eh]
	 SCS Correlation Energy    =      -2.1057171591116992 [Eh]
	 SCS Total Energy          =    -514.9905613438556884 [Eh]
	-----------------------------------------------------------

  Dipole Moment: [D]
     X:    -0.1023      Y:     3.1897      Z:     1.9711     Total:     3.7510

*** Psi4 exiting successfully. Buy a developer a beer!
