                               Psi4 1.3.2 release

  ==> Input File <==

--------------------------------------------------------------------------
#psi4
#
memory 32 gb

molecule  {
0 1
  O       -1.9756670     1.6664010     0.1857370
  O        1.6511300    -1.1930600    -0.6768240
  O       -3.2820610    -0.0444860    -0.5140140
  N        0.2152580     0.2772540     0.2951010
  C       -0.9464590    -0.4858680    -0.1100250
  C       -1.2010820    -1.6869190     0.8036840
  C        2.5941300     0.7851170     0.3678910
  C        1.4308029    -0.1038128    -0.0419684
  C       -2.1892550     0.3702600    -0.1810000
  C        3.9719936     0.3299327    -0.0885070
  H       -0.7666830    -0.8628490    -1.1247510
  H        0.0773990     1.1958980     0.6978160
  H       -1.3680630    -1.3508140     1.8303240
  H       -2.0758160    -2.2433210     0.4601180
  H       -0.3237180    -2.3338760     0.7750620
  H        2.3897550     1.7945520    -0.0146150
  H        2.5759940     0.8629050     1.4619760
  H        4.1547340    -0.7097650     0.2816620
  H        3.9712690     0.2233490    -1.2012200
  H        4.7420490     0.9661550     0.2171920
  H       -2.8492950     2.1039740     0.1058080
units angstrom
no_reorient  #important for SAPT in psi4, default
symmetry c1  #important for SAPT in psi4, default
}

set PROPERTIES_ORIGIN ["COM"]
properties('MP2/aug-cc-pvtz', properties = ['dipole'])
--------------------------------------------------------------------------

    Molecular point group: c1
  Charge       = 0
  Multiplicity = 1
  Basis Set: AUG-CC-PVTZ
    Blend: AUG-CC-PVTZ
  Basis Set: (AUG-CC-PVTZ AUX)
    Blend: AUG-CC-PVTZ-JKFIT

    Orbital Energies [Eh]
    ---------------------

    Doubly Occupied:

       1A    -20.639326     2A    -20.567012     3A    -20.512862
       4A    -15.602845     5A    -11.408382     6A    -11.355489
       7A    -11.301548     8A    -11.248095     9A    -11.229726
      10A    -11.218841    11A     -1.481843    12A     -1.376878
      13A     -1.359479    14A     -1.251655    15A     -1.079306
      16A     -1.038767    17A     -0.932373    18A     -0.887943
      19A     -0.821467    20A     -0.803378    21A     -0.735801
      22A     -0.717708    23A     -0.681375    24A     -0.667699
      25A     -0.639482    26A     -0.634030    27A     -0.613933
      28A     -0.595292    29A     -0.580789    30A     -0.553622
      31A     -0.545565    32A     -0.531051    33A     -0.516102
      34A     -0.510684    35A     -0.495289    36A     -0.479116
      37A     -0.470456    38A     -0.421787    39A     -0.400523

  @DF-RHF Final Energy:  -512.87544729396541

   => Energetics <=

    Nuclear Repulsion Energy =            547.9831396072022471
    One-Electron Energy =               -1787.9021320306642338
    Two-Electron Energy =                 727.0435451294965787
    Total Energy =                       -512.8754472939654079
  Basis Set: (AUG-CC-PVTZ AUX)
    Blend: AUG-CC-PVTZ-RI
    Molecular point group: c1

    Geometry (in Angstrom), charge = 0, multiplicity = 1:

       Center              X                  Y                   Z               Mass
    ------------   -----------------  -----------------  -----------------  -----------------
         O           -1.974692438933     1.660267120667     0.181784613403    15.994914619570
         O            1.652104561067    -1.199193879333    -0.680776386597    15.994914619570
         O           -3.281086438933    -0.050619879333    -0.517966386597    15.994914619570
         N            0.216232561067     0.271120120667     0.291148613403    14.003074004430
         C           -0.945484438933    -0.492001879333    -0.113977386597    12.000000000000
         C           -1.200107438933    -1.693052879333     0.799731613403    12.000000000000
         C            2.595104561067     0.778983120667     0.363938613403    12.000000000000
         C            1.431777461067    -0.109946679333    -0.045920786597    12.000000000000
         C           -2.188280438933     0.364126120667    -0.184952386597    12.000000000000
         C            3.972968161067     0.323798820667    -0.092459386597    12.000000000000
         H           -0.765708438933    -0.868982879333    -1.128703386597     1.007825032230
         H            0.078373561067     1.189764120667     0.693863613403     1.007825032230
         H           -1.367088438933    -1.356947879333     1.826371613403     1.007825032230
         H           -2.074841438933    -2.249454879333     0.456165613403     1.007825032230
         H           -0.322743438933    -2.340009879333     0.771109613403     1.007825032230
         H            2.390729561067     1.788418120667    -0.018567386597     1.007825032230
         H            2.576968561067     0.856771120667     1.458023613403     1.007825032230
         H            4.155708561067    -0.715898879333     0.277709613403     1.007825032230
         H            3.972243561067     0.217215120667    -1.205172386597     1.007825032230
         H            4.743023561067     0.960021120667     0.213239613403     1.007825032230
         H           -2.848320438933     2.097840120667     0.101855613403     1.007825032230

  Basis Set: AUG-CC-PVTZ
    Blend: AUG-CC-PVTZ
  Basis Set: (AUG-CC-PVTZ AUX)
    Blend: AUG-CC-PVTZ-JKFIT
	 Reference Energy          =    -512.8754472939654079 [Eh]
	 Singles Energy            =      -0.0000000000000000 [Eh]
	 Same-Spin Energy          =      -0.5122270991842464 [Eh]
	 Opposite-Spin Energy      =      -1.6166014478314019 [Eh]
	 Correlation Energy        =      -2.1288285470156483 [Eh]
	 Total Energy              =    -515.0042758409811086 [Eh]

	 ================> DF-SCS-MP2 Energies <==================
	-----------------------------------------------------------
	 SCS Same-Spin Scale       =       0.3333333333333333 [-]
	 SCS Opposite-Spin Scale   =       1.2000000000000000 [-]
	 SCS Same-Spin Energy      =      -0.1707423663947488 [Eh]
	 SCS Opposite-Spin Energy  =      -1.9399217373976823 [Eh]
	 SCS Correlation Energy    =      -2.1106641037924310 [Eh]
	 SCS Total Energy          =    -514.9861113977578952 [Eh]
	-----------------------------------------------------------

  Dipole Moment: [D]
     X:    -0.4260      Y:     3.5154      Z:     2.1300     Total:     4.1324

*** Psi4 exiting successfully. Buy a developer a beer!
