                               Psi4 1.4a3.dev225

  ==> Input File <==

--------------------------------------------------------------------------
#psi4
#
memory 32 gb

molecule  {
0 1
  O        2.1858500    -1.4843500     0.4466430
  O       -1.5901990     1.2021140    -0.7742790
  O        3.2899360     0.0893000    -0.7567370
  N       -0.1552130    -0.3501220     0.0655300
  C        0.9973750     0.5138300    -0.1038320
  C        1.1366130     1.5332170     1.0331740
  C       -2.5208420    -0.9251940    -0.0919400
  C       -1.4038928     0.0996290    -0.2978381
  C        2.2713450    -0.2912280    -0.2118740
  C       -3.8280260    -0.2360070     0.2837800
  H        0.8752740     1.0541530    -1.0466610
  H       -0.0274960    -1.2421660     0.5250420
  H        1.2555520     1.0181310     1.9903510
  H        2.0023980     2.1787030     0.8613650
  H        0.2327940     2.1443920     1.0604580
  H       -2.6404080    -1.4674310    -1.0380590
  H       -2.2372030    -1.6677960     0.6628800
  H       -3.7417830     0.2575120     1.2553170
  H       -4.0728600     0.5241080    -0.4590610
  H       -4.6456460    -0.9595500     0.3374610
  H        3.0673500    -1.9023430     0.3513230
units angstrom
no_reorient  #important for SAPT in psi4, default
symmetry c1  #important for SAPT in psi4, default
}

set PROPERTIES_ORIGIN ["COM"]
properties('MP2/aug-cc-pvtz', properties = ['dipole'])
--------------------------------------------------------------------------

    Molecular point group: c1
  Charge       = 0
  Multiplicity = 1
  Basis Set: AUG-CC-PVTZ
    Blend: AUG-CC-PVTZ
  Basis Set: (AUG-CC-PVTZ AUX)
    Blend: AUG-CC-PVTZ-JKFIT

    Orbital Energies [Eh]
    ---------------------

    Doubly Occupied:

       1A    -20.633755     2A    -20.564404     3A    -20.526813
       4A    -15.592875     5A    -11.403154     6A    -11.356483
       7A    -11.295223     8A    -11.247052     9A    -11.232419
      10A    -11.222084    11A     -1.475769    12A     -1.391908
      13A     -1.372010    14A     -1.244654    15A     -1.073852
      16A     -1.035827    17A     -0.926729    18A     -0.884507
      19A     -0.821101    20A     -0.792658    21A     -0.726377
      22A     -0.713901    23A     -0.681249    24A     -0.659751
      25A     -0.642704    26A     -0.634679    27A     -0.611058
      28A     -0.603376    29A     -0.583908    30A     -0.556832
      31A     -0.550571    32A     -0.527799    33A     -0.525124
      34A     -0.513872    35A     -0.497851    36A     -0.489305
      37A     -0.469323    38A     -0.427892    39A     -0.400638

  @DF-RHF Final Energy:  -512.88717353103891

   => Energetics <=

    Nuclear Repulsion Energy =            547.9572990045631968
    One-Electron Energy =               -1787.8699649058141858
    Two-Electron Energy =                 727.0254923702119640
    Total Energy =                       -512.8871735310389113
  Basis Set: (AUG-CC-PVTZ AUX)
    Blend: AUG-CC-PVTZ-RI
    Molecular point group: c1

    Geometry (in Angstrom), charge = 0, multiplicity = 1:

       Center              X                  Y                   Z               Mass
    ------------   -----------------  -----------------  -----------------  -----------------
         O            2.118316876500    -1.486275987319     0.478030876275    15.994914619570
         O           -1.657732123500     1.200188012681    -0.742891123725    15.994914619570
         O            3.222402876500     0.087374012681    -0.725349123725    15.994914619570
         N           -0.222746123500    -0.352047987319     0.096917876275    14.003074004430
         C            0.929841876500     0.511904012681    -0.072444123725    12.000000000000
         C            1.069079876500     1.531291012681     1.064561876275    12.000000000000
         C           -2.588375123500    -0.927119987319    -0.060552123725    12.000000000000
         C           -1.471425923500     0.097703012681    -0.266450223725    12.000000000000
         C            2.203811876500    -0.293153987319    -0.180486123725    12.000000000000
         C           -3.895559123500    -0.237932987319     0.315167876275    12.000000000000
         H            0.807740876500     1.052227012681    -1.015273123725     1.007825032230
         H           -0.095029123500    -1.244091987319     0.556429876275     1.007825032230
         H            1.188018876500     1.016205012681     2.021738876275     1.007825032230
         H            1.934864876500     2.176777012681     0.892752876275     1.007825032230
         H            0.165260876500     2.142466012681     1.091845876275     1.007825032230
         H           -2.707941123500    -1.469356987319    -1.006671123725     1.007825032230
         H           -2.304736123500    -1.669721987319     0.694267876275     1.007825032230
         H           -3.809316123500     0.255586012681     1.286704876275     1.007825032230
         H           -4.140393123500     0.522182012681    -0.427673123725     1.007825032230
         H           -4.713179123500    -0.961475987319     0.368848876275     1.007825032230
         H            2.999816876500    -1.904268987319     0.382710876275     1.007825032230

  Basis Set: AUG-CC-PVTZ
    Blend: AUG-CC-PVTZ
  Basis Set: (AUG-CC-PVTZ AUX)
    Blend: AUG-CC-PVTZ-JKFIT
	 Reference Energy          =    -512.8871735310389113 [Eh]
	 Singles Energy            =      -0.0000000000000000 [Eh]
	 Same-Spin Energy          =      -0.5107848614682795 [Eh]
	 Opposite-Spin Energy      =      -1.6143464515258252 [Eh]
	 Correlation Energy        =      -2.1251313129941050 [Eh]
	 Total Energy              =    -515.0123048440329967 [Eh]

	 ================> DF-SCS-MP2 Energies <==================
	-----------------------------------------------------------
	 SCS Same-Spin Scale       =       0.3333333333333333 [-]
	 SCS Opposite-Spin Scale   =       1.2000000000000000 [-]
	 SCS Same-Spin Energy      =      -0.1702616204894265 [Eh]
	 SCS Opposite-Spin Energy  =      -1.9372157418309901 [Eh]
	 SCS Correlation Energy    =      -2.1074773623204166 [Eh]
	 SCS Total Energy          =    -514.9946508933593350 [Eh]
	-----------------------------------------------------------

  Dipole Moment: [D]
     X:     0.0607      Y:    -3.1911      Z:     2.2367     Total:     3.8973

*** Psi4 exiting successfully. Buy a developer a beer!
