                               Psi4 1.3.2 release

  ==> Input File <==

--------------------------------------------------------------------------
#psi4
#
memory 32 gb

molecule  {
0 1
  O       -1.9756670     1.6664010     0.1857370
  O        1.6511300    -1.1930600    -0.6768240
  O       -3.2820610    -0.0444860    -0.5140140
  N        0.2152580     0.2772540     0.2951010
  C       -0.9464590    -0.4858680    -0.1100250
  C       -1.2010820    -1.6869190     0.8036840
  C        2.5941300     0.7851170     0.3678910
  C        1.4652130    -0.1360080    -0.0663740
  C       -2.1892550     0.3702600    -0.1810000
  C        3.9493650     0.2879730    -0.1118860
  H       -0.7666830    -0.8628490    -1.1247510
  H        0.0773990     1.1958980     0.6978160
  H       -1.3680630    -1.3508140     1.8303240
  H       -2.0758160    -2.2433210     0.4601180
  H       -0.3237180    -2.3338760     0.7750620
  H        2.3897550     1.7945520    -0.0146150
  H        2.5759940     0.8629050     1.4619760
  H        4.1547340    -0.7097650     0.2816620
  H        3.9712690     0.2233490    -1.2012200
  H        4.7420490     0.9661550     0.2171920
  H       -2.8492950     2.1039740     0.1058080
units angstrom
no_reorient  #important for SAPT in psi4, default
symmetry c1  #important for SAPT in psi4, default
}

set PROPERTIES_ORIGIN ["COM"]
properties('MP2/aug-cc-pvtz', properties = ['dipole'])
--------------------------------------------------------------------------

    Molecular point group: c1
  Charge       = 0
  Multiplicity = 1
  Basis Set: AUG-CC-PVTZ
    Blend: AUG-CC-PVTZ
  Basis Set: (AUG-CC-PVTZ AUX)
    Blend: AUG-CC-PVTZ-JKFIT

    Orbital Energies [Eh]
    ---------------------

    Doubly Occupied:

       1A    -20.635978     2A    -20.563794     3A    -20.524591
       4A    -15.592373     5A    -11.404763     6A    -11.356143
       7A    -11.296423     8A    -11.247561     9A    -11.226895
      10A    -11.219506    11A     -1.478434    12A     -1.380662
      13A     -1.373540    14A     -1.245345    15A     -1.074910
      16A     -1.035667    17A     -0.927775    18A     -0.885411
      19A     -0.816693    20A     -0.792350    21A     -0.730867
      22A     -0.714578    23A     -0.682921    24A     -0.665576
      25A     -0.641251    26A     -0.633386    27A     -0.610336
      28A     -0.602675    29A     -0.580862    30A     -0.546542
      31A     -0.543922    32A     -0.524113    33A     -0.520536
      34A     -0.519177    35A     -0.497542    36A     -0.488194
      37A     -0.467860    38A     -0.428789    39A     -0.400259

  @DF-RHF Final Energy:  -512.88596114866527

   => Energetics <=

    Nuclear Repulsion Energy =            548.1983316511700650
    One-Electron Energy =               -1788.4121853637698223
    Two-Electron Energy =                 727.3278925639344834
    Total Energy =                       -512.8859611486652739
  Basis Set: (AUG-CC-PVTZ AUX)
    Blend: AUG-CC-PVTZ-RI
    Molecular point group: c1

    Geometry (in Angstrom), charge = 0, multiplicity = 1:

       Center              X                  Y                   Z               Mass
    ------------   -----------------  -----------------  -----------------  -----------------
         O           -1.975666962997     1.666400952056     0.185737186725    15.994914619570
         O            1.651130037003    -1.193060047944    -0.676823813275    15.994914619570
         O           -3.282060962997    -0.044486047944    -0.514013813275    15.994914619570
         N            0.215258037003     0.277253952056     0.295101186725    14.003074004430
         C           -0.946458962997    -0.485868047944    -0.110024813275    12.000000000000
         C           -1.201081962997    -1.686919047944     0.803684186725    12.000000000000
         C            2.594130037003     0.785116952056     0.367891186725    12.000000000000
         C            1.465213037003    -0.136008047944    -0.066373813275    12.000000000000
         C           -2.189254962997     0.370259952056    -0.180999813275    12.000000000000
         C            3.949365037003     0.287972952056    -0.111885813275    12.000000000000
         H           -0.766682962997    -0.862849047944    -1.124750813275     1.007825032230
         H            0.077399037003     1.195897952056     0.697816186725     1.007825032230
         H           -1.368062962997    -1.350814047944     1.830324186725     1.007825032230
         H           -2.075815962997    -2.243321047944     0.460118186725     1.007825032230
         H           -0.323717962997    -2.333876047944     0.775062186725     1.007825032230
         H            2.389755037003     1.794551952056    -0.014614813275     1.007825032230
         H            2.575994037003     0.862904952056     1.461976186725     1.007825032230
         H            4.154734037003    -0.709765047944     0.281662186725     1.007825032230
         H            3.971269037003     0.223348952056    -1.201219813275     1.007825032230
         H            4.742049037003     0.966154952056     0.217192186725     1.007825032230
         H           -2.849294962997     2.103973952056     0.105808186725     1.007825032230

  Basis Set: AUG-CC-PVTZ
    Blend: AUG-CC-PVTZ
  Basis Set: (AUG-CC-PVTZ AUX)
    Blend: AUG-CC-PVTZ-JKFIT
	 Reference Energy          =    -512.8859611486652739 [Eh]
	 Singles Energy            =      -0.0000000000000000 [Eh]
	 Same-Spin Energy          =      -0.5113730099017499 [Eh]
	 Opposite-Spin Energy      =      -1.6149681014067072 [Eh]
	 Correlation Energy        =      -2.1263411113084572 [Eh]
	 Total Energy              =    -515.0123022599736942 [Eh]

	 ================> DF-SCS-MP2 Energies <==================
	-----------------------------------------------------------
	 SCS Same-Spin Scale       =       0.3333333333333333 [-]
	 SCS Opposite-Spin Scale   =       1.2000000000000000 [-]
	 SCS Same-Spin Energy      =      -0.1704576699672500 [Eh]
	 SCS Opposite-Spin Energy  =      -1.9379617216880485 [Eh]
	 SCS Correlation Energy    =      -2.1084193916552985 [Eh]
	 SCS Total Energy          =    -514.9943805403205488 [Eh]
	-----------------------------------------------------------

  Dipole Moment: [D]
     X:    -0.0445      Y:     3.3151      Z:     1.9608     Total:     3.8518

*** Psi4 exiting successfully. Buy a developer a beer!
