                               Psi4 1.3.2 release

  ==> Input File <==

--------------------------------------------------------------------------
#psi4
#
memory 32 gb

molecule  {
0 1
  O       -1.9756670     1.6664010     0.1857370
  O        1.6511300    -1.1930600    -0.6768240
  O       -3.2820610    -0.0444860    -0.5140140
  N        0.2152580     0.2772540     0.2951010
  C       -0.9157063    -0.5230873    -0.1249492
  C       -1.2010820    -1.6869190     0.8036840
  C        2.5941300     0.7851170     0.3678910
  C        1.4652130    -0.1360080    -0.0663740
  C       -2.1892550     0.3702600    -0.1810000
  C        3.9493650     0.2879730    -0.1118860
  H       -0.7666830    -0.8628490    -1.1247510
  H        0.1124431     1.1990168     0.7011474
  H       -1.3680630    -1.3508140     1.8303240
  H       -2.0758160    -2.2433210     0.4601180
  H       -0.3237180    -2.3338760     0.7750620
  H        2.3897550     1.7945520    -0.0146150
  H        2.5759940     0.8629050     1.4619760
  H        4.1547340    -0.7097650     0.2816620
  H        3.9712690     0.2233490    -1.2012200
  H        4.7420490     0.9661550     0.2171920
  H       -2.8492950     2.1039740     0.1058080
units angstrom
no_reorient  #important for SAPT in psi4, default
symmetry c1  #important for SAPT in psi4, default
}

set PROPERTIES_ORIGIN ["COM"]
properties('MP2/aug-cc-pvtz', properties = ['dipole'])
--------------------------------------------------------------------------

    Molecular point group: c1
  Charge       = 0
  Multiplicity = 1
  Basis Set: AUG-CC-PVTZ
    Blend: AUG-CC-PVTZ
  Basis Set: (AUG-CC-PVTZ AUX)
    Blend: AUG-CC-PVTZ-JKFIT

    Orbital Energies [Eh]
    ---------------------

    Doubly Occupied:

       1A    -20.635013     2A    -20.562962     3A    -20.524195
       4A    -15.592250     5A    -11.403809     6A    -11.354735
       7A    -11.297682     8A    -11.247508     9A    -11.225705
      10A    -11.219545    11A     -1.476182    12A     -1.380919
      13A     -1.372010    14A     -1.245168    15A     -1.074520
      16A     -1.035336    17A     -0.923412    18A     -0.882621
      19A     -0.820445    20A     -0.789357    21A     -0.727763
      22A     -0.713522    23A     -0.683677    24A     -0.664665
      25A     -0.641194    26A     -0.635698    27A     -0.607960
      28A     -0.603858    29A     -0.584747    30A     -0.547045
      31A     -0.540560    32A     -0.524893    33A     -0.523590
      34A     -0.519481    35A     -0.496894    36A     -0.489819
      37A     -0.462560    38A     -0.428069    39A     -0.401420

  @DF-RHF Final Energy:  -512.88380674595567

   => Energetics <=

    Nuclear Repulsion Energy =            547.9124906114980149
    One-Electron Energy =               -1787.8710160922867090
    Two-Electron Energy =                 727.0747187348330272
    Total Energy =                       -512.8838067459556669
  Basis Set: (AUG-CC-PVTZ AUX)
    Blend: AUG-CC-PVTZ-RI
    Molecular point group: c1

    Geometry (in Angstrom), charge = 0, multiplicity = 1:

       Center              X                  Y                   Z               Mass
    ------------   -----------------  -----------------  -----------------  -----------------
         O           -1.978454168278     1.669457934849     0.186948520672    15.994914619570
         O            1.648342831722    -1.190003065151    -0.675612479328    15.994914619570
         O           -3.284848168278    -0.041429065151    -0.512802479328    15.994914619570
         N            0.212470831722     0.280310934849     0.296312520672    14.003074004430
         C           -0.918493468278    -0.520030365151    -0.123737679328    12.000000000000
         C           -1.203869168278    -1.683862065151     0.804895520672    12.000000000000
         C            2.591342831722     0.788173934849     0.369102520672    12.000000000000
         C            1.462425831722    -0.132951065151    -0.065162479328    12.000000000000
         C           -2.192042168278     0.373316934849    -0.179788479328    12.000000000000
         C            3.946577831722     0.291029934849    -0.110674479328    12.000000000000
         H           -0.769470168278    -0.859792065151    -1.123539479328     1.007825032230
         H            0.109655931722     1.202073734849     0.702358920672     1.007825032230
         H           -1.370850168278    -1.347757065151     1.831535520672     1.007825032230
         H           -2.078603168278    -2.240264065151     0.461329520672     1.007825032230
         H           -0.326505168278    -2.330819065151     0.776273520672     1.007825032230
         H            2.386967831722     1.797608934849    -0.013403479328     1.007825032230
         H            2.573206831722     0.865961934849     1.463187520672     1.007825032230
         H            4.151946831722    -0.706708065151     0.282873520672     1.007825032230
         H            3.968481831722     0.226405934849    -1.200008479328     1.007825032230
         H            4.739261831722     0.969211934849     0.218403520672     1.007825032230
         H           -2.852082168278     2.107030934849     0.107019520672     1.007825032230

  Basis Set: AUG-CC-PVTZ
    Blend: AUG-CC-PVTZ
  Basis Set: (AUG-CC-PVTZ AUX)
    Blend: AUG-CC-PVTZ-JKFIT
	 Reference Energy          =    -512.8838067459556669 [Eh]
	 Singles Energy            =      -0.0000000000000000 [Eh]
	 Same-Spin Energy          =      -0.5111037675823082 [Eh]
	 Opposite-Spin Energy      =      -1.6146396936020360 [Eh]
	 Correlation Energy        =      -2.1257434611843440 [Eh]
	 Total Energy              =    -515.0095502071400233 [Eh]

	 ================> DF-SCS-MP2 Energies <==================
	-----------------------------------------------------------
	 SCS Same-Spin Scale       =       0.3333333333333333 [-]
	 SCS Opposite-Spin Scale   =       1.2000000000000000 [-]
	 SCS Same-Spin Energy      =      -0.1703679225274361 [Eh]
	 SCS Opposite-Spin Energy  =      -1.9375676323224431 [Eh]
	 SCS Correlation Energy    =      -2.1079355548498793 [Eh]
	 SCS Total Energy          =    -514.9917423008055266 [Eh]
	-----------------------------------------------------------

  Dipole Moment: [D]
     X:    -0.0335      Y:     3.3070      Z:     1.9626     Total:     3.8457

*** Psi4 exiting successfully. Buy a developer a beer!
