                               Psi4 1.3.2 release

  ==> Input File <==

--------------------------------------------------------------------------
#psi4
#
memory 32 gb

molecule  {
0 1
  O       -1.9756670     1.6664010     0.1857370
  O        1.6511300    -1.1930600    -0.6768240
  O       -3.2820610    -0.0444860    -0.5140140
  N        0.2152580     0.2772540     0.2951010
  C       -0.8999048    -0.5344460    -0.1449259
  C       -1.2010820    -1.6869190     0.8036840
  C        2.5941300     0.7851170     0.3678910
  C        1.4351244    -0.1914798    -0.0999330
  C       -2.1892550     0.3702600    -0.1810000
  C        3.9493650     0.2879730    -0.1118860
  H       -0.7666830    -0.8628490    -1.1247510
  H        0.0773990     1.1958980     0.6978160
  H       -1.3680630    -1.3508140     1.8303240
  H       -2.0758160    -2.2433210     0.4601180
  H       -0.3237180    -2.3338760     0.7750620
  H        2.3897550     1.7945520    -0.0146150
  H        2.5759940     0.8629050     1.4619760
  H        4.1547340    -0.7097650     0.2816620
  H        3.9712690     0.2233490    -1.2012200
  H        4.7420490     0.9661550     0.2171920
  H       -2.8492950     2.1039740     0.1058080
units angstrom
no_reorient  #important for SAPT in psi4, default
symmetry c1  #important for SAPT in psi4, default
}

set PROPERTIES_ORIGIN ["COM"]
properties('MP2/aug-cc-pvtz', properties = ['dipole'])
--------------------------------------------------------------------------

    Molecular point group: c1
  Charge       = 0
  Multiplicity = 1
  Basis Set: AUG-CC-PVTZ
    Blend: AUG-CC-PVTZ
  Basis Set: (AUG-CC-PVTZ AUX)
    Blend: AUG-CC-PVTZ-JKFIT

    Orbital Energies [Eh]
    ---------------------

    Doubly Occupied:

       1A    -20.635335     2A    -20.562534     3A    -20.533401
       4A    -15.588546     5A    -11.403033     6A    -11.351147
       7A    -11.295665     8A    -11.241880     9A    -11.226448
      10A    -11.215853    11A     -1.475854    12A     -1.419829
      13A     -1.371664    14A     -1.250940    15A     -1.064351
      16A     -1.028478    17A     -0.919810    18A     -0.871144
      19A     -0.824948    20A     -0.792934    21A     -0.724258
      22A     -0.713722    23A     -0.686346    24A     -0.665393
      25A     -0.640550    26A     -0.637674    27A     -0.616872
      28A     -0.606361    29A     -0.588308    30A     -0.548394
      31A     -0.542173    32A     -0.530784    33A     -0.525284
      34A     -0.516667    35A     -0.495634    36A     -0.494287
      37A     -0.462361    38A     -0.418990    39A     -0.405657

  @DF-RHF Final Energy:  -512.87725626752331

   => Energetics <=

    Nuclear Repulsion Energy =            548.3802607586982276
    One-Electron Energy =               -1788.7280190876717825
    Two-Electron Energy =                 727.4705020614503610
    Total Energy =                       -512.8772562675233075
  Basis Set: (AUG-CC-PVTZ AUX)
    Blend: AUG-CC-PVTZ-RI
    Molecular point group: c1

    Geometry (in Angstrom), charge = 0, multiplicity = 1:

       Center              X                  Y                   Z               Mass
    ------------   -----------------  -----------------  -----------------  -----------------
         O           -1.977028939268     1.675007583975     0.191399947831    15.994914619570
         O            1.649768060732    -1.184453416025    -0.671161052169    15.994914619570
         O           -3.283422939268    -0.035879416025    -0.508351052169    15.994914619570
         N            0.213896060732     0.285860583975     0.300763947831    14.003074004430
         C           -0.901266739268    -0.525839416025    -0.139262952169    12.000000000000
         C           -1.202443939268    -1.678312416025     0.809346947831    12.000000000000
         C            2.592768060732     0.793723583975     0.373553947831    12.000000000000
         C            1.433762460732    -0.182873216025    -0.094270052169    12.000000000000
         C           -2.190616939268     0.378866583975    -0.175337052169    12.000000000000
         C            3.948003060732     0.296579583975    -0.106223052169    12.000000000000
         H           -0.768044939268    -0.854242416025    -1.119088052169     1.007825032230
         H            0.076037060732     1.204504583975     0.703478947831     1.007825032230
         H           -1.369424939268    -1.342207416025     1.835986947831     1.007825032230
         H           -2.077177939268    -2.234714416025     0.465780947831     1.007825032230
         H           -0.325079939268    -2.325269416025     0.780724947831     1.007825032230
         H            2.388393060732     1.803158583975    -0.008952052169     1.007825032230
         H            2.574632060732     0.871511583975     1.467638947831     1.007825032230
         H            4.153372060732    -0.701158416025     0.287324947831     1.007825032230
         H            3.969907060732     0.231955583975    -1.195557052169     1.007825032230
         H            4.740687060732     0.974761583975     0.222854947831     1.007825032230
         H           -2.850656939268     2.112580583975     0.111470947831     1.007825032230

  Basis Set: AUG-CC-PVTZ
    Blend: AUG-CC-PVTZ
  Basis Set: (AUG-CC-PVTZ AUX)
    Blend: AUG-CC-PVTZ-JKFIT
	 Reference Energy          =    -512.8772562675233075 [Eh]
	 Singles Energy            =      -0.0000000000000000 [Eh]
	 Same-Spin Energy          =      -0.5097915064117081 [Eh]
	 Opposite-Spin Energy      =      -1.6122771117940062 [Eh]
	 Correlation Energy        =      -2.1220686182057142 [Eh]
	 Total Energy              =    -514.9993248857290382 [Eh]

	 ================> DF-SCS-MP2 Energies <==================
	-----------------------------------------------------------
	 SCS Same-Spin Scale       =       0.3333333333333333 [-]
	 SCS Opposite-Spin Scale   =       1.2000000000000000 [-]
	 SCS Same-Spin Energy      =      -0.1699305021372360 [Eh]
	 SCS Opposite-Spin Energy  =      -1.9347325341528074 [Eh]
	 SCS Correlation Energy    =      -2.1046630362900434 [Eh]
	 SCS Total Energy          =    -514.9819193038133562 [Eh]
	-----------------------------------------------------------

  Dipole Moment: [D]
     X:    -0.1777      Y:     3.0206      Z:     1.7727     Total:     3.5069

*** Psi4 exiting successfully. Buy a developer a beer!
