                               Psi4 1.3.2 release

  ==> Input File <==

--------------------------------------------------------------------------
#psi4
#
memory 32 gb

molecule  {
0 1
  O       -1.9756670     1.6664010     0.1857370
  O        1.6511300    -1.1930600    -0.6768240
  O       -3.2820610    -0.0444860    -0.5140140
  N        0.2152580     0.2772540     0.2951010
  C       -0.9464590    -0.4858680    -0.1100250
  C       -1.2010820    -1.6869190     0.8036840
  C        2.5941300     0.7851170     0.3678910
  C        1.4652130    -0.1360080    -0.0663740
  C       -2.1662241     0.3656054    -0.1771902
  C        3.9493650     0.2879730    -0.1118860
  H       -0.7666830    -0.8628490    -1.1247510
  H        0.0773990     1.1958980     0.6978160
  H       -1.3680630    -1.3508140     1.8303240
  H       -2.0758160    -2.2433210     0.4601180
  H       -0.3237180    -2.3338760     0.7750620
  H        2.3897550     1.7945520    -0.0146150
  H        2.5759940     0.8629050     1.4619760
  H        4.1547340    -0.7097650     0.2816620
  H        3.9712690     0.2233490    -1.2012200
  H        4.7420490     0.9661550     0.2171920
  H       -2.8422338     2.1186800     0.1109681
units angstrom
no_reorient  #important for SAPT in psi4, default
symmetry c1  #important for SAPT in psi4, default
}

set PROPERTIES_ORIGIN ["COM"]
properties('MP2/aug-cc-pvtz', properties = ['dipole'])
--------------------------------------------------------------------------

    Molecular point group: c1
  Charge       = 0
  Multiplicity = 1
  Basis Set: AUG-CC-PVTZ
    Blend: AUG-CC-PVTZ
  Basis Set: (AUG-CC-PVTZ AUX)
    Blend: AUG-CC-PVTZ-JKFIT

    Orbital Energies [Eh]
    ---------------------

    Doubly Occupied:

       1A    -20.636116     2A    -20.560467     3A    -20.525577
       4A    -15.593524     5A    -11.406842     6A    -11.357073
       7A    -11.297493     8A    -11.248226     9A    -11.228348
      10A    -11.220025    11A     -1.474048    12A     -1.381616
      13A     -1.361592    14A     -1.247384    15A     -1.077655
      16A     -1.037942    17A     -0.931615    18A     -0.886999
      19A     -0.819586    20A     -0.793197    21A     -0.732127
      22A     -0.711029    23A     -0.683717    24A     -0.665282
      25A     -0.641383    26A     -0.630737    27A     -0.607845
      28A     -0.602863    29A     -0.581724    30A     -0.547768
      31A     -0.543843    32A     -0.524782    33A     -0.521037
      34A     -0.519754    35A     -0.495465    36A     -0.484482
      37A     -0.467744    38A     -0.429710    39A     -0.401517

  @DF-RHF Final Energy:  -512.88304134230236

   => Energetics <=

    Nuclear Repulsion Energy =            548.2743440655581253
    One-Electron Energy =               -1788.5585075897770366
    Two-Electron Energy =                 727.4011221819165485
    Total Energy =                       -512.8830413423023629
  Basis Set: (AUG-CC-PVTZ AUX)
    Blend: AUG-CC-PVTZ-RI
    Molecular point group: c1

    Geometry (in Angstrom), charge = 0, multiplicity = 1:

       Center              X                  Y                   Z               Mass
    ------------   -----------------  -----------------  -----------------  -----------------
         O           -1.977621051688     1.666683801880     0.185386206429    15.994914619570
         O            1.649175948312    -1.192777198120    -0.677174793571    15.994914619570
         O           -3.284015051688    -0.044203198120    -0.514364793571    15.994914619570
         N            0.213303948312     0.277536801880     0.294750206429    14.003074004430
         C           -0.948413051688    -0.485585198120    -0.110375793571    12.000000000000
         C           -1.203036051688    -1.686636198120     0.803333206429    12.000000000000
         C            2.592175948312     0.785399801880     0.367540206429    12.000000000000
         C            1.463258948312    -0.135725198120    -0.066724793571    12.000000000000
         C           -2.168178151688     0.365888201880    -0.177540993571    12.000000000000
         C            3.947410948312     0.288255801880    -0.112236793571    12.000000000000
         H           -0.768637051688    -0.862566198120    -1.125101793571     1.007825032230
         H            0.075444948312     1.196180801880     0.697465206429     1.007825032230
         H           -1.370017051688    -1.350531198120     1.829973206429     1.007825032230
         H           -2.077770051688    -2.243038198120     0.459767206429     1.007825032230
         H           -0.325672051688    -2.333593198120     0.774711206429     1.007825032230
         H            2.387800948312     1.794834801880    -0.014965793571     1.007825032230
         H            2.574039948312     0.863187801880     1.461625206429     1.007825032230
         H            4.152779948312    -0.709482198120     0.281311206429     1.007825032230
         H            3.969314948312     0.223631801880    -1.201570793571     1.007825032230
         H            4.740094948312     0.966437801880     0.216841206429     1.007825032230
         H           -2.844187851688     2.118962801880     0.110617306429     1.007825032230

  Basis Set: AUG-CC-PVTZ
    Blend: AUG-CC-PVTZ
  Basis Set: (AUG-CC-PVTZ AUX)
    Blend: AUG-CC-PVTZ-JKFIT
	 Reference Energy          =    -512.8830413423023629 [Eh]
	 Singles Energy            =      -0.0000000000000000 [Eh]
	 Same-Spin Energy          =      -0.5118746115962780 [Eh]
	 Opposite-Spin Energy      =      -1.6159312471701912 [Eh]
	 Correlation Energy        =      -2.1278058587664690 [Eh]
	 Total Energy              =    -515.0108472010688274 [Eh]

	 ================> DF-SCS-MP2 Energies <==================
	-----------------------------------------------------------
	 SCS Same-Spin Scale       =       0.3333333333333333 [-]
	 SCS Opposite-Spin Scale   =       1.2000000000000000 [-]
	 SCS Same-Spin Energy      =      -0.1706248705320927 [Eh]
	 SCS Opposite-Spin Energy  =      -1.9391174966042293 [Eh]
	 SCS Correlation Energy    =      -2.1097423671363220 [Eh]
	 SCS Total Energy          =    -514.9927837094386405 [Eh]
	-----------------------------------------------------------

  Dipole Moment: [D]
     X:     0.1036      Y:     3.3189      Z:     1.9995     Total:     3.8760

*** Psi4 exiting successfully. Buy a developer a beer!
