                               Psi4 1.3.2 release

  ==> Input File <==

--------------------------------------------------------------------------
#psi4
#
memory 32 gb

molecule  {
0 1
  O       -2.0449944     1.6790962     0.1742942
  O        1.6511300    -1.1930600    -0.6768240
  O       -3.3053179     0.0139558    -0.5044014
  N        0.2152580     0.2772540     0.2951010
  C       -0.9464590    -0.4858680    -0.1100250
  C       -1.2010820    -1.6869190     0.8036840
  C        2.5941300     0.7851170     0.3678910
  C        1.4652130    -0.1360080    -0.0663740
  C       -2.1892550     0.3702600    -0.1810000
  C        3.9493650     0.2879730    -0.1118860
  H       -0.7666830    -0.8628490    -1.1247510
  H        0.0773990     1.1958980     0.6978160
  H       -1.3680630    -1.3508140     1.8303240
  H       -2.0758160    -2.2433210     0.4601180
  H       -0.3237180    -2.3338760     0.7750620
  H        2.3897550     1.7945520    -0.0146150
  H        2.5759940     0.8629050     1.4619760
  H        4.1547340    -0.7097650     0.2816620
  H        3.9712690     0.2233490    -1.2012200
  H        4.7420490     0.9661550     0.2171920
  H       -2.8492950     2.1039740     0.1058080
units angstrom
no_reorient  #important for SAPT in psi4, default
symmetry c1  #important for SAPT in psi4, default
}

set PROPERTIES_ORIGIN ["COM"]
properties('MP2/aug-cc-pvtz', properties = ['dipole'])
--------------------------------------------------------------------------

    Molecular point group: c1
  Charge       = 0
  Multiplicity = 1
  Basis Set: AUG-CC-PVTZ
    Blend: AUG-CC-PVTZ
  Basis Set: (AUG-CC-PVTZ AUX)
    Blend: AUG-CC-PVTZ-JKFIT

    Orbital Energies [Eh]
    ---------------------

    Doubly Occupied:

       1A    -20.620388     2A    -20.559157     3A    -20.527041
       4A    -15.595953     5A    -11.404351     6A    -11.358664
       7A    -11.303000     8A    -11.249125     9A    -11.230178
      10A    -11.220713    11A     -1.485210    12A     -1.383160
      13A     -1.368705    14A     -1.249019    15A     -1.078148
      16A     -1.038563    17A     -0.933902    18A     -0.889156
      19A     -0.828491    20A     -0.794343    21A     -0.734459
      22A     -0.712573    23A     -0.684987    24A     -0.666327
      25A     -0.642448    26A     -0.632818    27A     -0.609751
      28A     -0.604930    29A     -0.583774    30A     -0.549356
      31A     -0.545298    32A     -0.526046    33A     -0.522022
      34A     -0.520586    35A     -0.496420    36A     -0.486884
      37A     -0.466937    38A     -0.431153    39A     -0.403398

  @DF-RHF Final Energy:  -512.88442085149279

   => Energetics <=

    Nuclear Repulsion Energy =            547.5500185004334526
    One-Electron Energy =               -1786.9940109961096368
    Two-Electron Energy =                 726.5595716441833929
    Total Energy =                       -512.8844208514927914
  Basis Set: (AUG-CC-PVTZ AUX)
    Blend: AUG-CC-PVTZ-RI
    Molecular point group: c1

    Geometry (in Angstrom), charge = 0, multiplicity = 1:

       Center              X                  Y                   Z               Mass
    ------------   -----------------  -----------------  -----------------  -----------------
         O           -2.034786613410     1.671253043858     0.174496172808    15.994914619570
         O            1.661337786590    -1.200903156142    -0.676622027192    15.994914619570
         O           -3.295110113410     0.006112643858    -0.504199427192    15.994914619570
         N            0.225465786590     0.269410843858     0.295302972808    14.003074004430
         C           -0.936251213410    -0.493711156142    -0.109823027192    12.000000000000
         C           -1.190874213410    -1.694762156142     0.803885972808    12.000000000000
         C            2.604337786590     0.777273843858     0.368092972808    12.000000000000
         C            1.475420786590    -0.143851156142    -0.066172027192    12.000000000000
         C           -2.179047213410     0.362416843858    -0.180798027192    12.000000000000
         C            3.959572786590     0.280129843858    -0.111684027192    12.000000000000
         H           -0.756475213410    -0.870692156142    -1.124549027192     1.007825032230
         H            0.087606786590     1.188054843858     0.698017972808     1.007825032230
         H           -1.357855213410    -1.358657156142     1.830525972808     1.007825032230
         H           -2.065608213410    -2.251164156142     0.460319972808     1.007825032230
         H           -0.313510213410    -2.341719156142     0.775263972808     1.007825032230
         H            2.399962786590     1.786708843858    -0.014413027192     1.007825032230
         H            2.586201786590     0.855061843858     1.462177972808     1.007825032230
         H            4.164941786590    -0.717608156142     0.281863972808     1.007825032230
         H            3.981476786590     0.215505843858    -1.201018027192     1.007825032230
         H            4.752256786590     0.958311843858     0.217393972808     1.007825032230
         H           -2.839087213410     2.096130843858     0.106009972808     1.007825032230

  Basis Set: AUG-CC-PVTZ
    Blend: AUG-CC-PVTZ
  Basis Set: (AUG-CC-PVTZ AUX)
    Blend: AUG-CC-PVTZ-JKFIT
	 Reference Energy          =    -512.8844208514927914 [Eh]
	 Singles Energy            =      -0.0000000000000000 [Eh]
	 Same-Spin Energy          =      -0.5098655100656987 [Eh]
	 Opposite-Spin Energy      =      -1.6119731767497241 [Eh]
	 Correlation Energy        =      -2.1218386868154226 [Eh]
	 Total Energy              =    -515.0062595383081998 [Eh]

	 ================> DF-SCS-MP2 Energies <==================
	-----------------------------------------------------------
	 SCS Same-Spin Scale       =       0.3333333333333333 [-]
	 SCS Opposite-Spin Scale   =       1.2000000000000000 [-]
	 SCS Same-Spin Energy      =      -0.1699551700218996 [Eh]
	 SCS Opposite-Spin Energy  =      -1.9343678120996688 [Eh]
	 SCS Correlation Energy    =      -2.1043229821215683 [Eh]
	 SCS Total Energy          =    -514.9887438336143077 [Eh]
	-----------------------------------------------------------

  Dipole Moment: [D]
     X:     0.2420      Y:     3.0570      Z:     1.9679     Total:     3.6437

*** Psi4 exiting successfully. Buy a developer a beer!
