                               Psi4 1.3.2 release

  ==> Input File <==

--------------------------------------------------------------------------
#psi4
#
memory 32 gb

molecule  {
0 1
  O       -1.9756670     1.6664010     0.1857370
  O        1.6934375    -1.1848443    -0.6766438
  O       -3.2820610    -0.0444860    -0.5140140
  N        0.2346874     0.3160642     0.3147750
  C       -0.9464590    -0.4858680    -0.1100250
  C       -1.2010820    -1.6869190     0.8036840
  C        2.5941300     0.7851170     0.3678910
  C        1.4652130    -0.1360080    -0.0663740
  C       -2.1892550     0.3702600    -0.1810000
  C        3.9493650     0.2879730    -0.1118860
  H       -0.7666830    -0.8628490    -1.1247510
  H        0.0773990     1.1958980     0.6978160
  H       -1.3680630    -1.3508140     1.8303240
  H       -2.0758160    -2.2433210     0.4601180
  H       -0.3237180    -2.3338760     0.7750620
  H        2.3897550     1.7945520    -0.0146150
  H        2.5759940     0.8629050     1.4619760
  H        4.1547340    -0.7097650     0.2816620
  H        3.9712690     0.2233490    -1.2012200
  H        4.7420490     0.9661550     0.2171920
  H       -2.8492950     2.1039740     0.1058080
units angstrom
no_reorient  #important for SAPT in psi4, default
symmetry c1  #important for SAPT in psi4, default
}

set PROPERTIES_ORIGIN ["COM"]
properties('MP2/aug-cc-pvtz', properties = ['dipole'])
--------------------------------------------------------------------------

    Molecular point group: c1
  Charge       = 0
  Multiplicity = 1
  Basis Set: AUG-CC-PVTZ
    Blend: AUG-CC-PVTZ
  Basis Set: (AUG-CC-PVTZ AUX)
    Blend: AUG-CC-PVTZ-JKFIT

    Orbital Energies [Eh]
    ---------------------

    Doubly Occupied:

       1A    -20.636976     2A    -20.565105     3A    -20.527064
       4A    -15.593129     5A    -11.406026     6A    -11.356871
       7A    -11.301192     8A    -11.242775     9A    -11.229797
      10A    -11.216464    11A     -1.479472    12A     -1.379645
      13A     -1.374737    14A     -1.245663    15A     -1.074334
      16A     -1.035669    17A     -0.928341    18A     -0.883496
      19A     -0.821246    20A     -0.797583    21A     -0.726615
      22A     -0.716977    23A     -0.679712    24A     -0.667349
      25A     -0.639863    26A     -0.634170    27A     -0.612397
      28A     -0.605246    29A     -0.579537    30A     -0.547825
      31A     -0.544960    32A     -0.521635    33A     -0.520101
      34A     -0.516595    35A     -0.496968    36A     -0.488488
      37A     -0.469096    38A     -0.427100    39A     -0.405835

  @DF-RHF Final Energy:  -512.88269083937757

   => Energetics <=

    Nuclear Repulsion Energy =            547.3740791138841359
    One-Electron Energy =               -1786.7214374917009536
    Two-Electron Energy =                 726.4646675384392438
    Total Energy =                       -512.8826908393775739
  Basis Set: (AUG-CC-PVTZ AUX)
    Blend: AUG-CC-PVTZ-RI
    Molecular point group: c1

    Geometry (in Angstrom), charge = 0, multiplicity = 1:

       Center              X                  Y                   Z               Mass
    ------------   -----------------  -----------------  -----------------  -----------------
         O           -1.982206914158     1.661749036348     0.183818311072    15.994914619570
         O            1.686897585842    -1.189496263652    -0.678562488928    15.994914619570
         O           -3.288600914158    -0.049137963652    -0.515932688928    15.994914619570
         N            0.228147485842     0.311412236348     0.312856311072    14.003074004430
         C           -0.952998914158    -0.490519963652    -0.111943688928    12.000000000000
         C           -1.207621914158    -1.691570963652     0.801765311072    12.000000000000
         C            2.587590085842     0.780465036348     0.365972311072    12.000000000000
         C            1.458673085842    -0.140659963652    -0.068292688928    12.000000000000
         C           -2.195794914158     0.365608036348    -0.182918688928    12.000000000000
         C            3.942825085842     0.283321036348    -0.113804688928    12.000000000000
         H           -0.773222914158    -0.867500963652    -1.126669688928     1.007825032230
         H            0.070859085842     1.191246036348     0.695897311072     1.007825032230
         H           -1.374602914158    -1.355465963652     1.828405311072     1.007825032230
         H           -2.082355914158    -2.247972963652     0.458199311072     1.007825032230
         H           -0.330257914158    -2.338527963652     0.773143311072     1.007825032230
         H            2.383215085842     1.789900036348    -0.016533688928     1.007825032230
         H            2.569454085842     0.858253036348     1.460057311072     1.007825032230
         H            4.148194085842    -0.714416963652     0.279743311072     1.007825032230
         H            3.964729085842     0.218697036348    -1.203138688928     1.007825032230
         H            4.735509085842     0.961503036348     0.215273311072     1.007825032230
         H           -2.855834914158     2.099322036348     0.103889311072     1.007825032230

  Basis Set: AUG-CC-PVTZ
    Blend: AUG-CC-PVTZ
  Basis Set: (AUG-CC-PVTZ AUX)
    Blend: AUG-CC-PVTZ-JKFIT
	 Reference Energy          =    -512.8826908393775739 [Eh]
	 Singles Energy            =      -0.0000000000000000 [Eh]
	 Same-Spin Energy          =      -0.5109927277300038 [Eh]
	 Opposite-Spin Energy      =      -1.6148041588666804 [Eh]
	 Correlation Energy        =      -2.1257968865966843 [Eh]
	 Total Energy              =    -515.0084877259743052 [Eh]

	 ================> DF-SCS-MP2 Energies <==================
	-----------------------------------------------------------
	 SCS Same-Spin Scale       =       0.3333333333333333 [-]
	 SCS Opposite-Spin Scale   =       1.2000000000000000 [-]
	 SCS Same-Spin Energy      =      -0.1703309092433346 [Eh]
	 SCS Opposite-Spin Energy  =      -1.9377649906400163 [Eh]
	 SCS Correlation Energy    =      -2.1080958998833510 [Eh]
	 SCS Total Energy          =    -514.9907867392608978 [Eh]
	-----------------------------------------------------------

  Dipole Moment: [D]
     X:    -0.2813      Y:     3.1862      Z:     1.9269     Total:     3.7342

*** Psi4 exiting successfully. Buy a developer a beer!
