                               Psi4 1.3.2 release

  ==> Input File <==

--------------------------------------------------------------------------
#psi4
#
memory 32 gb

molecule  {
0 1
  O       -1.9756670     1.6664010     0.1857370
  O        1.6511300    -1.1930600    -0.6768240
  O       -3.2820610    -0.0444860    -0.5140140
  N        0.2152580     0.2772540     0.2951010
  C       -0.9889268    -0.5001734    -0.1391021
  C       -1.2010820    -1.6869190     0.8036840
  C        2.5941300     0.7851170     0.3678910
  C        1.4652130    -0.1360080    -0.0663740
  C       -2.1892550     0.3702600    -0.1810000
  C        3.9493650     0.2879730    -0.1118860
  H       -0.7666830    -0.8628490    -1.1247510
  H        0.0773990     1.1958980     0.6978160
  H       -1.3680630    -1.3508140     1.8303240
  H       -2.0797567    -2.2182536     0.4316696
  H       -0.3237180    -2.3338760     0.7750620
  H        2.3897550     1.7945520    -0.0146150
  H        2.5759940     0.8629050     1.4619760
  H        4.1547340    -0.7097650     0.2816620
  H        3.9712690     0.2233490    -1.2012200
  H        4.7420490     0.9661550     0.2171920
  H       -2.8492950     2.1039740     0.1058080
units angstrom
no_reorient  #important for SAPT in psi4, default
symmetry c1  #important for SAPT in psi4, default
}

set PROPERTIES_ORIGIN ["COM"]
properties('MP2/aug-cc-pvtz', properties = ['dipole'])
--------------------------------------------------------------------------

    Molecular point group: c1
  Charge       = 0
  Multiplicity = 1
  Basis Set: AUG-CC-PVTZ
    Blend: AUG-CC-PVTZ
  Basis Set: (AUG-CC-PVTZ AUX)
    Blend: AUG-CC-PVTZ-JKFIT

    Orbital Energies [Eh]
    ---------------------

    Doubly Occupied:

       1A    -20.637828     2A    -20.564663     3A    -20.522032
       4A    -15.589708     5A    -11.405465     6A    -11.353795
       7A    -11.296956     8A    -11.245971     9A    -11.229184
      10A    -11.218376    11A     -1.480319    12A     -1.377321
      13A     -1.375405    14A     -1.234294    15A     -1.076291
      16A     -1.037357    17A     -0.929884    18A     -0.884026
      19A     -0.818198    20A     -0.787933    21A     -0.729317
      22A     -0.715713    23A     -0.678898    24A     -0.668214
      25A     -0.640103    26A     -0.633129    27A     -0.614578
      28A     -0.600372    29A     -0.575140    30A     -0.552773
      31A     -0.543951    32A     -0.523611    33A     -0.518129
      34A     -0.517898    35A     -0.497409    36A     -0.488678
      37A     -0.471836    38A     -0.426185    39A     -0.399219

  @DF-RHF Final Energy:  -512.88301822633775

   => Energetics <=

    Nuclear Repulsion Energy =            547.8562304962935059
    One-Electron Energy =               -1787.7581747623382853
    Two-Electron Energy =                 727.0189260397069120
    Total Energy =                       -512.8830182263377537
  Basis Set: (AUG-CC-PVTZ AUX)
    Blend: AUG-CC-PVTZ-RI
    Molecular point group: c1

    Geometry (in Angstrom), charge = 0, multiplicity = 1:

       Center              X                  Y                   Z               Mass
    ------------   -----------------  -----------------  -----------------  -----------------
         O           -1.972126800638     1.667410101556     0.188339972114    15.994914619570
         O            1.654670199362    -1.192050898444    -0.674221027886    15.994914619570
         O           -3.278520800638    -0.043476898444    -0.511411027886    15.994914619570
         N            0.218798199362     0.278263101556     0.297703972114    14.003074004430
         C           -0.985386600638    -0.499164298444    -0.136499127886    12.000000000000
         C           -1.197541800638    -1.685909898444     0.806286972114    12.000000000000
         C            2.597670199362     0.786126101556     0.370493972114    12.000000000000
         C            1.468753199362    -0.134998898444    -0.063771027886    12.000000000000
         C           -2.185714800638     0.371269101556    -0.178397027886    12.000000000000
         C            3.952905199362     0.288982101556    -0.109283027886    12.000000000000
         H           -0.763142800638    -0.861839898444    -1.122148027886     1.007825032230
         H            0.080939199362     1.196907101556     0.700418972114     1.007825032230
         H           -1.364522800638    -1.349804898444     1.832926972114     1.007825032230
         H           -2.076216500638    -2.217244498444     0.434272572114     1.007825032230
         H           -0.320177800638    -2.332866898444     0.777664972114     1.007825032230
         H            2.393295199362     1.795561101556    -0.012012027886     1.007825032230
         H            2.579534199362     0.863914101556     1.464578972114     1.007825032230
         H            4.158274199362    -0.708755898444     0.284264972114     1.007825032230
         H            3.974809199362     0.224358101556    -1.198617027886     1.007825032230
         H            4.745589199362     0.967164101556     0.219794972114     1.007825032230
         H           -2.845754800638     2.104983101556     0.108410972114     1.007825032230

  Basis Set: AUG-CC-PVTZ
    Blend: AUG-CC-PVTZ
  Basis Set: (AUG-CC-PVTZ AUX)
    Blend: AUG-CC-PVTZ-JKFIT
	 Reference Energy          =    -512.8830182263377537 [Eh]
	 Singles Energy            =      -0.0000000000000000 [Eh]
	 Same-Spin Energy          =      -0.5112329604789451 [Eh]
	 Opposite-Spin Energy      =      -1.6151694100942540 [Eh]
	 Correlation Energy        =      -2.1264023705731989 [Eh]
	 Total Energy              =    -515.0094205969108998 [Eh]

	 ================> DF-SCS-MP2 Energies <==================
	-----------------------------------------------------------
	 SCS Same-Spin Scale       =       0.3333333333333333 [-]
	 SCS Opposite-Spin Scale   =       1.2000000000000000 [-]
	 SCS Same-Spin Energy      =      -0.1704109868263150 [Eh]
	 SCS Opposite-Spin Energy  =      -1.9382032921131047 [Eh]
	 SCS Correlation Energy    =      -2.1086142789394198 [Eh]
	 SCS Total Energy          =    -514.9916325052771526 [Eh]
	-----------------------------------------------------------

  Dipole Moment: [D]
     X:    -0.1945      Y:     3.2783      Z:     1.9398     Total:     3.8141

*** Psi4 exiting successfully. Buy a developer a beer!
