                               Psi4 1.4a3.dev225

  ==> Input File <==

--------------------------------------------------------------------------
#psi4
#
memory 32 gb

molecule  {
0 1
  O        2.1858500    -1.4843500     0.4466430
  O       -1.5901990     1.2021140    -0.7742790
  O        3.2899360     0.0893000    -0.7567370
  N       -0.1552130    -0.3501220     0.0655300
  C        0.9973750     0.5138300    -0.1038320
  C        1.1366130     1.5332170     1.0331740
  C       -2.5208420    -0.9251940    -0.0919400
  C       -1.3552125     0.0656815    -0.2769785
  C        2.2713450    -0.2912280    -0.2118740
  C       -3.8280260    -0.2360070     0.2837800
  H        0.8752740     1.0541530    -1.0466610
  H       -0.0274960    -1.2421660     0.5250420
  H        1.2555520     1.0181310     1.9903510
  H        2.0023980     2.1787030     0.8613650
  H        0.2327940     2.1443920     1.0604580
  H       -2.6404080    -1.4674310    -1.0380590
  H       -2.2372030    -1.6677960     0.6628800
  H       -3.7417830     0.2575120     1.2553170
  H       -4.0728600     0.5241080    -0.4590610
  H       -4.6456460    -0.9595500     0.3374610
  H        3.0673500    -1.9023430     0.3513230
units angstrom
no_reorient  #important for SAPT in psi4, default
symmetry c1  #important for SAPT in psi4, default
}

set PROPERTIES_ORIGIN ["COM"]
properties('MP2/aug-cc-pvtz', properties = ['dipole'])
--------------------------------------------------------------------------

    Molecular point group: c1
  Charge       = 0
  Multiplicity = 1
  Basis Set: AUG-CC-PVTZ
    Blend: AUG-CC-PVTZ
  Basis Set: (AUG-CC-PVTZ AUX)
    Blend: AUG-CC-PVTZ-JKFIT

    Orbital Energies [Eh]
    ---------------------

    Doubly Occupied:

       1A    -20.637835     2A    -20.568299     3A    -20.513146
       4A    -15.604987     5A    -11.407431     6A    -11.353636
       7A    -11.301132     8A    -11.246884     9A    -11.236105
      10A    -11.220004    11A     -1.479903    12A     -1.375985
      13A     -1.366397    14A     -1.256327    15A     -1.078541
      16A     -1.037842    17A     -0.932293    18A     -0.884074
      19A     -0.827067    20A     -0.806673    21A     -0.732477
      22A     -0.717440    23A     -0.675738    24A     -0.663540
      25A     -0.642852    26A     -0.635544    27A     -0.613183
      28A     -0.594064    29A     -0.584371    30A     -0.556955
      31A     -0.552859    32A     -0.529537    33A     -0.517992
      34A     -0.511585    35A     -0.499099    36A     -0.486100
      37A     -0.471007    38A     -0.419770    39A     -0.402559

  @DF-RHF Final Energy:  -512.88181352970128

   => Energetics <=

    Nuclear Repulsion Energy =            548.1889909138994881
    One-Electron Energy =               -1788.2591400609042012
    Two-Electron Energy =                 727.1883356173034372
    Total Energy =                       -512.8818135297012759
  Basis Set: (AUG-CC-PVTZ AUX)
    Blend: AUG-CC-PVTZ-RI
    Molecular point group: c1

    Geometry (in Angstrom), charge = 0, multiplicity = 1:

       Center              X                  Y                   Z               Mass
    ------------   -----------------  -----------------  -----------------  -----------------
         O            2.114290214039    -1.483467970032     0.476305443845    15.994914619570
         O           -1.661758785961     1.202996029968    -0.744616556155    15.994914619570
         O            3.218376214039     0.090182029968    -0.727074556155    15.994914619570
         N           -0.226772785961    -0.349239970032     0.095192443845    14.003074004430
         C            0.925815214039     0.514712029968    -0.074169556155    12.000000000000
         C            1.065053214039     1.534099029968     1.062836443845    12.000000000000
         C           -2.592401785961    -0.924311970032    -0.062277556155    12.000000000000
         C           -1.426772285961     0.066563529968    -0.247316056155    12.000000000000
         C            2.199785214039    -0.290345970032    -0.182211556155    12.000000000000
         C           -3.899585785961    -0.235124970032     0.313442443845    12.000000000000
         H            0.803714214039     1.055035029968    -1.016998556155     1.007825032230
         H           -0.099055785961    -1.241283970032     0.554704443845     1.007825032230
         H            1.183992214039     1.019013029968     2.020013443845     1.007825032230
         H            1.930838214039     2.179585029968     0.891027443845     1.007825032230
         H            0.161234214039     2.145274029968     1.090120443845     1.007825032230
         H           -2.711967785961    -1.466548970032    -1.008396556155     1.007825032230
         H           -2.308762785961    -1.666913970032     0.692542443845     1.007825032230
         H           -3.813342785961     0.258394029968     1.284979443845     1.007825032230
         H           -4.144419785961     0.524990029968    -0.429398556155     1.007825032230
         H           -4.717205785961    -0.958667970032     0.367123443845     1.007825032230
         H            2.995790214039    -1.901460970032     0.380985443845     1.007825032230

  Basis Set: AUG-CC-PVTZ
    Blend: AUG-CC-PVTZ
  Basis Set: (AUG-CC-PVTZ AUX)
    Blend: AUG-CC-PVTZ-JKFIT
	 Reference Energy          =    -512.8818135297012759 [Eh]
	 Singles Energy            =      -0.0000000000000000 [Eh]
	 Same-Spin Energy          =      -0.5115109887569746 [Eh]
	 Opposite-Spin Energy      =      -1.6157242718950773 [Eh]
	 Correlation Energy        =      -2.1272352606520517 [Eh]
	 Total Energy              =    -515.0090487903532903 [Eh]

	 ================> DF-SCS-MP2 Energies <==================
	-----------------------------------------------------------
	 SCS Same-Spin Scale       =       0.3333333333333333 [-]
	 SCS Opposite-Spin Scale   =       1.2000000000000000 [-]
	 SCS Same-Spin Energy      =      -0.1705036629189915 [Eh]
	 SCS Opposite-Spin Energy  =      -1.9388691262740927 [Eh]
	 SCS Correlation Energy    =      -2.1093727891930842 [Eh]
	 SCS Total Energy          =    -514.9911863188943926 [Eh]
	-----------------------------------------------------------

  Dipole Moment: [D]
     X:     0.5596      Y:    -3.4043      Z:     2.4171     Total:     4.2125

*** Psi4 exiting successfully. Buy a developer a beer!
