                               Psi4 1.3.2 release

  ==> Input File <==

--------------------------------------------------------------------------
#psi4
#
memory 32 gb

molecule  {
0 1
  O       -1.9756670     1.6664010     0.1857370
  O        1.6511300    -1.1930600    -0.6768240
  O       -3.2820610    -0.0444860    -0.5140140
  N        0.2152580     0.2772540     0.2951010
  C       -0.9464590    -0.4858680    -0.1100250
  C       -1.2754375    -1.6595013     0.8154903
  C        2.5941300     0.7851170     0.3678910
  C        1.4652130    -0.1360080    -0.0663740
  C       -2.2247138     0.3191856    -0.1321088
  C        3.9493650     0.2879730    -0.1118860
  H       -0.7666830    -0.8628490    -1.1247510
  H        0.0773990     1.1958980     0.6978160
  H       -1.3680630    -1.3508140     1.8303240
  H       -2.0758160    -2.2433210     0.4601180
  H       -0.3237180    -2.3338760     0.7750620
  H        2.3897550     1.7945520    -0.0146150
  H        2.5759940     0.8629050     1.4619760
  H        4.1547340    -0.7097650     0.2816620
  H        3.9712690     0.2233490    -1.2012200
  H        4.7420490     0.9661550     0.2171920
  H       -2.8492950     2.1039740     0.1058080
units angstrom
no_reorient  #important for SAPT in psi4, default
symmetry c1  #important for SAPT in psi4, default
}

set PROPERTIES_ORIGIN ["COM"]
properties('MP2/aug-cc-pvtz', properties = ['dipole'])
--------------------------------------------------------------------------

    Molecular point group: c1
  Charge       = 0
  Multiplicity = 1
  Basis Set: AUG-CC-PVTZ
    Blend: AUG-CC-PVTZ
  Basis Set: (AUG-CC-PVTZ AUX)
    Blend: AUG-CC-PVTZ-JKFIT

    Orbital Energies [Eh]
    ---------------------

    Doubly Occupied:

       1A    -20.622568     2A    -20.571547     3A    -20.524549
       4A    -15.593430     5A    -11.401804     6A    -11.356435
       7A    -11.297759     8A    -11.247456     9A    -11.228090
      10A    -11.219351    11A     -1.474934    12A     -1.382099
      13A     -1.378472    14A     -1.244766    15A     -1.076609
      16A     -1.038311    17A     -0.922731    18A     -0.883204
      19A     -0.810378    20A     -0.789477    21A     -0.729429
      22A     -0.713238    23A     -0.682886    24A     -0.665199
      25A     -0.640505    26A     -0.635154    27A     -0.612928
      28A     -0.605742    29A     -0.583412    30A     -0.559275
      31A     -0.531862    32A     -0.526248    33A     -0.519334
      34A     -0.515524    35A     -0.501748    36A     -0.491211
      37A     -0.465809    38A     -0.428642    39A     -0.400072

  @DF-RHF Final Energy:  -512.87490039588818

   => Energetics <=

    Nuclear Repulsion Energy =            548.1340922443225736
    One-Electron Energy =               -1788.2736097919680560
    Two-Electron Energy =                 727.2646171517573066
    Total Energy =                       -512.8749003958881758
  Basis Set: (AUG-CC-PVTZ AUX)
    Blend: AUG-CC-PVTZ-RI
    Molecular point group: c1

    Geometry (in Angstrom), charge = 0, multiplicity = 1:

       Center              X                  Y                   Z               Mass
    ------------   -----------------  -----------------  -----------------  -----------------
         O           -1.966583512000     1.668357750717     0.180716503928    15.994914619570
         O            1.660213488000    -1.191103249283    -0.681844496072    15.994914619570
         O           -3.272977512000    -0.042529249283    -0.519034496072    15.994914619570
         N            0.224341488000     0.279210750717     0.290080503928    14.003074004430
         C           -0.937375512000    -0.483911249283    -0.115045496072    12.000000000000
         C           -1.266354012000    -1.657544549283     0.810469803928    12.000000000000
         C            2.603213488000     0.787073750717     0.362870503928    12.000000000000
         C            1.474296488000    -0.134051249283    -0.071394496072    12.000000000000
         C           -2.215630312000     0.321142350717    -0.137129296072    12.000000000000
         C            3.958448488000     0.289929750717    -0.116906496072    12.000000000000
         H           -0.757599512000    -0.860892249283    -1.129771496072     1.007825032230
         H            0.086482488000     1.197854750717     0.692795503928     1.007825032230
         H           -1.358979512000    -1.348857249283     1.825303503928     1.007825032230
         H           -2.066732512000    -2.241364249283     0.455097503928     1.007825032230
         H           -0.314634512000    -2.331919249283     0.770041503928     1.007825032230
         H            2.398838488000     1.796508750717    -0.019635496072     1.007825032230
         H            2.585077488000     0.864861750717     1.456955503928     1.007825032230
         H            4.163817488000    -0.707808249283     0.276641503928     1.007825032230
         H            3.980352488000     0.225305750717    -1.206240496072     1.007825032230
         H            4.751132488000     0.968111750717     0.212171503928     1.007825032230
         H           -2.840211512000     2.105930750717     0.100787503928     1.007825032230

  Basis Set: AUG-CC-PVTZ
    Blend: AUG-CC-PVTZ
  Basis Set: (AUG-CC-PVTZ AUX)
    Blend: AUG-CC-PVTZ-JKFIT
	 Reference Energy          =    -512.8749003958881758 [Eh]
	 Singles Energy            =      -0.0000000000000000 [Eh]
	 Same-Spin Energy          =      -0.5114071859425755 [Eh]
	 Opposite-Spin Energy      =      -1.6152773265592801 [Eh]
	 Correlation Energy        =      -2.1266845125018556 [Eh]
	 Total Energy              =    -515.0015849083899866 [Eh]

	 ================> DF-SCS-MP2 Energies <==================
	-----------------------------------------------------------
	 SCS Same-Spin Scale       =       0.3333333333333333 [-]
	 SCS Opposite-Spin Scale   =       1.2000000000000000 [-]
	 SCS Same-Spin Energy      =      -0.1704690619808585 [Eh]
	 SCS Opposite-Spin Energy  =      -1.9383327918711362 [Eh]
	 SCS Correlation Energy    =      -2.1088018538519946 [Eh]
	 SCS Total Energy          =    -514.9837022497401904 [Eh]
	-----------------------------------------------------------

  Dipole Moment: [D]
     X:    -0.1912      Y:     2.9992      Z:     1.9250     Total:     3.5690

*** Psi4 exiting successfully. Buy a developer a beer!
