                               Psi4 1.3.2 release

  ==> Input File <==

--------------------------------------------------------------------------
#psi4
#
memory 32 gb

molecule  {
0 1
  O       -1.9756670     1.6664010     0.1857370
  O        1.6511300    -1.1930600    -0.6768240
  O       -3.2820610    -0.0444860    -0.5140140
  N        0.2152580     0.2772540     0.2951010
  C       -0.9464590    -0.4858680    -0.1100250
  C       -1.2010820    -1.6869190     0.8036840
  C        2.5941300     0.7851170     0.3678910
  C        1.5022707    -0.1956554    -0.0288959
  C       -2.1892550     0.3702600    -0.1810000
  C        3.9493650     0.2879730    -0.1118860
  H       -0.7666830    -0.8628490    -1.1247510
  H        0.0773990     1.1958980     0.6978160
  H       -1.3680630    -1.3508140     1.8303240
  H       -2.0758160    -2.2433210     0.4601180
  H       -0.3237180    -2.3338760     0.7750620
  H        2.4386860     1.8121394     0.0099787
  H        2.5759940     0.8629050     1.4619760
  H        4.1547340    -0.7097650     0.2816620
  H        3.9712690     0.2233490    -1.2012200
  H        4.7420490     0.9661550     0.2171920
  H       -2.8492950     2.1039740     0.1058080
units angstrom
no_reorient  #important for SAPT in psi4, default
symmetry c1  #important for SAPT in psi4, default
}

set PROPERTIES_ORIGIN ["COM"]
properties('MP2/aug-cc-pvtz', properties = ['dipole'])
--------------------------------------------------------------------------

    Molecular point group: c1
  Charge       = 0
  Multiplicity = 1
  Basis Set: AUG-CC-PVTZ
    Blend: AUG-CC-PVTZ
  Basis Set: (AUG-CC-PVTZ AUX)
    Blend: AUG-CC-PVTZ-JKFIT

    Orbital Energies [Eh]
    ---------------------

    Doubly Occupied:

       1A    -20.633081     2A    -20.561142     3A    -20.535494
       4A    -15.583267     5A    -11.401918     6A    -11.358920
       7A    -11.292157     8A    -11.247671     9A    -11.224951
      10A    -11.220269    11A     -1.475530    12A     -1.405627
      13A     -1.370896    14A     -1.234615    15A     -1.072529
      16A     -1.032104    17A     -0.924423    18A     -0.883671
      19A     -0.812631    20A     -0.784118    21A     -0.728993
      22A     -0.711995    23A     -0.685481    24A     -0.663998
      25A     -0.642927    26A     -0.635972    27A     -0.609581
      28A     -0.606709    29A     -0.580064    30A     -0.544976
      31A     -0.544208    32A     -0.527083    33A     -0.522686
      34A     -0.519094    35A     -0.497326    36A     -0.491114
      37A     -0.466349    38A     -0.432152    39A     -0.396288

  @DF-RHF Final Energy:  -512.88232835727069

   => Energetics <=

    Nuclear Repulsion Energy =            547.9833294985162411
    One-Electron Energy =               -1788.0072952796615482
    Two-Electron Energy =                 727.1416374238746130
    Total Energy =                       -512.8823283572706941
  Basis Set: (AUG-CC-PVTZ AUX)
    Blend: AUG-CC-PVTZ-RI
    Molecular point group: c1

    Geometry (in Angstrom), charge = 0, multiplicity = 1:

       Center              X                  Y                   Z               Mass
    ------------   -----------------  -----------------  -----------------  -----------------
         O           -1.979072167584     1.671212595023     0.182466278804    15.994914619570
         O            1.647724832416    -1.188248404977    -0.680094721196    15.994914619570
         O           -3.285466167584    -0.039674404977    -0.517284721196    15.994914619570
         N            0.211852832416     0.282065595023     0.291830278804    14.003074004430
         C           -0.949864167584    -0.481056404977    -0.113295721196    12.000000000000
         C           -1.204487167584    -1.682107404977     0.800413278804    12.000000000000
         C            2.590724832416     0.789928595023     0.364620278804    12.000000000000
         C            1.498865532416    -0.190843804977    -0.032166621196    12.000000000000
         C           -2.192660167584     0.375071595023    -0.184270721196    12.000000000000
         C            3.945959832416     0.292784595023    -0.115156721196    12.000000000000
         H           -0.770088167584    -0.858037404977    -1.128021721196     1.007825032230
         H            0.073993832416     1.200709595023     0.694545278804     1.007825032230
         H           -1.371468167584    -1.346002404977     1.827053278804     1.007825032230
         H           -2.079221167584    -2.238509404977     0.456847278804     1.007825032230
         H           -0.327123167584    -2.329064404977     0.771791278804     1.007825032230
         H            2.435280832416     1.816950995023     0.006707978804     1.007825032230
         H            2.572588832416     0.867716595023     1.458705278804     1.007825032230
         H            4.151328832416    -0.704953404977     0.278391278804     1.007825032230
         H            3.967863832416     0.228160595023    -1.204490721196     1.007825032230
         H            4.738643832416     0.970966595023     0.213921278804     1.007825032230
         H           -2.852700167584     2.108785595023     0.102537278804     1.007825032230

  Basis Set: AUG-CC-PVTZ
    Blend: AUG-CC-PVTZ
  Basis Set: (AUG-CC-PVTZ AUX)
    Blend: AUG-CC-PVTZ-JKFIT
	 Reference Energy          =    -512.8823283572706941 [Eh]
	 Singles Energy            =      -0.0000000000000000 [Eh]
	 Same-Spin Energy          =      -0.5109182146954907 [Eh]
	 Opposite-Spin Energy      =      -1.6141965593582424 [Eh]
	 Correlation Energy        =      -2.1251147740537331 [Eh]
	 Total Energy              =    -515.0074431313244077 [Eh]

	 ================> DF-SCS-MP2 Energies <==================
	-----------------------------------------------------------
	 SCS Same-Spin Scale       =       0.3333333333333333 [-]
	 SCS Opposite-Spin Scale   =       1.2000000000000000 [-]
	 SCS Same-Spin Energy      =      -0.1703060715651636 [Eh]
	 SCS Opposite-Spin Energy  =      -1.9370358712298907 [Eh]
	 SCS Correlation Energy    =      -2.1073419427950544 [Eh]
	 SCS Total Energy          =    -514.9896703000657681 [Eh]
	-----------------------------------------------------------

  Dipole Moment: [D]
     X:     0.3087      Y:     3.1372      Z:     1.8676     Total:     3.6641

*** Psi4 exiting successfully. Buy a developer a beer!
