                               Psi4 1.3.2 release

  ==> Input File <==

--------------------------------------------------------------------------
#psi4
#
memory 32 gb

molecule  {
0 1
  O       -1.9756670     1.6664010     0.1857370
  O        1.6511300    -1.1930600    -0.6768240
  O       -3.2820610    -0.0444860    -0.5140140
  N        0.2152580     0.2772540     0.2951010
  C       -0.9464590    -0.4858680    -0.1100250
  C       -1.2010820    -1.6869190     0.8036840
  C        2.5941300     0.7851170     0.3678910
  C        1.4501558    -0.0503985    -0.0169343
  C       -2.1892550     0.3702600    -0.1810000
  C        3.9493650     0.2879730    -0.1118860
  H       -0.7666830    -0.8628490    -1.1247510
  H        0.0773990     1.1958980     0.6978160
  H       -1.3680630    -1.3508140     1.8303240
  H       -2.0758160    -2.2433210     0.4601180
  H       -0.3237180    -2.3338760     0.7750620
  H        2.3897550     1.7945520    -0.0146150
  H        2.5759940     0.8629050     1.4619760
  H        4.1547340    -0.7097650     0.2816620
  H        3.9712690     0.2233490    -1.2012200
  H        4.7420490     0.9661550     0.2171920
  H       -2.8492950     2.1039740     0.1058080
units angstrom
no_reorient  #important for SAPT in psi4, default
symmetry c1  #important for SAPT in psi4, default
}

set PROPERTIES_ORIGIN ["COM"]
properties('MP2/aug-cc-pvtz', properties = ['dipole'])
--------------------------------------------------------------------------

    Molecular point group: c1
  Charge       = 0
  Multiplicity = 1
  Basis Set: AUG-CC-PVTZ
    Blend: AUG-CC-PVTZ
  Basis Set: (AUG-CC-PVTZ AUX)
    Blend: AUG-CC-PVTZ-JKFIT

    Orbital Energies [Eh]
    ---------------------

    Doubly Occupied:

       1A    -20.639710     2A    -20.567543     3A    -20.504286
       4A    -15.606997     5A    -11.409109     6A    -11.357365
       7A    -11.303083     8A    -11.250629     9A    -11.229441
      10A    -11.220830    11A     -1.482311    12A     -1.377328
      13A     -1.341510    14A     -1.237359    15A     -1.086201
      16A     -1.044472    17A     -0.933379    18A     -0.895988
      19A     -0.822110    20A     -0.801951    21A     -0.737811
      22A     -0.717798    23A     -0.682836    24A     -0.669521
      25A     -0.645369    26A     -0.634404    27A     -0.614247
      28A     -0.593566    29A     -0.565112    30A     -0.549731
      31A     -0.544086    32A     -0.530760    33A     -0.520270
      34A     -0.508117    35A     -0.500177    36A     -0.476466
      37A     -0.469881    38A     -0.417891    39A     -0.393099

  @DF-RHF Final Energy:  -512.86426025907701

   => Energetics <=

    Nuclear Repulsion Energy =            547.9400723679702878
    One-Electron Energy =               -1787.8431805466198057
    Two-Electron Energy =                 727.0388479195725040
    Total Energy =                       -512.8642602590770139
  Basis Set: (AUG-CC-PVTZ AUX)
    Blend: AUG-CC-PVTZ-RI
    Molecular point group: c1

    Geometry (in Angstrom), charge = 0, multiplicity = 1:

       Center              X                  Y                   Z               Mass
    ------------   -----------------  -----------------  -----------------  -----------------
         O           -1.974421484600     1.659319636616     0.181647709378    15.994914619570
         O            1.652375515400    -1.200141363384    -0.680913290622    15.994914619570
         O           -3.280815484600    -0.051567363384    -0.518103290622    15.994914619570
         N            0.216503515400     0.270172636616     0.291011709378    14.003074004430
         C           -0.945213484600    -0.492949363384    -0.114114290622    12.000000000000
         C           -1.199836484600    -1.694000363384     0.799594709378    12.000000000000
         C            2.595375515400     0.778035636616     0.363801709378    12.000000000000
         C            1.451401315400    -0.057479863384    -0.021023590622    12.000000000000
         C           -2.188009484600     0.363178636616    -0.185089290622    12.000000000000
         C            3.950610515400     0.280891636616    -0.115975290622    12.000000000000
         H           -0.765437484600    -0.869930363384    -1.128840290622     1.007825032230
         H            0.078644515400     1.188816636616     0.693726709378     1.007825032230
         H           -1.366817484600    -1.357895363384     1.826234709378     1.007825032230
         H           -2.074570484600    -2.250402363384     0.456028709378     1.007825032230
         H           -0.322472484600    -2.340957363384     0.770972709378     1.007825032230
         H            2.391000515400     1.787470636616    -0.018704290622     1.007825032230
         H            2.577239515400     0.855823636616     1.457886709378     1.007825032230
         H            4.155979515400    -0.716846363384     0.277572709378     1.007825032230
         H            3.972514515400     0.216267636616    -1.205309290622     1.007825032230
         H            4.743294515400     0.959073636616     0.213102709378     1.007825032230
         H           -2.848049484600     2.096892636616     0.101718709378     1.007825032230

  Basis Set: AUG-CC-PVTZ
    Blend: AUG-CC-PVTZ
  Basis Set: (AUG-CC-PVTZ AUX)
    Blend: AUG-CC-PVTZ-JKFIT
	 Reference Energy          =    -512.8642602590770139 [Eh]
	 Singles Energy            =      -0.0000000000000000 [Eh]
	 Same-Spin Energy          =      -0.5135894859868981 [Eh]
	 Opposite-Spin Energy      =      -1.6191640489534986 [Eh]
	 Correlation Energy        =      -2.1327535349403970 [Eh]
	 Total Energy              =    -514.9970137940174482 [Eh]

	 ================> DF-SCS-MP2 Energies <==================
	-----------------------------------------------------------
	 SCS Same-Spin Scale       =       0.3333333333333333 [-]
	 SCS Opposite-Spin Scale   =       1.2000000000000000 [-]
	 SCS Same-Spin Energy      =      -0.1711964953289660 [Eh]
	 SCS Opposite-Spin Energy  =      -1.9429968587441984 [Eh]
	 SCS Correlation Energy    =      -2.1141933540731643 [Eh]
	 SCS Total Energy          =    -514.9784536131501227 [Eh]
	-----------------------------------------------------------

  Dipole Moment: [D]
     X:    -0.3910      Y:     3.7257      Z:     2.2516     Total:     4.3708

*** Psi4 exiting successfully. Buy a developer a beer!
