                               Psi4 1.3.2 release

  ==> Input File <==

--------------------------------------------------------------------------
#psi4
#
memory 32 gb

molecule  {
0 1
  O       -1.9756670     1.6664010     0.1857370
  O        1.6511300    -1.1930600    -0.6768240
  O       -3.2820610    -0.0444860    -0.5140140
  N        0.2206762     0.2748210     0.2839499
  C       -0.9464590    -0.4858680    -0.1100250
  C       -1.2010820    -1.6869190     0.8036840
  C        2.5941300     0.7851170     0.3678910
  C        1.4652130    -0.1360080    -0.0663740
  C       -2.1892550     0.3702600    -0.1810000
  C        3.9493650     0.2879730    -0.1118860
  H       -0.7581039    -0.8585952    -1.1247662
  H        0.0773990     1.1958980     0.6978160
  H       -1.3680630    -1.3508140     1.8303240
  H       -2.0758160    -2.2433210     0.4601180
  H       -0.3237180    -2.3338760     0.7750620
  H        2.3897550     1.7945520    -0.0146150
  H        2.5759940     0.8629050     1.4619760
  H        4.1547340    -0.7097650     0.2816620
  H        3.9712690     0.2233490    -1.2012200
  H        4.7420490     0.9661550     0.2171920
  H       -2.8492950     2.1039740     0.1058080
units angstrom
no_reorient  #important for SAPT in psi4, default
symmetry c1  #important for SAPT in psi4, default
}

set PROPERTIES_ORIGIN ["COM"]
properties('MP2/aug-cc-pvtz', properties = ['dipole'])
--------------------------------------------------------------------------

    Molecular point group: c1
  Charge       = 0
  Multiplicity = 1
  Basis Set: AUG-CC-PVTZ
    Blend: AUG-CC-PVTZ
  Basis Set: (AUG-CC-PVTZ AUX)
    Blend: AUG-CC-PVTZ-JKFIT

    Orbital Energies [Eh]
    ---------------------

    Doubly Occupied:

       1A    -20.636383     2A    -20.564271     3A    -20.522764
       4A    -15.593113     5A    -11.405338     6A    -11.354689
       7A    -11.296732     8A    -11.247255     9A    -11.227351
      10A    -11.219221    11A     -1.478829    12A     -1.380571
      13A     -1.373944    14A     -1.245889    15A     -1.075278
      16A     -1.035873    17A     -0.928346    18A     -0.885242
      19A     -0.816630    20A     -0.793070    21A     -0.731160
      22A     -0.714723    23A     -0.682672    24A     -0.665944
      25A     -0.641334    26A     -0.633242    27A     -0.610836
      28A     -0.601766    29A     -0.581066    30A     -0.546814
      31A     -0.544156    32A     -0.523680    33A     -0.520506
      34A     -0.518878    35A     -0.497641    36A     -0.488132
      37A     -0.468300    38A     -0.428141    39A     -0.399986

  @DF-RHF Final Energy:  -512.88585387139517

   => Energetics <=

    Nuclear Repulsion Energy =            548.3190793997305263
    One-Electron Energy =               -1788.6503343007070725
    Two-Electron Energy =                 727.4454010295813760
    Total Energy =                       -512.8858538713951702
  Basis Set: (AUG-CC-PVTZ AUX)
    Blend: AUG-CC-PVTZ-RI
    Molecular point group: c1

    Geometry (in Angstrom), charge = 0, multiplicity = 1:

       Center              X                  Y                   Z               Mass
    ------------   -----------------  -----------------  -----------------  -----------------
         O           -1.976249546710     1.666606243251     0.186813638139    15.994914619570
         O            1.650547453290    -1.192854756749    -0.675747361861    15.994914619570
         O           -3.282643546710    -0.044280756749    -0.512937361861    15.994914619570
         N            0.220093653290     0.275026243251     0.285026538139    14.003074004430
         C           -0.947041546710    -0.485662756749    -0.108948361861    12.000000000000
         C           -1.201664546710    -1.686713756749     0.804760638139    12.000000000000
         C            2.593547453290     0.785322243251     0.368967638139    12.000000000000
         C            1.464630453290    -0.135802756749    -0.065297361861    12.000000000000
         C           -2.189837546710     0.370465243251    -0.179923361861    12.000000000000
         C            3.948782453290     0.288178243251    -0.110809361861    12.000000000000
         H           -0.758686446710    -0.858389956749    -1.123689561861     1.007825032230
         H            0.076816453290     1.196103243251     0.698892638139     1.007825032230
         H           -1.368645546710    -1.350608756749     1.831400638139     1.007825032230
         H           -2.076398546710    -2.243115756749     0.461194638139     1.007825032230
         H           -0.324300546710    -2.333670756749     0.776138638139     1.007825032230
         H            2.389172453290     1.794757243251    -0.013538361861     1.007825032230
         H            2.575411453290     0.863110243251     1.463052638139     1.007825032230
         H            4.154151453290    -0.709559756749     0.282738638139     1.007825032230
         H            3.970686453290     0.223554243251    -1.200143361861     1.007825032230
         H            4.741466453290     0.966360243251     0.218268638139     1.007825032230
         H           -2.849877546710     2.104179243251     0.106884638139     1.007825032230

  Basis Set: AUG-CC-PVTZ
    Blend: AUG-CC-PVTZ
  Basis Set: (AUG-CC-PVTZ AUX)
    Blend: AUG-CC-PVTZ-JKFIT
	 Reference Energy          =    -512.8858538713951702 [Eh]
	 Singles Energy            =      -0.0000000000000000 [Eh]
	 Same-Spin Energy          =      -0.5114093032125532 [Eh]
	 Opposite-Spin Energy      =      -1.6149571700546015 [Eh]
	 Correlation Energy        =      -2.1263664732671548 [Eh]
	 Total Energy              =    -515.0122203446622962 [Eh]

	 ================> DF-SCS-MP2 Energies <==================
	-----------------------------------------------------------
	 SCS Same-Spin Scale       =       0.3333333333333333 [-]
	 SCS Opposite-Spin Scale   =       1.2000000000000000 [-]
	 SCS Same-Spin Energy      =      -0.1704697677375177 [Eh]
	 SCS Opposite-Spin Energy  =      -1.9379486040655216 [Eh]
	 SCS Correlation Energy    =      -2.1084183718030394 [Eh]
	 SCS Total Energy          =    -514.9942722431982247 [Eh]
	-----------------------------------------------------------

  Dipole Moment: [D]
     X:    -0.0954      Y:     3.3291      Z:     1.9909     Total:     3.8801

*** Psi4 exiting successfully. Buy a developer a beer!
