                               Psi4 1.3.2 release

  ==> Input File <==

--------------------------------------------------------------------------
#psi4
#
memory 32 gb

molecule  {
0 1
  O       -1.9756670     1.6664010     0.1857370
  O        1.6511300    -1.1930600    -0.6768240
  O       -3.2820610    -0.0444860    -0.5140140
  N        0.2152580     0.2772540     0.2951010
  C       -0.9464590    -0.4858680    -0.1100250
  C       -1.2072352    -1.6532344     0.8446854
  C        2.5941300     0.7851170     0.3678910
  C        1.4652130    -0.1360080    -0.0663740
  C       -2.1892550     0.3702600    -0.1810000
  C        3.9493650     0.2879730    -0.1118860
  H       -0.7621354    -0.8267253    -1.1366428
  H        0.0773990     1.1958980     0.6978160
  H       -1.3680630    -1.3508140     1.8303240
  H       -2.0758160    -2.2433210     0.4601180
  H       -0.3237180    -2.3338760     0.7750620
  H        2.3897550     1.7945520    -0.0146150
  H        2.5759940     0.8629050     1.4619760
  H        4.1547340    -0.7097650     0.2816620
  H        3.9712690     0.2233490    -1.2012200
  H        4.7420490     0.9661550     0.2171920
  H       -2.8492950     2.1039740     0.1058080
units angstrom
no_reorient  #important for SAPT in psi4, default
symmetry c1  #important for SAPT in psi4, default
}

set PROPERTIES_ORIGIN ["COM"]
properties('MP2/aug-cc-pvtz', properties = ['dipole'])
--------------------------------------------------------------------------

    Molecular point group: c1
  Charge       = 0
  Multiplicity = 1
  Basis Set: AUG-CC-PVTZ
    Blend: AUG-CC-PVTZ
  Basis Set: (AUG-CC-PVTZ AUX)
    Blend: AUG-CC-PVTZ-JKFIT

    Orbital Energies [Eh]
    ---------------------

    Doubly Occupied:

       1A    -20.635673     2A    -20.563516     3A    -20.524203
       4A    -15.591439     5A    -11.404050     6A    -11.355779
       7A    -11.296979     8A    -11.247341     9A    -11.227393
      10A    -11.219346    11A     -1.478206    12A     -1.380330
      13A     -1.373291    14A     -1.245393    15A     -1.074859
      16A     -1.035458    17A     -0.927897    18A     -0.885251
      19A     -0.817998    20A     -0.791990    21A     -0.730366
      22A     -0.714291    23A     -0.682617    24A     -0.665392
      25A     -0.641066    26A     -0.634171    27A     -0.611172
      28A     -0.601835    29A     -0.584167    30A     -0.546535
      31A     -0.537882    32A     -0.525280    33A     -0.519793
      34A     -0.519240    35A     -0.496050    36A     -0.489504
      37A     -0.467470    38A     -0.428181    39A     -0.400026

  @DF-RHF Final Energy:  -512.88209324721220

   => Energetics <=

    Nuclear Repulsion Energy =            548.3391798933859036
    One-Electron Energy =               -1788.6996908675264422
    Two-Electron Energy =                 727.4784177269284555
    Total Energy =                       -512.8820932472121967
  Basis Set: (AUG-CC-PVTZ AUX)
    Blend: AUG-CC-PVTZ-RI
    Molecular point group: c1

    Geometry (in Angstrom), charge = 0, multiplicity = 1:

       Center              X                  Y                   Z               Mass
    ------------   -----------------  -----------------  -----------------  -----------------
         O           -1.975189584102     1.663363730408     0.182428307811    15.994914619570
         O            1.651607415898    -1.196097269592    -0.680132692189    15.994914619570
         O           -3.281583584102    -0.047523269592    -0.517322692189    15.994914619570
         N            0.215735415898     0.274216730408     0.291792307811    14.003074004430
         C           -0.945981584102    -0.488905269592    -0.113333692189    12.000000000000
         C           -1.206757784102    -1.656271669592     0.841376707811    12.000000000000
         C            2.594607415898     0.782079730408     0.364582307811    12.000000000000
         C            1.465690415898    -0.139045269592    -0.069682692189    12.000000000000
         C           -2.188777584102     0.367222730408    -0.184308692189    12.000000000000
         C            3.949842415898     0.284935730408    -0.115194692189    12.000000000000
         H           -0.761657984102    -0.829762569592    -1.139951492189     1.007825032230
         H            0.077876415898     1.192860730408     0.694507307811     1.007825032230
         H           -1.367585584102    -1.353851269592     1.827015307811     1.007825032230
         H           -2.075338584102    -2.246358269592     0.456809307811     1.007825032230
         H           -0.323240584102    -2.336913269592     0.771753307811     1.007825032230
         H            2.390232415898     1.791514730408    -0.017923692189     1.007825032230
         H            2.576471415898     0.859867730408     1.458667307811     1.007825032230
         H            4.155211415898    -0.712802269592     0.278353307811     1.007825032230
         H            3.971746415898     0.220311730408    -1.204528692189     1.007825032230
         H            4.742526415898     0.963117730408     0.213883307811     1.007825032230
         H           -2.848817584102     2.100936730408     0.102499307811     1.007825032230

  Basis Set: AUG-CC-PVTZ
    Blend: AUG-CC-PVTZ
  Basis Set: (AUG-CC-PVTZ AUX)
    Blend: AUG-CC-PVTZ-JKFIT
	 Reference Energy          =    -512.8820932472121967 [Eh]
	 Singles Energy            =      -0.0000000000000000 [Eh]
	 Same-Spin Energy          =      -0.5115094862224848 [Eh]
	 Opposite-Spin Energy      =      -1.6152501279554521 [Eh]
	 Correlation Energy        =      -2.1267596141779368 [Eh]
	 Total Energy              =    -515.0088528613900962 [Eh]

	 ================> DF-SCS-MP2 Energies <==================
	-----------------------------------------------------------
	 SCS Same-Spin Scale       =       0.3333333333333333 [-]
	 SCS Opposite-Spin Scale   =       1.2000000000000000 [-]
	 SCS Same-Spin Energy      =      -0.1705031620741616 [Eh]
	 SCS Opposite-Spin Energy  =      -1.9383001535465425 [Eh]
	 SCS Correlation Energy    =      -2.1088033156207042 [Eh]
	 SCS Total Energy          =    -514.9908965628328588 [Eh]
	-----------------------------------------------------------

  Dipole Moment: [D]
     X:    -0.0613      Y:     3.3316      Z:     1.9795     Total:     3.8758

*** Psi4 exiting successfully. Buy a developer a beer!
