                               Psi4 1.3.2 release

  ==> Input File <==

--------------------------------------------------------------------------
#psi4
#
memory 32 gb

molecule  {
0 1
  O       -1.9756670     1.6664010     0.1857370
  O        1.6511300    -1.1930600    -0.6768240
  O       -3.2820610    -0.0444860    -0.5140140
  N        0.2152580     0.2772540     0.2951010
  C       -0.9464590    -0.4858680    -0.1100250
  C       -1.2010820    -1.6869190     0.8036840
  C        2.5941300     0.7851170     0.3678910
  C        1.5567698    -0.1662786    -0.0928513
  C       -2.1892550     0.3702600    -0.1810000
  C        3.9493650     0.2879730    -0.1118860
  H       -0.7666830    -0.8628490    -1.1247510
  H        0.0773990     1.1958980     0.6978160
  H       -1.3680630    -1.3508140     1.8303240
  H       -2.0758160    -2.2433210     0.4601180
  H       -0.3237180    -2.3338760     0.7750620
  H        2.3897550     1.7945520    -0.0146150
  H        2.5759940     0.8629050     1.4619760
  H        4.1547340    -0.7097650     0.2816620
  H        3.9712690     0.2233490    -1.2012200
  H        4.7420490     0.9661550     0.2171920
  H       -2.8492950     2.1039740     0.1058080
units angstrom
no_reorient  #important for SAPT in psi4, default
symmetry c1  #important for SAPT in psi4, default
}

set PROPERTIES_ORIGIN ["COM"]
properties('MP2/aug-cc-pvtz', properties = ['dipole'])
--------------------------------------------------------------------------

    Molecular point group: c1
  Charge       = 0
  Multiplicity = 1
  Basis Set: AUG-CC-PVTZ
    Blend: AUG-CC-PVTZ
  Basis Set: (AUG-CC-PVTZ AUX)
    Blend: AUG-CC-PVTZ-JKFIT

    Orbital Energies [Eh]
    ---------------------

    Doubly Occupied:

       1A    -20.629251     2A    -20.557569     3A    -20.543227
       4A    -15.572563     5A    -11.397900     6A    -11.361805
       7A    -11.287293     8A    -11.250808     9A    -11.224579
      10A    -11.220911    11A     -1.471718    12A     -1.417906
      13A     -1.367292    14A     -1.218495    15A     -1.080084
      16A     -1.026924    17A     -0.920381    18A     -0.889277
      19A     -0.807561    20A     -0.772622    21A     -0.727399
      22A     -0.707906    23A     -0.685856    24A     -0.662801
      25A     -0.648590    26A     -0.638407    27A     -0.610089
      28A     -0.602478    29A     -0.575658    30A     -0.545171
      31A     -0.540608    32A     -0.531676    33A     -0.525155
      34A     -0.519432    35A     -0.503101    36A     -0.488909
      37A     -0.465096    38A     -0.434613    39A     -0.388402

  @DF-RHF Final Energy:  -512.87659650287981

   => Energetics <=

    Nuclear Repulsion Energy =            547.7302895971504313
    One-Electron Energy =               -1787.5747527863832147
    Two-Electron Energy =                 726.9678666863529770
    Total Energy =                       -512.8765965028798064
  Basis Set: (AUG-CC-PVTZ AUX)
    Blend: AUG-CC-PVTZ-RI
    Molecular point group: c1

    Geometry (in Angstrom), charge = 0, multiplicity = 1:

       Center              X                  Y                   Z               Mass
    ------------   -----------------  -----------------  -----------------  -----------------
         O           -1.983240218086     1.668904829163     0.187927295455    15.994914619570
         O            1.643556781914    -1.190556170837    -0.674633704545    15.994914619570
         O           -3.289634218086    -0.041982170837    -0.511823704545    15.994914619570
         N            0.207684781914     0.279757829163     0.297291295455    14.003074004430
         C           -0.954032218086    -0.483364170837    -0.107834704545    12.000000000000
         C           -1.208655218086    -1.684415170837     0.805874295455    12.000000000000
         C            2.586556781914     0.787620829163     0.370081295455    12.000000000000
         C            1.549196581914    -0.163774770837    -0.090661004545    12.000000000000
         C           -2.196828218086     0.372763829163    -0.178809704545    12.000000000000
         C            3.941791781914     0.290476829163    -0.109695704545    12.000000000000
         H           -0.774256218086    -0.860345170837    -1.122560704545     1.007825032230
         H            0.069825781914     1.198401829163     0.700006295455     1.007825032230
         H           -1.375636218086    -1.348310170837     1.832514295455     1.007825032230
         H           -2.083389218086    -2.240817170837     0.462308295455     1.007825032230
         H           -0.331291218086    -2.331372170837     0.777252295455     1.007825032230
         H            2.382181781914     1.797055829163    -0.012424704545     1.007825032230
         H            2.568420781914     0.865408829163     1.464166295455     1.007825032230
         H            4.147160781914    -0.707261170837     0.283852295455     1.007825032230
         H            3.963695781914     0.225852829163    -1.199029704545     1.007825032230
         H            4.734475781914     0.968658829163     0.219382295455     1.007825032230
         H           -2.856868218086     2.106477829163     0.107998295455     1.007825032230

  Basis Set: AUG-CC-PVTZ
    Blend: AUG-CC-PVTZ
  Basis Set: (AUG-CC-PVTZ AUX)
    Blend: AUG-CC-PVTZ-JKFIT
	 Reference Energy          =    -512.8765965028798064 [Eh]
	 Singles Energy            =      -0.0000000000000000 [Eh]
	 Same-Spin Energy          =      -0.5109958988141334 [Eh]
	 Opposite-Spin Energy      =      -1.6143655253530818 [Eh]
	 Correlation Energy        =      -2.1253614241672150 [Eh]
	 Total Energy              =    -515.0019579270469876 [Eh]

	 ================> DF-SCS-MP2 Energies <==================
	-----------------------------------------------------------
	 SCS Same-Spin Scale       =       0.3333333333333333 [-]
	 SCS Opposite-Spin Scale   =       1.2000000000000000 [-]
	 SCS Same-Spin Energy      =      -0.1703319662713778 [Eh]
	 SCS Opposite-Spin Energy  =      -1.9372386304236979 [Eh]
	 SCS Correlation Energy    =      -2.1075705966950755 [Eh]
	 SCS Total Energy          =    -514.9841670995748473 [Eh]
	-----------------------------------------------------------

  Dipole Moment: [D]
     X:     0.8703      Y:     3.1084      Z:     1.7275     Total:     3.6612

*** Psi4 exiting successfully. Buy a developer a beer!
