                               Psi4 1.3.2 release

  ==> Input File <==

--------------------------------------------------------------------------
#psi4
#
memory 32 gb

molecule  {
0 1
  O       -1.9756670     1.6664010     0.1857370
  O        1.6511300    -1.1930600    -0.6768240
  O       -3.2820610    -0.0444860    -0.5140140
  N        0.2152580     0.2772540     0.2951010
  C       -0.9464590    -0.4858680    -0.1100250
  C       -1.2010820    -1.6869190     0.8036840
  C        2.5941300     0.7851170     0.3678910
  C        1.4652130    -0.1360080    -0.0663740
  C       -2.1892550     0.3702600    -0.1810000
  C        3.9511789     0.2993909    -0.1184098
  H       -0.7666830    -0.8628490    -1.1247510
  H        0.0773990     1.1958980     0.6978160
  H       -1.3680630    -1.3508140     1.8303240
  H       -2.0758160    -2.2433210     0.4601180
  H       -0.3237180    -2.3338760     0.7750620
  H        2.3982240     1.7945182    -0.0191090
  H        2.5759940     0.8629050     1.4619760
  H        4.1547340    -0.7097650     0.2816620
  H        3.9712690     0.2233490    -1.2012200
  H        4.7420490     0.9661550     0.2171920
  H       -2.8492950     2.1039740     0.1058080
units angstrom
no_reorient  #important for SAPT in psi4, default
symmetry c1  #important for SAPT in psi4, default
}

set PROPERTIES_ORIGIN ["COM"]
properties('MP2/aug-cc-pvtz', properties = ['dipole'])
--------------------------------------------------------------------------

    Molecular point group: c1
  Charge       = 0
  Multiplicity = 1
  Basis Set: AUG-CC-PVTZ
    Blend: AUG-CC-PVTZ
  Basis Set: (AUG-CC-PVTZ AUX)
    Blend: AUG-CC-PVTZ-JKFIT

    Orbital Energies [Eh]
    ---------------------

    Doubly Occupied:

       1A    -20.635985     2A    -20.563813     3A    -20.524673
       4A    -15.592458     5A    -11.404786     6A    -11.356350
       7A    -11.296467     8A    -11.247518     9A    -11.226918
      10A    -11.219404    11A     -1.478446    12A     -1.380711
      13A     -1.373555    14A     -1.245395    15A     -1.074894
      16A     -1.035734    17A     -0.927799    18A     -0.885325
      19A     -0.816707    20A     -0.792362    21A     -0.730913
      22A     -0.714591    23A     -0.682975    24A     -0.665717
      25A     -0.641128    26A     -0.633373    27A     -0.610405
      28A     -0.603095    29A     -0.580611    30A     -0.546891
      31A     -0.544111    32A     -0.525190    33A     -0.521906
      34A     -0.516902    35A     -0.496704    36A     -0.487973
      37A     -0.467878    38A     -0.428943    39A     -0.400289

  @DF-RHF Final Energy:  -512.88574312793435

   => Energetics <=

    Nuclear Repulsion Energy =            548.1446200339632924
    One-Electron Energy =               -1788.3029335760581944
    Two-Electron Energy =                 727.2725704141605547
    Total Energy =                       -512.8857431279343473
  Basis Set: (AUG-CC-PVTZ AUX)
    Blend: AUG-CC-PVTZ-RI
    Molecular point group: c1

    Geometry (in Angstrom), charge = 0, multiplicity = 1:

       Center              X                  Y                   Z               Mass
    ------------   -----------------  -----------------  -----------------  -----------------
         O           -1.975875836348     1.665456738508     0.186308032132    15.994914619570
         O            1.650921163652    -1.194004261492    -0.676252967868    15.994914619570
         O           -3.282269836348    -0.045430261492    -0.513442967868    15.994914619570
         N            0.215049163652     0.276309738508     0.295672032132    14.003074004430
         C           -0.946667836348    -0.486812261492    -0.109453967868    12.000000000000
         C           -1.201290836348    -1.687863261492     0.804255032132    12.000000000000
         C            2.593921163652     0.784172738508     0.368462032132    12.000000000000
         C            1.465004163652    -0.136952261492    -0.065802967868    12.000000000000
         C           -2.189463836348     0.369315738508    -0.180428967868    12.000000000000
         C            3.950970063652     0.298446638508    -0.117838767868    12.000000000000
         H           -0.766891836348    -0.863793261492    -1.124179967868     1.007825032230
         H            0.077190163652     1.194953738508     0.698387032132     1.007825032230
         H           -1.368271836348    -1.351758261492     1.830895032132     1.007825032230
         H           -2.076024836348    -2.244265261492     0.460689032132     1.007825032230
         H           -0.323926836348    -2.334820261492     0.775633032132     1.007825032230
         H            2.398015163652     1.793573938508    -0.018537967868     1.007825032230
         H            2.575785163652     0.861960738508     1.462547032132     1.007825032230
         H            4.154525163652    -0.710709261492     0.282233032132     1.007825032230
         H            3.971060163652     0.222404738508    -1.200648967868     1.007825032230
         H            4.741840163652     0.965210738508     0.217763032132     1.007825032230
         H           -2.849503836348     2.103029738508     0.106379032132     1.007825032230

  Basis Set: AUG-CC-PVTZ
    Blend: AUG-CC-PVTZ
  Basis Set: (AUG-CC-PVTZ AUX)
    Blend: AUG-CC-PVTZ-JKFIT
	 Reference Energy          =    -512.8857431279343473 [Eh]
	 Singles Energy            =      -0.0000000000000000 [Eh]
	 Same-Spin Energy          =      -0.5113744470774766 [Eh]
	 Opposite-Spin Energy      =      -1.6149852641582316 [Eh]
	 Correlation Energy        =      -2.1263597112357084 [Eh]
	 Total Energy              =    -515.0121028391700975 [Eh]

	 ================> DF-SCS-MP2 Energies <==================
	-----------------------------------------------------------
	 SCS Same-Spin Scale       =       0.3333333333333333 [-]
	 SCS Opposite-Spin Scale   =       1.2000000000000000 [-]
	 SCS Same-Spin Energy      =      -0.1704581490258255 [Eh]
	 SCS Opposite-Spin Energy  =      -1.9379823169898778 [Eh]
	 SCS Correlation Energy    =      -2.1084404660157032 [Eh]
	 SCS Total Energy          =    -514.9941835939500834 [Eh]
	-----------------------------------------------------------

  Dipole Moment: [D]
     X:    -0.0455      Y:     3.3190      Z:     1.9576     Total:     3.8535

*** Psi4 exiting successfully. Buy a developer a beer!
