                               Psi4 1.4a3.dev225

  ==> Input File <==

--------------------------------------------------------------------------
#psi4
#
memory 32 gb

molecule  {
0 1
  O        2.1858500    -1.4843500     0.4466430
  O       -1.5901990     1.2021140    -0.7742790
  O        3.2899360     0.0893000    -0.7567370
  N       -0.1552130    -0.3501220     0.0655300
  C        0.9973750     0.5138300    -0.1038320
  C        1.1366130     1.5332170     1.0331740
  C       -2.5208420    -0.9251940    -0.0919400
  C       -1.4008270     0.0814870    -0.2899980
  C        2.2713450    -0.2912280    -0.2118740
  C       -3.8280260    -0.2360070     0.2837800
  H        0.8752740     1.0541530    -1.0466610
  H       -0.0300212    -1.2245286     0.5159566
  H        1.2555520     1.0181310     1.9903510
  H        2.0023980     2.1787030     0.8613650
  H        0.2327940     2.1443920     1.0604580
  H       -2.6404080    -1.4674310    -1.0380590
  H       -2.2372030    -1.6677960     0.6628800
  H       -3.7417830     0.2575120     1.2553170
  H       -4.0728600     0.5241080    -0.4590610
  H       -4.6456460    -0.9595500     0.3374610
  H        3.0673500    -1.9023430     0.3513230
units angstrom
no_reorient  #important for SAPT in psi4, default
symmetry c1  #important for SAPT in psi4, default
}

set PROPERTIES_ORIGIN ["COM"]
properties('MP2/aug-cc-pvtz', properties = ['dipole'])
--------------------------------------------------------------------------

    Molecular point group: c1
  Charge       = 0
  Multiplicity = 1
  Basis Set: AUG-CC-PVTZ
    Blend: AUG-CC-PVTZ
  Basis Set: (AUG-CC-PVTZ AUX)
    Blend: AUG-CC-PVTZ-JKFIT

    Orbital Energies [Eh]
    ---------------------

    Doubly Occupied:

       1A    -20.634475     2A    -20.565204     3A    -20.522831
       4A    -15.594296     5A    -11.404074     6A    -11.357085
       7A    -11.296630     8A    -11.247906     9A    -11.233056
      10A    -11.222514    11A     -1.476545    12A     -1.379839
      13A     -1.372722    14A     -1.248261    15A     -1.076469
      16A     -1.038077    17A     -0.928072    18A     -0.886877
      19A     -0.823725    20A     -0.797175    21A     -0.728295
      22A     -0.715009    23A     -0.680540    24A     -0.660663
      25A     -0.643018    26A     -0.634799    27A     -0.610888
      28A     -0.599744    29A     -0.584799    30A     -0.556512
      31A     -0.550895    32A     -0.528453    33A     -0.523876
      34A     -0.513491    35A     -0.498112    36A     -0.487610
      37A     -0.469427    38A     -0.427869    39A     -0.400825

  @DF-RHF Final Energy:  -512.88675501006742

   => Energetics <=

    Nuclear Repulsion Energy =            548.0063309088220649
    One-Electron Energy =               -1787.9448568958416672
    Two-Electron Energy =                 727.0517709769521844
    Total Energy =                       -512.8867550100674180
  Basis Set: (AUG-CC-PVTZ AUX)
    Blend: AUG-CC-PVTZ-RI
    Molecular point group: c1

    Geometry (in Angstrom), charge = 0, multiplicity = 1:

       Center              X                  Y                   Z               Mass
    ------------   -----------------  -----------------  -----------------  -----------------
         O            2.118080826861    -1.484897871778     0.477445486963    15.994914619570
         O           -1.657968173139     1.201566128222    -0.743476513037    15.994914619570
         O            3.222166826861     0.088752128222    -0.725934513037    15.994914619570
         N           -0.222982173139    -0.350669871778     0.096332486963    14.003074004430
         C            0.929605826861     0.513282128222    -0.073029513037    12.000000000000
         C            1.068843826861     1.532669128222     1.063976486963    12.000000000000
         C           -2.588611173139    -0.925741871778    -0.061137513037    12.000000000000
         C           -1.468596173139     0.080939128222    -0.259195513037    12.000000000000
         C            2.203575826861    -0.291775871778    -0.181071513037    12.000000000000
         C           -3.895795173139    -0.236554871778     0.314582486963    12.000000000000
         H            0.807504826861     1.053605128222    -1.015858513037     1.007825032230
         H           -0.097790373139    -1.225076471778     0.546759086963     1.007825032230
         H            1.187782826861     1.017583128222     2.021153486963     1.007825032230
         H            1.934628826861     2.178155128222     0.892167486963     1.007825032230
         H            0.165024826861     2.143844128222     1.091260486963     1.007825032230
         H           -2.708177173139    -1.467978871778    -1.007256513037     1.007825032230
         H           -2.304972173139    -1.668343871778     0.693682486963     1.007825032230
         H           -3.809552173139     0.256964128222     1.286119486963     1.007825032230
         H           -4.140629173139     0.523560128222    -0.428258513037     1.007825032230
         H           -4.713415173139    -0.960097871778     0.368263486963     1.007825032230
         H            2.999580826861    -1.902890871778     0.382125486963     1.007825032230

  Basis Set: AUG-CC-PVTZ
    Blend: AUG-CC-PVTZ
  Basis Set: (AUG-CC-PVTZ AUX)
    Blend: AUG-CC-PVTZ-JKFIT
	 Reference Energy          =    -512.8867550100674180 [Eh]
	 Singles Energy            =      -0.0000000000000000 [Eh]
	 Same-Spin Energy          =      -0.5110202462169202 [Eh]
	 Opposite-Spin Energy      =      -1.6147581716080595 [Eh]
	 Correlation Energy        =      -2.1257784178249794 [Eh]
	 Total Energy              =    -515.0125334278924356 [Eh]

	 ================> DF-SCS-MP2 Energies <==================
	-----------------------------------------------------------
	 SCS Same-Spin Scale       =       0.3333333333333333 [-]
	 SCS Opposite-Spin Scale   =       1.2000000000000000 [-]
	 SCS Same-Spin Energy      =      -0.1703400820723067 [Eh]
	 SCS Opposite-Spin Energy  =      -1.9377098059296713 [Eh]
	 SCS Correlation Energy    =      -2.1080498880019780 [Eh]
	 SCS Total Energy          =    -514.9948048980694466 [Eh]
	-----------------------------------------------------------

  Dipole Moment: [D]
     X:     0.1256      Y:    -3.2723      Z:     2.2833     Total:     3.9921

*** Psi4 exiting successfully. Buy a developer a beer!
