                               Psi4 1.3.2 release

  ==> Input File <==

--------------------------------------------------------------------------
#psi4
#
memory 32 gb

molecule  {
0 1
  O       -1.9756670     1.6664010     0.1857370
  O        1.6511300    -1.1930600    -0.6768240
  O       -3.2820610    -0.0444860    -0.5140140
  N        0.2152580     0.2772540     0.2951010
  C       -0.9464590    -0.4858680    -0.1100250
  C       -1.2010820    -1.6869190     0.8036840
  C        2.5941300     0.7851170     0.3678910
  C        1.4652130    -0.1360080    -0.0663740
  C       -2.2122209     0.3753094    -0.1846981
  C        3.9493650     0.2879730    -0.1118860
  H       -0.7666830    -0.8628490    -1.1247510
  H        0.0773990     1.1958980     0.6978160
  H       -1.3680630    -1.3508140     1.8303240
  H       -2.0758160    -2.2433210     0.4601180
  H       -0.3237180    -2.3338760     0.7750620
  H        2.3897550     1.7945520    -0.0146150
  H        2.5759940     0.8629050     1.4619760
  H        4.1547340    -0.7097650     0.2816620
  H        3.9712690     0.2233490    -1.2012200
  H        4.7420490     0.9661550     0.2171920
  H       -2.8560901     2.0891347     0.1006722
units angstrom
no_reorient  #important for SAPT in psi4, default
symmetry c1  #important for SAPT in psi4, default
}

set PROPERTIES_ORIGIN ["COM"]
properties('MP2/aug-cc-pvtz', properties = ['dipole'])
--------------------------------------------------------------------------

    Molecular point group: c1
  Charge       = 0
  Multiplicity = 1
  Basis Set: AUG-CC-PVTZ
    Blend: AUG-CC-PVTZ
  Basis Set: (AUG-CC-PVTZ AUX)
    Blend: AUG-CC-PVTZ-JKFIT

    Orbital Energies [Eh]
    ---------------------

    Doubly Occupied:

       1A    -20.635918     2A    -20.567104     3A    -20.523590
       4A    -15.591193     5A    -11.402782     6A    -11.355189
       7A    -11.295154     8A    -11.246884     9A    -11.225460
      10A    -11.218978    11A     -1.483759    12A     -1.385239
      13A     -1.379408    14A     -1.243345    15A     -1.072397
      16A     -1.033292    17A     -0.924016    18A     -0.883647
      19A     -0.813864    20A     -0.791557    21A     -0.730474
      22A     -0.717882    23A     -0.682235    24A     -0.666326
      25A     -0.641648    26A     -0.636265    27A     -0.612093
      28A     -0.602189    29A     -0.579891    30A     -0.545423
      31A     -0.544524    32A     -0.523384    33A     -0.520343
      34A     -0.518682    35A     -0.501755    36A     -0.489322
      37A     -0.466659    38A     -0.427823    39A     -0.398912

  @DF-RHF Final Energy:  -512.88671789871955

   => Energetics <=

    Nuclear Repulsion Energy =            548.1346614552228402
    One-Electron Energy =               -1788.2855454490409102
    Two-Electron Energy =                 727.2641660950985170
    Total Energy =                       -512.8867178987195530
  Basis Set: (AUG-CC-PVTZ AUX)
    Blend: AUG-CC-PVTZ-RI
    Molecular point group: c1

    Geometry (in Angstrom), charge = 0, multiplicity = 1:

       Center              X                  Y                   Z               Mass
    ------------   -----------------  -----------------  -----------------  -----------------
         O           -1.973720099467     1.666086371803     0.186078758780    15.994914619570
         O            1.653076900533    -1.193374628197    -0.676482241220    15.994914619570
         O           -3.280114099467    -0.044800628197    -0.513672241220    15.994914619570
         N            0.217204900533     0.276939371803     0.295442758780    14.003074004430
         C           -0.944512099467    -0.486182628197    -0.109683241220    12.000000000000
         C           -1.199135099467    -1.687233628197     0.804025758780    12.000000000000
         C            2.596076900533     0.784802371803     0.368232758780    12.000000000000
         C            1.467159900533    -0.136322628197    -0.066032241220    12.000000000000
         C           -2.210273999467     0.374994771803    -0.184356341220    12.000000000000
         C            3.951311900533     0.287658371803    -0.111544241220    12.000000000000
         H           -0.764736099467    -0.863163628197    -1.124409241220     1.007825032230
         H            0.079345900533     1.195583371803     0.698157758780     1.007825032230
         H           -1.366116099467    -1.351128628197     1.830665758780     1.007825032230
         H           -2.073869099467    -2.243635628197     0.460459758780     1.007825032230
         H           -0.321771099467    -2.334190628197     0.775403758780     1.007825032230
         H            2.391701900533     1.794237371803    -0.014273241220     1.007825032230
         H            2.577940900533     0.862590371803     1.462317758780     1.007825032230
         H            4.156680900533    -0.710079628197     0.282003758780     1.007825032230
         H            3.973215900533     0.223034371803    -1.200878241220     1.007825032230
         H            4.743995900533     0.965840371803     0.217533758780     1.007825032230
         H           -2.854143199467     2.088820071803     0.101013958780     1.007825032230

  Basis Set: AUG-CC-PVTZ
    Blend: AUG-CC-PVTZ
  Basis Set: (AUG-CC-PVTZ AUX)
    Blend: AUG-CC-PVTZ-JKFIT
	 Reference Energy          =    -512.8867178987195530 [Eh]
	 Singles Energy            =      -0.0000000000000000 [Eh]
	 Same-Spin Energy          =      -0.5109429489486657 [Eh]
	 Opposite-Spin Energy      =      -1.6141303046432482 [Eh]
	 Correlation Energy        =      -2.1250732535919141 [Eh]
	 Total Energy              =    -515.0117911523115026 [Eh]

	 ================> DF-SCS-MP2 Energies <==================
	-----------------------------------------------------------
	 SCS Same-Spin Scale       =       0.3333333333333333 [-]
	 SCS Opposite-Spin Scale   =       1.2000000000000000 [-]
	 SCS Same-Spin Energy      =      -0.1703143163162219 [Eh]
	 SCS Opposite-Spin Energy  =      -1.9369563655718978 [Eh]
	 SCS Correlation Energy    =      -2.1072706818881195 [Eh]
	 SCS Total Energy          =    -514.9939885806077200 [Eh]
	-----------------------------------------------------------

  Dipole Moment: [D]
     X:    -0.1967      Y:     3.3130      Z:     1.9216     Total:     3.8350

*** Psi4 exiting successfully. Buy a developer a beer!
