                               Psi4 1.3.2 release

  ==> Input File <==

--------------------------------------------------------------------------
#psi4
#
memory 32 gb

molecule  {
0 1
  O       -1.9756670     1.6664010     0.1857370
  O        1.6511300    -1.1930600    -0.6768240
  O       -3.2820610    -0.0444860    -0.5140140
  N        0.2152580     0.2772540     0.2951010
  C       -0.9464590    -0.4858680    -0.1100250
  C       -1.2343567    -1.8438749     0.9230894
  C        2.5941300     0.7851170     0.3678910
  C        1.4652130    -0.1360080    -0.0663740
  C       -2.1892550     0.3702600    -0.1810000
  C        3.9493650     0.2879730    -0.1118860
  H       -0.7666830    -0.8628490    -1.1247510
  H        0.0773990     1.1958980     0.6978160
  H       -1.3680630    -1.3508140     1.8303240
  H       -2.0758160    -2.2433210     0.4601180
  H       -0.3237180    -2.3338760     0.7750620
  H        2.3897550     1.7945520    -0.0146150
  H        2.5759940     0.8629050     1.4619760
  H        4.1547340    -0.7097650     0.2816620
  H        3.9712690     0.2233490    -1.2012200
  H        4.7420490     0.9661550     0.2171920
  H       -2.8492950     2.1039740     0.1058080
units angstrom
no_reorient  #important for SAPT in psi4, default
symmetry c1  #important for SAPT in psi4, default
}

set PROPERTIES_ORIGIN ["COM"]
properties('MP2/aug-cc-pvtz', properties = ['dipole'])
--------------------------------------------------------------------------

    Molecular point group: c1
  Charge       = 0
  Multiplicity = 1
  Basis Set: AUG-CC-PVTZ
    Blend: AUG-CC-PVTZ
  Basis Set: (AUG-CC-PVTZ AUX)
    Blend: AUG-CC-PVTZ-JKFIT

    Orbital Energies [Eh]
    ---------------------

    Doubly Occupied:

       1A    -20.634270     2A    -20.561175     3A    -20.524687
       4A    -15.593402     5A    -11.402995     6A    -11.355829
       7A    -11.299549     8A    -11.247536     9A    -11.230580
      10A    -11.219528    11A     -1.476436    12A     -1.380380
      13A     -1.371376    14A     -1.241626    15A     -1.066817
      16A     -1.023221    17A     -0.936433    18A     -0.884644
      19A     -0.817502    20A     -0.791652    21A     -0.726708
      22A     -0.712658    23A     -0.680069    24A     -0.662593
      25A     -0.641093    26A     -0.630019    27A     -0.612338
      28A     -0.606222    29A     -0.581161    30A     -0.570157
      31A     -0.548451    32A     -0.528611    33A     -0.519489
      34A     -0.508120    35A     -0.498107    36A     -0.477060
      37A     -0.467510    38A     -0.429246    39A     -0.384306

  @DF-RHF Final Energy:  -512.86026520415021

   => Energetics <=

    Nuclear Repulsion Energy =            544.5173770744524973
    One-Electron Energy =               -1781.0681677283794215
    Two-Electron Energy =                 723.6905254497767146
    Total Energy =                       -512.8602652041502097
  Basis Set: (AUG-CC-PVTZ AUX)
    Blend: AUG-CC-PVTZ-RI
    Molecular point group: c1

    Geometry (in Angstrom), charge = 0, multiplicity = 1:

       Center              X                  Y                   Z               Mass
    ------------   -----------------  -----------------  -----------------  -----------------
         O           -1.972914597350     1.679383789686     0.175860393815    15.994914619570
         O            1.653882402650    -1.180077210314    -0.686700606185    15.994914619570
         O           -3.279308597350    -0.031503210314    -0.523890606185    15.994914619570
         N            0.218010402650     0.290236789686     0.285224393815    14.003074004430
         C           -0.943706597350    -0.472885210314    -0.119901606185    12.000000000000
         C           -1.231604297350    -1.830892110314     0.913212793815    12.000000000000
         C            2.596882402650     0.798099789686     0.358014393815    12.000000000000
         C            1.467965402650    -0.123025210314    -0.076250606185    12.000000000000
         C           -2.186502597350     0.383242789686    -0.190876606185    12.000000000000
         C            3.952117402650     0.300955789686    -0.121762606185    12.000000000000
         H           -0.763930597350    -0.849866210314    -1.134627606185     1.007825032230
         H            0.080151402650     1.208880789686     0.687939393815     1.007825032230
         H           -1.365310597350    -1.337831210314     1.820447393815     1.007825032230
         H           -2.073063597350    -2.230338210314     0.450241393815     1.007825032230
         H           -0.320965597350    -2.320893210314     0.765185393815     1.007825032230
         H            2.392507402650     1.807534789686    -0.024491606185     1.007825032230
         H            2.578746402650     0.875887789686     1.452099393815     1.007825032230
         H            4.157486402650    -0.696782210314     0.271785393815     1.007825032230
         H            3.974021402650     0.236331789686    -1.211096606185     1.007825032230
         H            4.744801402650     0.979137789686     0.207315393815     1.007825032230
         H           -2.846542597350     2.116956789686     0.095931393815     1.007825032230

  Basis Set: AUG-CC-PVTZ
    Blend: AUG-CC-PVTZ
  Basis Set: (AUG-CC-PVTZ AUX)
    Blend: AUG-CC-PVTZ-JKFIT
	 Reference Energy          =    -512.8602652041502097 [Eh]
	 Singles Energy            =      -0.0000000000000000 [Eh]
	 Same-Spin Energy          =      -0.5115022758636590 [Eh]
	 Opposite-Spin Energy      =      -1.6161598534402561 [Eh]
	 Correlation Energy        =      -2.1276621293039151 [Eh]
	 Total Energy              =    -514.9879273334540812 [Eh]

	 ================> DF-SCS-MP2 Energies <==================
	-----------------------------------------------------------
	 SCS Same-Spin Scale       =       0.3333333333333333 [-]
	 SCS Opposite-Spin Scale   =       1.2000000000000000 [-]
	 SCS Same-Spin Energy      =      -0.1705007586212197 [Eh]
	 SCS Opposite-Spin Energy  =      -1.9393918241283072 [Eh]
	 SCS Correlation Energy    =      -2.1098925827495267 [Eh]
	 SCS Total Energy          =    -514.9701577868997902 [Eh]
	-----------------------------------------------------------

  Dipole Moment: [D]
     X:     0.0403      Y:     3.3371      Z:     1.9752     Total:     3.8780

*** Psi4 exiting successfully. Buy a developer a beer!
