                               Psi4 1.3.2 release

  ==> Input File <==

--------------------------------------------------------------------------
#psi4
#
memory 32 gb

molecule  {
0 1
  O       -1.9756670     1.6664010     0.1857370
  O        1.6511300    -1.1930600    -0.6768240
  O       -3.2820610    -0.0444860    -0.5140140
  N        0.2221225     0.2448635     0.3332778
  C       -0.9464590    -0.4858680    -0.1100250
  C       -1.1582431    -1.6729747     0.8323898
  C        2.5941300     0.7851170     0.3678910
  C        1.4652130    -0.1360080    -0.0663740
  C       -2.1892550     0.3702600    -0.1810000
  C        3.9493650     0.2879730    -0.1118860
  H       -0.7666830    -0.8628490    -1.1247510
  H        0.0773990     1.1958980     0.6978160
  H       -1.3680630    -1.3508140     1.8303240
  H       -2.0758160    -2.2433210     0.4601180
  H       -0.3237180    -2.3338760     0.7750620
  H        2.3897550     1.7945520    -0.0146150
  H        2.5759940     0.8629050     1.4619760
  H        4.1547340    -0.7097650     0.2816620
  H        3.9712690     0.2233490    -1.2012200
  H        4.7420490     0.9661550     0.2171920
  H       -2.8492950     2.1039740     0.1058080
units angstrom
no_reorient  #important for SAPT in psi4, default
symmetry c1  #important for SAPT in psi4, default
}

set PROPERTIES_ORIGIN ["COM"]
properties('MP2/aug-cc-pvtz', properties = ['dipole'])
--------------------------------------------------------------------------

    Molecular point group: c1
  Charge       = 0
  Multiplicity = 1
  Basis Set: AUG-CC-PVTZ
    Blend: AUG-CC-PVTZ
  Basis Set: (AUG-CC-PVTZ AUX)
    Blend: AUG-CC-PVTZ-JKFIT

    Orbital Energies [Eh]
    ---------------------

    Doubly Occupied:

       1A    -20.637267     2A    -20.565249     3A    -20.523681
       4A    -15.592633     5A    -11.406542     6A    -11.354942
       7A    -11.296498     8A    -11.247466     9A    -11.226165
      10A    -11.219376    11A     -1.479579    12A     -1.380811
      13A     -1.374678    14A     -1.245072    15A     -1.074848
      16A     -1.034859    17A     -0.927767    18A     -0.885927
      19A     -0.815887    20A     -0.790669    21A     -0.731492
      22A     -0.715168    23A     -0.683692    24A     -0.666335
      25A     -0.641607    26A     -0.634109    27A     -0.613790
      28A     -0.600451    29A     -0.578666    30A     -0.551000
      31A     -0.538509    32A     -0.525832    33A     -0.519227
      34A     -0.515246    35A     -0.497043    36A     -0.488944
      37A     -0.469689    38A     -0.428436    39A     -0.399788

  @DF-RHF Final Energy:  -512.88122271606153

   => Energetics <=

    Nuclear Repulsion Energy =            548.3608392283456396
    One-Electron Energy =               -1788.7262379616183807
    Two-Electron Energy =                 727.4841760172112117
    Total Energy =                       -512.8812227160615294
  Basis Set: (AUG-CC-PVTZ AUX)
    Blend: AUG-CC-PVTZ-RI
    Molecular point group: c1

    Geometry (in Angstrom), charge = 0, multiplicity = 1:

       Center              X                  Y                   Z               Mass
    ------------   -----------------  -----------------  -----------------  -----------------
         O           -1.979873032663     1.668373980850     0.179677777026    15.994914619570
         O            1.646923967337    -1.191087019150    -0.682883222974    15.994914619570
         O           -3.286267032663    -0.042513019150    -0.520073222974    15.994914619570
         N            0.217916467337     0.246836480850     0.327218577026    14.003074004430
         C           -0.950665032663    -0.483895019150    -0.116084222974    12.000000000000
         C           -1.162449132663    -1.671001719150     0.826330577026    12.000000000000
         C            2.589923967337     0.787089980850     0.361831777026    12.000000000000
         C            1.461006967337    -0.134035019150    -0.072433222974    12.000000000000
         C           -2.193461032663     0.372232980850    -0.187059222974    12.000000000000
         C            3.945158967337     0.289945980850    -0.117945222974    12.000000000000
         H           -0.770889032663    -0.860876019150    -1.130810222974     1.007825032230
         H            0.073192967337     1.197870980850     0.691756777026     1.007825032230
         H           -1.372269032663    -1.348841019150     1.824264777026     1.007825032230
         H           -2.080022032663    -2.241348019150     0.454058777026     1.007825032230
         H           -0.327924032663    -2.331903019150     0.769002777026     1.007825032230
         H            2.385548967337     1.796524980850    -0.020674222974     1.007825032230
         H            2.571787967337     0.864877980850     1.455916777026     1.007825032230
         H            4.150527967337    -0.707792019150     0.275602777026     1.007825032230
         H            3.967062967337     0.225321980850    -1.207279222974     1.007825032230
         H            4.737842967337     0.968127980850     0.211132777026     1.007825032230
         H           -2.853501032663     2.105946980850     0.099748777026     1.007825032230

  Basis Set: AUG-CC-PVTZ
    Blend: AUG-CC-PVTZ
  Basis Set: (AUG-CC-PVTZ AUX)
    Blend: AUG-CC-PVTZ-JKFIT
	 Reference Energy          =    -512.8812227160615294 [Eh]
	 Singles Energy            =      -0.0000000000000000 [Eh]
	 Same-Spin Energy          =      -0.5116020425065133 [Eh]
	 Opposite-Spin Energy      =      -1.6155797221007242 [Eh]
	 Correlation Energy        =      -2.1271817646072373 [Eh]
	 Total Energy              =    -515.0084044806687871 [Eh]

	 ================> DF-SCS-MP2 Energies <==================
	-----------------------------------------------------------
	 SCS Same-Spin Scale       =       0.3333333333333333 [-]
	 SCS Opposite-Spin Scale   =       1.2000000000000000 [-]
	 SCS Same-Spin Energy      =      -0.1705340141688378 [Eh]
	 SCS Opposite-Spin Energy  =      -1.9386956665208690 [Eh]
	 SCS Correlation Energy    =      -2.1092296806897068 [Eh]
	 SCS Total Energy          =    -514.9904523967512660 [Eh]
	-----------------------------------------------------------

  Dipole Moment: [D]
     X:    -0.0870      Y:     3.3998      Z:     1.9036     Total:     3.8974

*** Psi4 exiting successfully. Buy a developer a beer!
