                               Psi4 1.3.2 release

  ==> Input File <==

--------------------------------------------------------------------------
#psi4
#
memory 32 gb

molecule  {
0 1
  O       -1.9756670     1.6664010     0.1857370
  O        1.6511300    -1.1930600    -0.6768240
  O       -3.2820610    -0.0444860    -0.5140140
  N        0.2152580     0.2772540     0.2951010
  C       -0.9464590    -0.4858680    -0.1100250
  C       -1.2010820    -1.6869190     0.8036840
  C        2.5941300     0.7851170     0.3678910
  C        1.4829365    -0.1516871    -0.0783802
  C       -2.1892550     0.3702600    -0.1810000
  C        3.9374297     0.2672171    -0.1233581
  H       -0.7666830    -0.8628490    -1.1247510
  H        0.0773990     1.1958980     0.6978160
  H       -1.3680630    -1.3508140     1.8303240
  H       -2.0758160    -2.2433210     0.4601180
  H       -0.3237180    -2.3338760     0.7750620
  H        2.3897550     1.7945520    -0.0146150
  H        2.5759940     0.8629050     1.4619760
  H        4.1547340    -0.7097650     0.2816620
  H        3.9712690     0.2233490    -1.2012200
  H        4.7420490     0.9661550     0.2171920
  H       -2.8492950     2.1039740     0.1058080
units angstrom
no_reorient  #important for SAPT in psi4, default
symmetry c1  #important for SAPT in psi4, default
}

set PROPERTIES_ORIGIN ["COM"]
properties('MP2/aug-cc-pvtz', properties = ['dipole'])
--------------------------------------------------------------------------

    Molecular point group: c1
  Charge       = 0
  Multiplicity = 1
  Basis Set: AUG-CC-PVTZ
    Blend: AUG-CC-PVTZ
  Basis Set: (AUG-CC-PVTZ AUX)
    Blend: AUG-CC-PVTZ-JKFIT

    Orbital Energies [Eh]
    ---------------------

    Doubly Occupied:

       1A    -20.634292     2A    -20.562183     3A    -20.530409
       4A    -15.586947     5A    -11.402946     6A    -11.356337
       7A    -11.293874     8A    -11.247698     9A    -11.225497
      10A    -11.220273    11A     -1.476726    12A     -1.394804
      13A     -1.371979    14A     -1.239699    15A     -1.073569
      16A     -1.033700    17A     -0.925534    18A     -0.884547
      19A     -0.814385    20A     -0.787282    21A     -0.729099
      22A     -0.713048    23A     -0.683955    24A     -0.664388
      25A     -0.643312    26A     -0.634345    27A     -0.608912
      28A     -0.606425    29A     -0.580664    30A     -0.544519
      31A     -0.544305    32A     -0.524452    33A     -0.521895
      34A     -0.517761    35A     -0.500277    36A     -0.490861
      37A     -0.466919    38A     -0.430394    39A     -0.398626

  @DF-RHF Final Energy:  -512.88544408277460

   => Energetics <=

    Nuclear Repulsion Energy =            548.3347578222466154
    One-Electron Energy =               -1788.7067256398343034
    Two-Electron Energy =                 727.4865237348129767
    Total Energy =                       -512.8854440827745975
  Basis Set: (AUG-CC-PVTZ AUX)
    Blend: AUG-CC-PVTZ-RI
    Molecular point group: c1

    Geometry (in Angstrom), charge = 0, multiplicity = 1:

       Center              X                  Y                   Z               Mass
    ------------   -----------------  -----------------  -----------------  -----------------
         O           -1.976145742455     1.669414726556     0.187679228768    15.994914619570
         O            1.650651257545    -1.190046273444    -0.674881771232    15.994914619570
         O           -3.282539742455    -0.041472273444    -0.512071771232    15.994914619570
         N            0.214779257545     0.280267726556     0.297043228768    14.003074004430
         C           -0.946937742455    -0.482854273444    -0.108082771232    12.000000000000
         C           -1.201560742455    -1.683905273444     0.805626228768    12.000000000000
         C            2.593651257545     0.788130726556     0.369833228768    12.000000000000
         C            1.482457757545    -0.148673373444    -0.076437971232    12.000000000000
         C           -2.189733742455     0.373273726556    -0.179057771232    12.000000000000
         C            3.936950957545     0.270230826556    -0.121415871232    12.000000000000
         H           -0.767161742455    -0.859835273444    -1.122808771232     1.007825032230
         H            0.076920257545     1.198911726556     0.699758228768     1.007825032230
         H           -1.368541742455    -1.347800273444     1.832266228768     1.007825032230
         H           -2.076294742455    -2.240307273444     0.462060228768     1.007825032230
         H           -0.324196742455    -2.330862273444     0.777004228768     1.007825032230
         H            2.389276257545     1.797565726556    -0.012672771232     1.007825032230
         H            2.575515257545     0.865918726556     1.463918228768     1.007825032230
         H            4.154255257545    -0.706751273444     0.283604228768     1.007825032230
         H            3.970790257545     0.226362726556    -1.199277771232     1.007825032230
         H            4.741570257545     0.969168726556     0.219134228768     1.007825032230
         H           -2.849773742455     2.106987726556     0.107750228768     1.007825032230

  Basis Set: AUG-CC-PVTZ
    Blend: AUG-CC-PVTZ
  Basis Set: (AUG-CC-PVTZ AUX)
    Blend: AUG-CC-PVTZ-JKFIT
	 Reference Energy          =    -512.8854440827745975 [Eh]
	 Singles Energy            =      -0.0000000000000000 [Eh]
	 Same-Spin Energy          =      -0.5110167229089697 [Eh]
	 Opposite-Spin Energy      =      -1.6143286255961700 [Eh]
	 Correlation Energy        =      -2.1253453485051397 [Eh]
	 Total Energy              =    -515.0107894312797043 [Eh]

	 ================> DF-SCS-MP2 Energies <==================
	-----------------------------------------------------------
	 SCS Same-Spin Scale       =       0.3333333333333333 [-]
	 SCS Opposite-Spin Scale   =       1.2000000000000000 [-]
	 SCS Same-Spin Energy      =      -0.1703389076363232 [Eh]
	 SCS Opposite-Spin Energy  =      -1.9371943507154039 [Eh]
	 SCS Correlation Energy    =      -2.1075332583517272 [Eh]
	 SCS Total Energy          =    -514.9929773411263341 [Eh]
	-----------------------------------------------------------

  Dipole Moment: [D]
     X:     0.1520      Y:     3.2128      Z:     1.8746     Total:     3.7228

*** Psi4 exiting successfully. Buy a developer a beer!
