                               Psi4 1.3.2 release

  ==> Input File <==

--------------------------------------------------------------------------
#psi4
#
memory 32 gb

molecule  {
0 1
  O       -1.9756670     1.6664010     0.1857370
  O        1.6511300    -1.1930600    -0.6768240
  O       -3.2820610    -0.0444860    -0.5140140
  N        0.2152580     0.2772540     0.2951010
  C       -0.9464590    -0.4858680    -0.1100250
  C       -1.2010820    -1.6869190     0.8036840
  C        2.5941300     0.7851170     0.3678910
  C        1.4652130    -0.1360080    -0.0663740
  C       -2.1892550     0.3702600    -0.1810000
  C        3.9586958     0.3570180    -0.1504636
  H       -0.7666830    -0.8628490    -1.1247510
  H        0.0773990     1.1958980     0.6978160
  H       -1.3680630    -1.3508140     1.8303240
  H       -2.0758160    -2.2433210     0.4601180
  H       -0.3237180    -2.3338760     0.7750620
  H        2.4407798     1.7931967    -0.0411299
  H        2.5759940     0.8629050     1.4619760
  H        4.1547340    -0.7097650     0.2816620
  H        3.9712690     0.2233490    -1.2012200
  H        4.7420490     0.9661550     0.2171920
  H       -2.8492950     2.1039740     0.1058080
units angstrom
no_reorient  #important for SAPT in psi4, default
symmetry c1  #important for SAPT in psi4, default
}

set PROPERTIES_ORIGIN ["COM"]
properties('MP2/aug-cc-pvtz', properties = ['dipole'])
--------------------------------------------------------------------------

    Molecular point group: c1
  Charge       = 0
  Multiplicity = 1
  Basis Set: AUG-CC-PVTZ
    Blend: AUG-CC-PVTZ
  Basis Set: (AUG-CC-PVTZ AUX)
    Blend: AUG-CC-PVTZ-JKFIT

    Orbital Energies [Eh]
    ---------------------

    Doubly Occupied:

       1A    -20.636056     2A    -20.563942     3A    -20.525179
       4A    -15.592957     5A    -11.404941     6A    -11.357480
       7A    -11.296733     8A    -11.247726     9A    -11.227066
      10A    -11.219939    11A     -1.478539    12A     -1.381051
      13A     -1.373664    14A     -1.245718    15A     -1.075081
      16A     -1.036409    17A     -0.928024    18A     -0.885540
      19A     -0.816865    20A     -0.792662    21A     -0.731371
      22A     -0.714704    23A     -0.683413    24A     -0.666623
      25A     -0.641134    26A     -0.633610    27A     -0.610978
      28A     -0.605522    29A     -0.579433    30A     -0.551780
      31A     -0.545253    32A     -0.530373    33A     -0.527237
      34A     -0.511952    35A     -0.491813    36A     -0.477457
      37A     -0.467874    38A     -0.429757    39A     -0.400435

  @DF-RHF Final Energy:  -512.87858173406994

   => Energetics <=

    Nuclear Repulsion Energy =            547.8904338822017053
    One-Electron Energy =               -1787.7654466454021076
    Two-Electron Energy =                 726.9964310291304628
    Total Energy =                       -512.8785817340699396
  Basis Set: (AUG-CC-PVTZ AUX)
    Blend: AUG-CC-PVTZ-RI
    Molecular point group: c1

    Geometry (in Angstrom), charge = 0, multiplicity = 1:

       Center              X                  Y                   Z               Mass
    ------------   -----------------  -----------------  -----------------  -----------------
         O           -1.976793241937     1.660699208783     0.189112387935    15.994914619570
         O            1.650003758063    -1.198761791217    -0.673448612065    15.994914619570
         O           -3.283187241937    -0.050187791217    -0.510638612065    15.994914619570
         N            0.214131758063     0.271552208783     0.298476387935    14.003074004430
         C           -0.947585241937    -0.491569791217    -0.106649612065    12.000000000000
         C           -1.202208241937    -1.692620791217     0.807059387935    12.000000000000
         C            2.593003758063     0.779415208783     0.371266387935    12.000000000000
         C            1.464086758063    -0.141709791217    -0.062998612065    12.000000000000
         C           -2.190381241937     0.364558208783    -0.177624612065    12.000000000000
         C            3.957569558063     0.351316208783    -0.147088212065    12.000000000000
         H           -0.767809241937    -0.868550791217    -1.121375612065     1.007825032230
         H            0.076272758063     1.190196208783     0.701191387935     1.007825032230
         H           -1.369189241937    -1.356515791217     1.833699387935     1.007825032230
         H           -2.076942241937    -2.249022791217     0.463493387935     1.007825032230
         H           -0.324844241937    -2.339577791217     0.778437387935     1.007825032230
         H            2.439653558063     1.787494908783    -0.037754512065     1.007825032230
         H            2.574867758063     0.857203208783     1.465351387935     1.007825032230
         H            4.153607758063    -0.715466791217     0.285037387935     1.007825032230
         H            3.970142758063     0.217647208783    -1.197844612065     1.007825032230
         H            4.740922758063     0.960453208783     0.220567387935     1.007825032230
         H           -2.850421241937     2.098272208783     0.109183387935     1.007825032230

  Basis Set: AUG-CC-PVTZ
    Blend: AUG-CC-PVTZ
  Basis Set: (AUG-CC-PVTZ AUX)
    Blend: AUG-CC-PVTZ-JKFIT
	 Reference Energy          =    -512.8785817340699396 [Eh]
	 Singles Energy            =      -0.0000000000000000 [Eh]
	 Same-Spin Energy          =      -0.5115071636225487 [Eh]
	 Opposite-Spin Energy      =      -1.6153784421799708 [Eh]
	 Correlation Energy        =      -2.1268856058025194 [Eh]
	 Total Energy              =    -515.0054673398724390 [Eh]

	 ================> DF-SCS-MP2 Energies <==================
	-----------------------------------------------------------
	 SCS Same-Spin Scale       =       0.3333333333333333 [-]
	 SCS Opposite-Spin Scale   =       1.2000000000000000 [-]
	 SCS Same-Spin Energy      =      -0.1705023878741829 [Eh]
	 SCS Opposite-Spin Energy  =      -1.9384541306159648 [Eh]
	 SCS Correlation Energy    =      -2.1089565184901478 [Eh]
	 SCS Total Energy          =    -514.9875382525600571 [Eh]
	-----------------------------------------------------------

  Dipole Moment: [D]
     X:    -0.0595      Y:     3.3429      Z:     1.9406     Total:     3.8658

*** Psi4 exiting successfully. Buy a developer a beer!
