                               Psi4 1.3.2 release

  ==> Input File <==

--------------------------------------------------------------------------
#psi4
#
memory 32 gb

molecule  {
0 1
  C       -0.2601871    -0.2959282     0.2445697
  C        0.8273080    -1.2201790    -0.1568800
  C        0.2651040     1.0998010    -0.2107530
  C        2.1130990    -0.4802110     0.2221390
  C        1.8015910     1.0121590    -0.0461820
  C       -1.6656960    -0.6060100    -0.2573320
  C       -2.7543930     0.3665140     0.1916780
  H       -0.3152930    -0.2454590     1.3709960
  H        0.7753790    -1.3637350    -1.2449700
  H        0.7413790    -2.2073630     0.3107570
  H       -0.1666070     1.9492740     0.3275400
  H        0.0028850     1.2252210    -1.2696860
  H        2.9896260    -0.8344780    -0.3294880
  H        2.3206340    -0.6367720     1.2866620
  H        2.1525340     1.6409000     0.7779560
  H        2.3101060     1.3673950    -0.9478660
  H       -1.9261760    -1.6212110     0.0690670
  H       -1.6246980    -0.6344010    -1.3548090
  H       -2.7974460     0.4229520     1.2842010
  H       -2.5674970     1.3742840    -0.1894550
  H       -3.7390610     0.0514200    -0.1666910
units angstrom
no_reorient  #important for SAPT in psi4, default
symmetry c1  #important for SAPT in psi4, default
}

set PROPERTIES_ORIGIN ["COM"]
properties('MP2/aug-cc-pvtz', properties = ['dipole'])
--------------------------------------------------------------------------

    Molecular point group: c1
  Charge       = 0
  Multiplicity = 1
  Basis Set: AUG-CC-PVTZ
    Blend: AUG-CC-PVTZ
  Basis Set: (AUG-CC-PVTZ AUX)
    Blend: AUG-CC-PVTZ-JKFIT

    Orbital Energies [Eh]
    ---------------------

    Doubly Occupied:

       1A    -11.216366     2A    -11.213921     3A    -11.212459
       4A    -11.211659     5A    -11.210656     6A    -11.209903
       7A    -11.208528     8A     -1.127478     9A     -1.033674
      10A     -0.959732    11A     -0.938976    12A     -0.834907
      13A     -0.771303    14A     -0.748516    15A     -0.653758
      16A     -0.630201    17A     -0.604322    18A     -0.570203
      19A     -0.557147    20A     -0.551848    21A     -0.513572
      22A     -0.484585    23A     -0.474517    24A     -0.464397
      25A     -0.453652    26A     -0.449015    27A     -0.441481
      28A     -0.429534

  @DF-RHF Final Energy:  -273.32239377634602

   => Energetics <=

    Nuclear Repulsion Energy =            322.9295251225950665
    One-Electron Energy =               -1008.1512129316232631
    Two-Electron Energy =                 411.8992940326822350
    Total Energy =                       -273.3223937763460185
  Basis Set: (AUG-CC-PVTZ AUX)
    Blend: AUG-CC-PVTZ-RI
    Molecular point group: c1

    Geometry (in Angstrom), charge = 0, multiplicity = 1:

       Center              X                  Y                   Z               Mass
    ------------   -----------------  -----------------  -----------------  -----------------
         C           -0.281217107703    -0.285792544822     0.246908948593    12.000000000000
         C            0.806277992297    -1.210043344822    -0.154540751407    12.000000000000
         C            0.244073992297     1.109936655178    -0.208413751407    12.000000000000
         C            2.092068992297    -0.470075344822     0.224478248593    12.000000000000
         C            1.780560992297     1.022294655178    -0.043842751407    12.000000000000
         C           -1.686726007703    -0.595874344822    -0.254992751407    12.000000000000
         C           -2.775423007703     0.376649655178     0.194017248593    12.000000000000
         H           -0.336323007703    -0.235323344822     1.373335248593     1.007825032230
         H            0.754348992297    -1.353599344822    -1.242630751407     1.007825032230
         H            0.720348992297    -2.197227344822     0.313096248593     1.007825032230
         H           -0.187637007703     1.959409655178     0.329879248593     1.007825032230
         H           -0.018145007703     1.235356655178    -1.267346751407     1.007825032230
         H            2.968595992297    -0.824342344822    -0.327148751407     1.007825032230
         H            2.299603992297    -0.626636344822     1.289001248593     1.007825032230
         H            2.131503992297     1.651035655178     0.780295248593     1.007825032230
         H            2.289075992297     1.377530655178    -0.945526751407     1.007825032230
         H           -1.947206007703    -1.611075344822     0.071406248593     1.007825032230
         H           -1.645728007703    -0.624265344822    -1.352469751407     1.007825032230
         H           -2.818476007703     0.433087655178     1.286540248593     1.007825032230
         H           -2.588527007703     1.384419655178    -0.187115751407     1.007825032230
         H           -3.760091007703     0.061555655178    -0.164351751407     1.007825032230

  Basis Set: AUG-CC-PVTZ
    Blend: AUG-CC-PVTZ
  Basis Set: (AUG-CC-PVTZ AUX)
    Blend: AUG-CC-PVTZ-JKFIT
	 Reference Energy          =    -273.3223937763460185 [Eh]
	 Singles Energy            =      -0.0000000000000000 [Eh]
	 Same-Spin Energy          =      -0.2974200323859836 [Eh]
	 Opposite-Spin Energy      =      -1.0776344548146375 [Eh]
	 Correlation Energy        =      -1.3750544872006212 [Eh]
	 Total Energy              =    -274.6974482635466188 [Eh]

	 ================> DF-SCS-MP2 Energies <==================
	-----------------------------------------------------------
	 SCS Same-Spin Scale       =       0.3333333333333333 [-]
	 SCS Opposite-Spin Scale   =       1.2000000000000000 [-]
	 SCS Same-Spin Energy      =      -0.0991400107953279 [Eh]
	 SCS Opposite-Spin Energy  =      -1.2931613457775650 [Eh]
	 SCS Correlation Energy    =      -1.3923013565728928 [Eh]
	 SCS Total Energy          =    -274.7146951329189051 [Eh]
	-----------------------------------------------------------

  Dipole Moment: [D]
     X:    -0.0091      Y:    -0.0499      Z:     0.0406     Total:     0.0650

*** Psi4 exiting successfully. Buy a developer a beer!
