                               Psi4 1.3.2 release

  ==> Input File <==

--------------------------------------------------------------------------
#psi4
#
memory 32 gb

molecule  {
0 1
  C       -0.2796410    -0.2534110     0.2699600
  C        0.7988357    -1.2604042    -0.1362685
  C        0.2651040     1.0998010    -0.2107530
  C        2.1130990    -0.4802110     0.2221390
  C        1.8015910     1.0121590    -0.0461820
  C       -1.6656960    -0.6060100    -0.2573320
  C       -2.7543930     0.3665140     0.1916780
  H       -0.3152930    -0.2454590     1.3709960
  H        0.7753790    -1.3637350    -1.2449700
  H        0.7413790    -2.2073630     0.3107570
  H       -0.1666070     1.9492740     0.3275400
  H        0.0028850     1.2252210    -1.2696860
  H        2.9896260    -0.8344780    -0.3294880
  H        2.3206340    -0.6367720     1.2866620
  H        2.1525340     1.6409000     0.7779560
  H        2.3101060     1.3673950    -0.9478660
  H       -1.9261760    -1.6212110     0.0690670
  H       -1.6246980    -0.6344010    -1.3548090
  H       -2.7974460     0.4229520     1.2842010
  H       -2.5674970     1.3742840    -0.1894550
  H       -3.7390610     0.0514200    -0.1666910
units angstrom
no_reorient  #important for SAPT in psi4, default
symmetry c1  #important for SAPT in psi4, default
}

set PROPERTIES_ORIGIN ["COM"]
properties('MP2/aug-cc-pvtz', properties = ['dipole'])
--------------------------------------------------------------------------

    Molecular point group: c1
  Charge       = 0
  Multiplicity = 1
  Basis Set: AUG-CC-PVTZ
    Blend: AUG-CC-PVTZ
  Basis Set: (AUG-CC-PVTZ AUX)
    Blend: AUG-CC-PVTZ-JKFIT

    Orbital Energies [Eh]
    ---------------------

    Doubly Occupied:

       1A    -11.215339     2A    -11.213122     3A    -11.212977
       4A    -11.212276     5A    -11.210877     6A    -11.208956
       7A    -11.208215     8A     -1.121461     9A     -1.032181
      10A     -0.956558    11A     -0.938170    12A     -0.833509
      13A     -0.772704    14A     -0.750883    15A     -0.655861
      16A     -0.627601    17A     -0.603819    18A     -0.568014
      19A     -0.555661    20A     -0.551012    21A     -0.513789
      22A     -0.486210    23A     -0.478394    24A     -0.465128
      25A     -0.448177    26A     -0.445315    27A     -0.439865
      28A     -0.433377

  @DF-RHF Final Energy:  -273.32265767543174

   => Energetics <=

    Nuclear Repulsion Energy =            322.3016906140512674
    One-Electron Energy =               -1006.9297944222282695
    Two-Electron Energy =                 411.3054461327452600
    Total Energy =                       -273.3226576754317421
  Basis Set: (AUG-CC-PVTZ AUX)
    Blend: AUG-CC-PVTZ-RI
    Molecular point group: c1

    Geometry (in Angstrom), charge = 0, multiplicity = 1:

       Center              X                  Y                   Z               Mass
    ------------   -----------------  -----------------  -----------------  -----------------
         C           -0.294809046279    -0.243555684503     0.266672664867    12.000000000000
         C            0.783667653721    -1.250548884503    -0.139555835133    12.000000000000
         C            0.249935953721     1.109656315497    -0.214040335133    12.000000000000
         C            2.097930953721    -0.470355684503     0.218851664867    12.000000000000
         C            1.786422953721     1.022014315497    -0.049469335133    12.000000000000
         C           -1.680864046279    -0.596154684503    -0.260619335133    12.000000000000
         C           -2.769561046279     0.376369315497     0.188390664867    12.000000000000
         H           -0.330461046279    -0.235603684503     1.367708664867     1.007825032230
         H            0.760210953721    -1.353879684503    -1.248257335133     1.007825032230
         H            0.726210953721    -2.197507684503     0.307469664867     1.007825032230
         H           -0.181775046279     1.959129315497     0.324252664867     1.007825032230
         H           -0.012283046279     1.235076315497    -1.272973335133     1.007825032230
         H            2.974457953721    -0.824622684503    -0.332775335133     1.007825032230
         H            2.305465953721    -0.626916684503     1.283374664867     1.007825032230
         H            2.137365953721     1.650755315497     0.774668664867     1.007825032230
         H            2.294937953721     1.377250315497    -0.951153335133     1.007825032230
         H           -1.941344046279    -1.611355684503     0.065779664867     1.007825032230
         H           -1.639866046279    -0.624545684503    -1.358096335133     1.007825032230
         H           -2.812614046279     0.432807315497     1.280913664867     1.007825032230
         H           -2.582665046279     1.384139315497    -0.192742335133     1.007825032230
         H           -3.754229046279     0.061275315497    -0.169978335133     1.007825032230

  Basis Set: AUG-CC-PVTZ
    Blend: AUG-CC-PVTZ
  Basis Set: (AUG-CC-PVTZ AUX)
    Blend: AUG-CC-PVTZ-JKFIT
	 Reference Energy          =    -273.3226576754317421 [Eh]
	 Singles Energy            =      -0.0000000000000000 [Eh]
	 Same-Spin Energy          =      -0.2969874252269477 [Eh]
	 Opposite-Spin Energy      =      -1.0773644328343521 [Eh]
	 Correlation Energy        =      -1.3743518580612997 [Eh]
	 Total Energy              =    -274.6970095334930306 [Eh]

	 ================> DF-SCS-MP2 Energies <==================
	-----------------------------------------------------------
	 SCS Same-Spin Scale       =       0.3333333333333333 [-]
	 SCS Opposite-Spin Scale   =       1.2000000000000000 [-]
	 SCS Same-Spin Energy      =      -0.0989958084089825 [Eh]
	 SCS Opposite-Spin Energy  =      -1.2928373194012226 [Eh]
	 SCS Correlation Energy    =      -1.3918331278102052 [Eh]
	 SCS Total Energy          =    -274.7144908032419721 [Eh]
	-----------------------------------------------------------

  Dipole Moment: [D]
     X:    -0.0054      Y:    -0.0533      Z:     0.0702     Total:     0.0883

*** Psi4 exiting successfully. Buy a developer a beer!
