                               Psi4 1.3.2 release

  ==> Input File <==

--------------------------------------------------------------------------
#psi4
#
memory 32 gb

molecule  {
0 1
  C       -0.2032638    -0.1865500     0.3032307
  C        0.8273080    -1.2201790    -0.1568800
  C        0.2651040     1.0998010    -0.2107530
  C        2.1130990    -0.4802110     0.2221390
  C        1.8015910     1.0121590    -0.0461820
  C       -1.6656960    -0.6060100    -0.2573320
  C       -2.7543930     0.3665140     0.1916780
  H       -0.3152930    -0.2454590     1.3709960
  H        0.7753790    -1.3637350    -1.2449700
  H        0.7413790    -2.2073630     0.3107570
  H       -0.1666070     1.9492740     0.3275400
  H        0.0028850     1.2252210    -1.2696860
  H        2.9896260    -0.8344780    -0.3294880
  H        2.3206340    -0.6367720     1.2866620
  H        2.1525340     1.6409000     0.7779560
  H        2.3101060     1.3673950    -0.9478660
  H       -1.9261760    -1.6212110     0.0690670
  H       -1.6246980    -0.6344010    -1.3548090
  H       -2.7974460     0.4229520     1.2842010
  H       -2.5674970     1.3742840    -0.1894550
  H       -3.7390610     0.0514200    -0.1666910
units angstrom
no_reorient  #important for SAPT in psi4, default
symmetry c1  #important for SAPT in psi4, default
}

set PROPERTIES_ORIGIN ["COM"]
properties('MP2/aug-cc-pvtz', properties = ['dipole'])
--------------------------------------------------------------------------

    Molecular point group: c1
  Charge       = 0
  Multiplicity = 1
  Basis Set: AUG-CC-PVTZ
    Blend: AUG-CC-PVTZ
  Basis Set: (AUG-CC-PVTZ AUX)
    Blend: AUG-CC-PVTZ-JKFIT

    Orbital Energies [Eh]
    ---------------------

    Doubly Occupied:

       1A    -11.215280     2A    -11.213925     3A    -11.211632
       4A    -11.210305     5A    -11.209195     6A    -11.207807
       7A    -11.206908     8A     -1.131152     9A     -1.024703
      10A     -0.960380    11A     -0.940735    12A     -0.825179
      13A     -0.773233    14A     -0.755682    15A     -0.656984
      16A     -0.628701    17A     -0.600978    18A     -0.572295
      19A     -0.556657    20A     -0.548824    21A     -0.511832
      22A     -0.486993    23A     -0.477579    24A     -0.465451
      25A     -0.460180    26A     -0.450677    27A     -0.440288
      28A     -0.413435

  @DF-RHF Final Energy:  -273.31448041713702

   => Energetics <=

    Nuclear Repulsion Energy =            323.0513652915236094
    One-Electron Energy =               -1008.4177131438943888
    Two-Electron Energy =                 412.0518674352338166
    Total Energy =                       -273.3144804171370197
  Basis Set: (AUG-CC-PVTZ AUX)
    Blend: AUG-CC-PVTZ-RI
    Molecular point group: c1

    Geometry (in Angstrom), charge = 0, multiplicity = 1:

       Center              X                  Y                   Z               Mass
    ------------   -----------------  -----------------  -----------------  -----------------
         C           -0.231256224683    -0.189792638719     0.298394989614    12.000000000000
         C            0.799315575317    -1.223421638719    -0.161715710386    12.000000000000
         C            0.237111575317     1.096558361281    -0.215588710386    12.000000000000
         C            2.085106575317    -0.483453638719     0.217303289614    12.000000000000
         C            1.773598575317     1.008916361281    -0.051017710386    12.000000000000
         C           -1.693688424683    -0.609252638719    -0.262167710386    12.000000000000
         C           -2.782385424683     0.363271361281     0.186842289614    12.000000000000
         H           -0.343285424683    -0.248701638719     1.366160289614     1.007825032230
         H            0.747386575317    -1.366977638719    -1.249805710386     1.007825032230
         H            0.713386575317    -2.210605638719     0.305921289614     1.007825032230
         H           -0.194599424683     1.946031361281     0.322704289614     1.007825032230
         H           -0.025107424683     1.221978361281    -1.274521710386     1.007825032230
         H            2.961633575317    -0.837720638719    -0.334323710386     1.007825032230
         H            2.292641575317    -0.640014638719     1.281826289614     1.007825032230
         H            2.124541575317     1.637657361281     0.773120289614     1.007825032230
         H            2.282113575317     1.364152361281    -0.952701710386     1.007825032230
         H           -1.954168424683    -1.624453638719     0.064231289614     1.007825032230
         H           -1.652690424683    -0.637643638719    -1.359644710386     1.007825032230
         H           -2.825438424683     0.419709361281     1.279365289614     1.007825032230
         H           -2.595489424683     1.371041361281    -0.194290710386     1.007825032230
         H           -3.767053424683     0.048177361281    -0.171526710386     1.007825032230

  Basis Set: AUG-CC-PVTZ
    Blend: AUG-CC-PVTZ
  Basis Set: (AUG-CC-PVTZ AUX)
    Blend: AUG-CC-PVTZ-JKFIT
	 Reference Energy          =    -273.3144804171370197 [Eh]
	 Singles Energy            =      -0.0000000000000000 [Eh]
	 Same-Spin Energy          =      -0.2975866444718691 [Eh]
	 Opposite-Spin Energy      =      -1.0779718641855625 [Eh]
	 Correlation Energy        =      -1.3755585086574316 [Eh]
	 Total Energy              =    -274.6900389257944539 [Eh]

	 ================> DF-SCS-MP2 Energies <==================
	-----------------------------------------------------------
	 SCS Same-Spin Scale       =       0.3333333333333333 [-]
	 SCS Opposite-Spin Scale   =       1.2000000000000000 [-]
	 SCS Same-Spin Energy      =      -0.0991955481572897 [Eh]
	 SCS Opposite-Spin Energy  =      -1.2935662370226748 [Eh]
	 SCS Correlation Energy    =      -1.3927617851799645 [Eh]
	 SCS Total Energy          =    -274.7072422023169906 [Eh]
	-----------------------------------------------------------

  Dipole Moment: [D]
     X:     0.0211      Y:    -0.0344      Z:     0.0678     Total:     0.0789

*** Psi4 exiting successfully. Buy a developer a beer!
