                               Psi4 1.3.2 release

  ==> Input File <==

--------------------------------------------------------------------------
#psi4
#
memory 32 gb

molecule  {
0 1
  C       -0.2796410    -0.2534110     0.2699600
  C        0.8273080    -1.2201790    -0.1568800
  C        0.2651040     1.0998010    -0.2107530
  C        2.0983544    -0.4827996     0.2734446
  C        1.8015910     1.0121590    -0.0461820
  C       -1.6656960    -0.6060100    -0.2573320
  C       -2.7543930     0.3665140     0.1916780
  H       -0.3152930    -0.2454590     1.3709960
  H        0.7753790    -1.3637350    -1.2449700
  H        0.7413790    -2.2073630     0.3107570
  H       -0.1666070     1.9492740     0.3275400
  H        0.0028850     1.2252210    -1.2696860
  H        2.9896260    -0.8344780    -0.3294880
  H        2.3206340    -0.6367720     1.2866620
  H        2.1525340     1.6409000     0.7779560
  H        2.3101060     1.3673950    -0.9478660
  H       -1.9261760    -1.6212110     0.0690670
  H       -1.6246980    -0.6344010    -1.3548090
  H       -2.7974460     0.4229520     1.2842010
  H       -2.5674970     1.3742840    -0.1894550
  H       -3.7390610     0.0514200    -0.1666910
units angstrom
no_reorient  #important for SAPT in psi4, default
symmetry c1  #important for SAPT in psi4, default
}

set PROPERTIES_ORIGIN ["COM"]
properties('MP2/aug-cc-pvtz', properties = ['dipole'])
--------------------------------------------------------------------------

    Molecular point group: c1
  Charge       = 0
  Multiplicity = 1
  Basis Set: AUG-CC-PVTZ
    Blend: AUG-CC-PVTZ
  Basis Set: (AUG-CC-PVTZ AUX)
    Blend: AUG-CC-PVTZ-JKFIT

    Orbital Energies [Eh]
    ---------------------

    Doubly Occupied:

       1A    -11.214656     2A    -11.213319     3A    -11.212388
       4A    -11.211265     5A    -11.209799     6A    -11.209758
       7A    -11.208606     8A     -1.124644     9A     -1.033393
      10A     -0.956244    11A     -0.938756    12A     -0.833260
      13A     -0.774198    14A     -0.750540    15A     -0.652648
      16A     -0.627109    17A     -0.604978    18A     -0.571817
      19A     -0.559055    20A     -0.549588    21A     -0.513235
      22A     -0.485291    23A     -0.470598    24A     -0.465006
      25A     -0.453579    26A     -0.445933    27A     -0.442196
      28A     -0.432864

  @DF-RHF Final Energy:  -273.32220477088589

   => Energetics <=

    Nuclear Repulsion Energy =            322.7964719681727956
    One-Electron Energy =               -1007.9079054377086777
    Two-Electron Energy =                 411.7892286986499926
    Total Energy =                       -273.3222047708858895
  Basis Set: (AUG-CC-PVTZ AUX)
    Blend: AUG-CC-PVTZ-RI
    Molecular point group: c1

    Geometry (in Angstrom), charge = 0, multiplicity = 1:

       Center              X                  Y                   Z               Mass
    ------------   -----------------  -----------------  -----------------  -----------------
         C           -0.296488112173    -0.248159101784     0.262918400391    12.000000000000
         C            0.810460887827    -1.214927101784    -0.163921599609    12.000000000000
         C            0.248256887827     1.105052898216    -0.217794599609    12.000000000000
         C            2.081507287827    -0.477547701784     0.266403000391    12.000000000000
         C            1.784743887827     1.017410898216    -0.053223599609    12.000000000000
         C           -1.682543112173    -0.600758101784    -0.264373599609    12.000000000000
         C           -2.771240112173     0.371765898216     0.184636400391    12.000000000000
         H           -0.332140112173    -0.240207101784     1.363954400391     1.007825032230
         H            0.758531887827    -1.358483101784    -1.252011599609     1.007825032230
         H            0.724531887827    -2.202111101784     0.303715400391     1.007825032230
         H           -0.183454112173     1.954525898216     0.320498400391     1.007825032230
         H           -0.013962112173     1.230472898216    -1.276727599609     1.007825032230
         H            2.972778887827    -0.829226101784    -0.336529599609     1.007825032230
         H            2.303786887827    -0.631520101784     1.279620400391     1.007825032230
         H            2.135686887827     1.646151898216     0.770914400391     1.007825032230
         H            2.293258887827     1.372646898216    -0.954907599609     1.007825032230
         H           -1.943023112173    -1.615959101784     0.062025400391     1.007825032230
         H           -1.641545112173    -0.629149101784    -1.361850599609     1.007825032230
         H           -2.814293112173     0.428203898216     1.277159400391     1.007825032230
         H           -2.584344112173     1.379535898216    -0.196496599609     1.007825032230
         H           -3.755908112173     0.056671898216    -0.173732599609     1.007825032230

  Basis Set: AUG-CC-PVTZ
    Blend: AUG-CC-PVTZ
  Basis Set: (AUG-CC-PVTZ AUX)
    Blend: AUG-CC-PVTZ-JKFIT
	 Reference Energy          =    -273.3222047708858895 [Eh]
	 Singles Energy            =      -0.0000000000000000 [Eh]
	 Same-Spin Energy          =      -0.2971986661259062 [Eh]
	 Opposite-Spin Energy      =      -1.0774098063827351 [Eh]
	 Correlation Energy        =      -1.3746084725086414 [Eh]
	 Total Energy              =    -274.6968132433945584 [Eh]

	 ================> DF-SCS-MP2 Energies <==================
	-----------------------------------------------------------
	 SCS Same-Spin Scale       =       0.3333333333333333 [-]
	 SCS Opposite-Spin Scale   =       1.2000000000000000 [-]
	 SCS Same-Spin Energy      =      -0.0990662220419687 [Eh]
	 SCS Opposite-Spin Energy  =      -1.2928917676592822 [Eh]
	 SCS Correlation Energy    =      -1.3919579897012508 [Eh]
	 SCS Total Energy          =    -274.7141627605871577 [Eh]
	-----------------------------------------------------------

  Dipole Moment: [D]
     X:    -0.0180      Y:    -0.0462      Z:     0.0813     Total:     0.0952

*** Psi4 exiting successfully. Buy a developer a beer!
