                               Psi4 1.3.2 release

  ==> Input File <==

--------------------------------------------------------------------------
#psi4
#
memory 32 gb

molecule  {
0 1
  C       -0.2796410    -0.2534110     0.2699600
  C        0.8273080    -1.2201790    -0.1568800
  C        0.2651040     1.0998010    -0.2107530
  C        2.1130990    -0.4802110     0.2221390
  C        1.8015910     1.0121590    -0.0461820
  C       -1.6656960    -0.6060100    -0.2573320
  C       -2.7543930     0.3665140     0.1916780
  H       -0.3152930    -0.2454590     1.3709960
  H        0.7753790    -1.3637350    -1.2449700
  H        0.7413790    -2.2073630     0.3107570
  H       -0.1666070     1.9492740     0.3275400
  H        0.0028850     1.2252210    -1.2696860
  H        3.0059836    -0.8437382    -0.2962258
  H        2.3206340    -0.6367720     1.2866620
  H        2.1525340     1.6409000     0.7779560
  H        2.3101060     1.3673950    -0.9478660
  H       -1.9261760    -1.6212110     0.0690670
  H       -1.6246980    -0.6344010    -1.3548090
  H       -2.7974460     0.4229520     1.2842010
  H       -2.5674970     1.3742840    -0.1894550
  H       -3.7390610     0.0514200    -0.1666910
units angstrom
no_reorient  #important for SAPT in psi4, default
symmetry c1  #important for SAPT in psi4, default
}

set PROPERTIES_ORIGIN ["COM"]
properties('MP2/aug-cc-pvtz', properties = ['dipole'])
--------------------------------------------------------------------------

    Molecular point group: c1
  Charge       = 0
  Multiplicity = 1
  Basis Set: AUG-CC-PVTZ
    Blend: AUG-CC-PVTZ
  Basis Set: (AUG-CC-PVTZ AUX)
    Blend: AUG-CC-PVTZ-JKFIT

    Orbital Energies [Eh]
    ---------------------

    Doubly Occupied:

       1A    -11.215069     2A    -11.213657     3A    -11.212286
       4A    -11.211462     5A    -11.210308     6A    -11.209865
       7A    -11.208823     8A     -1.124651     9A     -1.033860
      10A     -0.956075    11A     -0.939537    12A     -0.833699
      13A     -0.771772    14A     -0.751468    15A     -0.652072
      16A     -0.629848    17A     -0.604117    18A     -0.568956
      19A     -0.555869    20A     -0.552430    21A     -0.513001
      22A     -0.485127    23A     -0.472589    24A     -0.465200
      25A     -0.451084    26A     -0.445917    27A     -0.442970
      28A     -0.435500

  @DF-RHF Final Energy:  -273.32531349148604

   => Energetics <=

    Nuclear Repulsion Energy =            322.7387719488152129
    One-Electron Energy =               -1007.7937488913910329
    Two-Electron Energy =                 411.7296634510898343
    Total Energy =                       -273.3253134914860425
  Basis Set: (AUG-CC-PVTZ AUX)
    Blend: AUG-CC-PVTZ-RI
    Molecular point group: c1

    Geometry (in Angstrom), charge = 0, multiplicity = 1:

       Center              X                  Y                   Z               Mass
    ------------   -----------------  -----------------  -----------------  -----------------
         C           -0.298459589953    -0.248380594376     0.268852019692    12.000000000000
         C            0.808489410047    -1.215148594376    -0.157987980308    12.000000000000
         C            0.246285410047     1.104831405624    -0.211860980308    12.000000000000
         C            2.094280410047    -0.475180594376     0.221031019692    12.000000000000
         C            1.782772410047     1.017189405624    -0.047289980308    12.000000000000
         C           -1.684514589953    -0.600979594376    -0.258439980308    12.000000000000
         C           -2.773211589953     0.371544405624     0.190570019692    12.000000000000
         H           -0.334111589953    -0.240428594376     1.369888019692     1.007825032230
         H            0.756560410047    -1.358704594376    -1.246077980308     1.007825032230
         H            0.722560410047    -2.202332594376     0.309649019692     1.007825032230
         H           -0.185425589953     1.954304405624     0.326432019692     1.007825032230
         H           -0.015933589953     1.230251405624    -1.270793980308     1.007825032230
         H            2.987165010047    -0.838707794376    -0.297333780308     1.007825032230
         H            2.301815410047    -0.631741594376     1.285554019692     1.007825032230
         H            2.133715410047     1.645930405624     0.776848019692     1.007825032230
         H            2.291287410047     1.372425405624    -0.948973980308     1.007825032230
         H           -1.944994589953    -1.616180594376     0.067959019692     1.007825032230
         H           -1.643516589953    -0.629370594376    -1.355916980308     1.007825032230
         H           -2.816264589953     0.427982405624     1.283093019692     1.007825032230
         H           -2.586315589953     1.379314405624    -0.190562980308     1.007825032230
         H           -3.757879589953     0.056450405624    -0.167798980308     1.007825032230

  Basis Set: AUG-CC-PVTZ
    Blend: AUG-CC-PVTZ
  Basis Set: (AUG-CC-PVTZ AUX)
    Blend: AUG-CC-PVTZ-JKFIT
	 Reference Energy          =    -273.3253134914860425 [Eh]
	 Singles Energy            =      -0.0000000000000000 [Eh]
	 Same-Spin Energy          =      -0.2971537244208862 [Eh]
	 Opposite-Spin Energy      =      -1.0772514752987052 [Eh]
	 Correlation Energy        =      -1.3744051997195914 [Eh]
	 Total Energy              =    -274.6997186912056463 [Eh]

	 ================> DF-SCS-MP2 Energies <==================
	-----------------------------------------------------------
	 SCS Same-Spin Scale       =       0.3333333333333333 [-]
	 SCS Opposite-Spin Scale   =       1.2000000000000000 [-]
	 SCS Same-Spin Energy      =      -0.0990512414736287 [Eh]
	 SCS Opposite-Spin Energy  =      -1.2927017703584462 [Eh]
	 SCS Correlation Energy    =      -1.3917530118320749 [Eh]
	 SCS Total Energy          =    -274.7170665033181081 [Eh]
	-----------------------------------------------------------

  Dipole Moment: [D]
     X:    -0.0080      Y:    -0.0479      Z:     0.0575     Total:     0.0752

*** Psi4 exiting successfully. Buy a developer a beer!
