                               Psi4 1.4a3.dev225

  ==> Input File <==

--------------------------------------------------------------------------
#psi4
#
memory 32 gb

molecule  {
0 1
  C       -0.2796410    -0.2534110     0.2699600
  C        0.8273080    -1.2201790    -0.1568800
  C        0.2651040     1.0998010    -0.2107530
  C        2.1130990    -0.4802110     0.2221390
  C        1.8015910     1.0121590    -0.0461820
  C       -1.6475100    -0.6013836    -0.2504136
  C       -2.7543930     0.3665140     0.1916780
  H       -0.3152930    -0.2454590     1.3709960
  H        0.7753790    -1.3637350    -1.2449700
  H        0.7413790    -2.2073630     0.3107570
  H       -0.1666070     1.9492740     0.3275400
  H        0.0028850     1.2252210    -1.2696860
  H        2.9896260    -0.8344780    -0.3294880
  H        2.3206340    -0.6367720     1.2866620
  H        2.1525340     1.6409000     0.7779560
  H        2.3101060     1.3673950    -0.9478660
  H       -1.9261760    -1.6212110     0.0690670
  H       -1.6246980    -0.6344010    -1.3548090
  H       -2.7974460     0.4229520     1.2842010
  H       -2.5674970     1.3742840    -0.1894550
  H       -3.7390610     0.0514200    -0.1666910
units angstrom
no_reorient  #important for SAPT in psi4, default
symmetry c1  #important for SAPT in psi4, default
}

set PROPERTIES_ORIGIN ["COM"]
properties('MP2/aug-cc-pvtz', properties = ['dipole'])
--------------------------------------------------------------------------

    Molecular point group: c1
  Charge       = 0
  Multiplicity = 1
  Basis Set: AUG-CC-PVTZ
    Blend: AUG-CC-PVTZ
  Basis Set: (AUG-CC-PVTZ AUX)
    Blend: AUG-CC-PVTZ-JKFIT

    Orbital Energies [Eh]
    ---------------------

    Doubly Occupied:

       1A    -11.214565     2A    -11.213888     3A    -11.212187
       4A    -11.211530     5A    -11.210297     6A    -11.209791
       7A    -11.209112     8A     -1.125922     9A     -1.034048
      10A     -0.956306    11A     -0.939551    12A     -0.834104
      13A     -0.771287    14A     -0.751446    15A     -0.652371
      16A     -0.631233    17A     -0.603440    18A     -0.569460
      19A     -0.556271    20A     -0.552430    21A     -0.511614
      22A     -0.483911    23A     -0.472319    24A     -0.464399
      25A     -0.452779    26A     -0.449787    27A     -0.442163
      28A     -0.433599

  @DF-RHF Final Energy:  -273.32492563866481

   => Energetics <=

    Nuclear Repulsion Energy =            323.0126601614754236
    One-Electron Energy =               -1008.3355587700152682
    Two-Electron Energy =                 411.9979729698750361
    Total Energy =                       -273.3249256386648085
  Basis Set: (AUG-CC-PVTZ AUX)
    Blend: AUG-CC-PVTZ-RI
    Molecular point group: c1

    Geometry (in Angstrom), charge = 0, multiplicity = 1:

       Center              X                  Y                   Z               Mass
    ------------   -----------------  -----------------  -----------------  -----------------
         C           -0.300515927999    -0.249041584678     0.268347498756    12.000000000000
         C            0.806433072001    -1.215809584678    -0.158492501244    12.000000000000
         C            0.244229072001     1.104170415322    -0.212365501244    12.000000000000
         C            2.092224072001    -0.475841584678     0.220526498756    12.000000000000
         C            1.780716072001     1.016528415322    -0.047794501244    12.000000000000
         C           -1.668384927999    -0.597014184678    -0.252026101244    12.000000000000
         C           -2.775267927999     0.370883415322     0.190065498756    12.000000000000
         H           -0.336167927999    -0.241089584678     1.369383498756     1.007825032230
         H            0.754504072001    -1.359365584678    -1.246582501244     1.007825032230
         H            0.720504072001    -2.202993584678     0.309144498756     1.007825032230
         H           -0.187481927999     1.953643415322     0.325927498756     1.007825032230
         H           -0.017989927999     1.229590415322    -1.271298501244     1.007825032230
         H            2.968751072001    -0.830108584678    -0.331100501244     1.007825032230
         H            2.299759072001    -0.632402584678     1.285049498756     1.007825032230
         H            2.131659072001     1.645269415322     0.776343498756     1.007825032230
         H            2.289231072001     1.371764415322    -0.949478501244     1.007825032230
         H           -1.947050927999    -1.616841584678     0.067454498756     1.007825032230
         H           -1.645572927999    -0.630031584678    -1.356421501244     1.007825032230
         H           -2.818320927999     0.427321415322     1.282588498756     1.007825032230
         H           -2.588371927999     1.378653415322    -0.191067501244     1.007825032230
         H           -3.759935927999     0.055789415322    -0.168303501244     1.007825032230

  Basis Set: AUG-CC-PVTZ
    Blend: AUG-CC-PVTZ
  Basis Set: (AUG-CC-PVTZ AUX)
    Blend: AUG-CC-PVTZ-JKFIT
	 Reference Energy          =    -273.3249256386648085 [Eh]
	 Singles Energy            =      -0.0000000000000000 [Eh]
	 Same-Spin Energy          =      -0.2972579626850854 [Eh]
	 Opposite-Spin Energy      =      -1.0774159324883721 [Eh]
	 Correlation Energy        =      -1.3746738951734576 [Eh]
	 Total Energy              =    -274.6995995338382386 [Eh]

	 ================> DF-SCS-MP2 Energies <==================
	-----------------------------------------------------------
	 SCS Same-Spin Scale       =       0.3333333333333333 [-]
	 SCS Opposite-Spin Scale   =       1.2000000000000000 [-]
	 SCS Same-Spin Energy      =      -0.0990859875616951 [Eh]
	 SCS Opposite-Spin Energy  =      -1.2928991189860464 [Eh]
	 SCS Correlation Energy    =      -1.3919851065477415 [Eh]
	 SCS Total Energy          =    -274.7169107452125445 [Eh]
	-----------------------------------------------------------

  Dipole Moment: [D]
     X:    -0.0005      Y:    -0.0441      Z:     0.0520     Total:     0.0682

*** Psi4 exiting successfully. Buy a developer a beer!
