                               Psi4 1.3.2 release

  ==> Input File <==

--------------------------------------------------------------------------
#psi4
#
memory 32 gb

molecule  {
0 1
  C       -0.2796410    -0.2534110     0.2699600
  C        0.8137922    -1.2051768    -0.1393756
  C        0.2651040     1.0998010    -0.2107530
  C        2.1130990    -0.4802110     0.2221390
  C        1.8015910     1.0121590    -0.0461820
  C       -1.6656960    -0.6060100    -0.2573320
  C       -2.7543930     0.3665140     0.1916780
  H       -0.3152930    -0.2454590     1.3709960
  H        0.7753790    -1.3637350    -1.2449700
  H        0.7413790    -2.2073630     0.3107570
  H       -0.1666070     1.9492740     0.3275400
  H        0.0028850     1.2252210    -1.2696860
  H        2.9896260    -0.8344780    -0.3294880
  H        2.3206340    -0.6367720     1.2866620
  H        2.1525340     1.6409000     0.7779560
  H        2.3101060     1.3673950    -0.9478660
  H       -1.9261760    -1.6212110     0.0690670
  H       -1.6246980    -0.6344010    -1.3548090
  H       -2.7974460     0.4229520     1.2842010
  H       -2.5674970     1.3742840    -0.1894550
  H       -3.7390610     0.0514200    -0.1666910
units angstrom
no_reorient  #important for SAPT in psi4, default
symmetry c1  #important for SAPT in psi4, default
}

set PROPERTIES_ORIGIN ["COM"]
properties('MP2/aug-cc-pvtz', properties = ['dipole'])
--------------------------------------------------------------------------

    Molecular point group: c1
  Charge       = 0
  Multiplicity = 1
  Basis Set: AUG-CC-PVTZ
    Blend: AUG-CC-PVTZ
  Basis Set: (AUG-CC-PVTZ AUX)
    Blend: AUG-CC-PVTZ-JKFIT

    Orbital Energies [Eh]
    ---------------------

    Doubly Occupied:

       1A    -11.214266     2A    -11.213649     3A    -11.212094
       4A    -11.211516     5A    -11.210624     6A    -11.210326
       7A    -11.208935     8A     -1.127306     9A     -1.034185
      10A     -0.956161    11A     -0.940781    12A     -0.833635
      13A     -0.769805    14A     -0.752215    15A     -0.652830
      16A     -0.631022    17A     -0.604526    18A     -0.568290
      19A     -0.556592    20A     -0.552386    21A     -0.513358
      22A     -0.484289    23A     -0.471950    24A     -0.463839
      25A     -0.449135    26A     -0.445704    27A     -0.444735
      28A     -0.438199

  @DF-RHF Final Energy:  -273.32452695356562

   => Energetics <=

    Nuclear Repulsion Energy =            323.1114645929797575
    One-Electron Energy =               -1008.5272791925053752
    Two-Electron Energy =                 412.0912876459600511
    Total Energy =                       -273.3245269535656234
  Basis Set: (AUG-CC-PVTZ AUX)
    Blend: AUG-CC-PVTZ-RI
    Molecular point group: c1

    Geometry (in Angstrom), charge = 0, multiplicity = 1:

       Center              X                  Y                   Z               Mass
    ------------   -----------------  -----------------  -----------------  -----------------
         C           -0.296638409467    -0.250310672136     0.267052701263    12.000000000000
         C            0.796794790533    -1.202076472136    -0.142282898737    12.000000000000
         C            0.248106590533     1.102901327864    -0.213660298737    12.000000000000
         C            2.096101590533    -0.477110672136     0.219231701263    12.000000000000
         C            1.784593590533     1.015259327864    -0.049089298737    12.000000000000
         C           -1.682693409467    -0.602909672136    -0.260239298737    12.000000000000
         C           -2.771390409467     0.369614327864     0.188770701263    12.000000000000
         H           -0.332290409467    -0.242358672136     1.368088701263     1.007825032230
         H            0.758381590533    -1.360634672136    -1.247877298737     1.007825032230
         H            0.724381590533    -2.204262672136     0.307849701263     1.007825032230
         H           -0.183604409467     1.952374327864     0.324632701263     1.007825032230
         H           -0.014112409467     1.228321327864    -1.272593298737     1.007825032230
         H            2.972628590533    -0.831377672136    -0.332395298737     1.007825032230
         H            2.303636590533    -0.633671672136     1.283754701263     1.007825032230
         H            2.135536590533     1.644000327864     0.775048701263     1.007825032230
         H            2.293108590533     1.370495327864    -0.950773298737     1.007825032230
         H           -1.943173409467    -1.618110672136     0.066159701263     1.007825032230
         H           -1.641695409467    -0.631300672136    -1.357716298737     1.007825032230
         H           -2.814443409467     0.426052327864     1.281293701263     1.007825032230
         H           -2.584494409467     1.377384327864    -0.192362298737     1.007825032230
         H           -3.756058409467     0.054520327864    -0.169598298737     1.007825032230

  Basis Set: AUG-CC-PVTZ
    Blend: AUG-CC-PVTZ
  Basis Set: (AUG-CC-PVTZ AUX)
    Blend: AUG-CC-PVTZ-JKFIT
	 Reference Energy          =    -273.3245269535656234 [Eh]
	 Singles Energy            =      -0.0000000000000000 [Eh]
	 Same-Spin Energy          =      -0.2973218343912600 [Eh]
	 Opposite-Spin Energy      =      -1.0774474225266983 [Eh]
	 Correlation Energy        =      -1.3747692569179584 [Eh]
	 Total Energy              =    -274.6992962104835669 [Eh]

	 ================> DF-SCS-MP2 Energies <==================
	-----------------------------------------------------------
	 SCS Same-Spin Scale       =       0.3333333333333333 [-]
	 SCS Opposite-Spin Scale   =       1.2000000000000000 [-]
	 SCS Same-Spin Energy      =      -0.0991072781304200 [Eh]
	 SCS Opposite-Spin Energy  =      -1.2929369070320380 [Eh]
	 SCS Correlation Energy    =      -1.3920441851624581 [Eh]
	 SCS Total Energy          =    -274.7165711387280567 [Eh]
	-----------------------------------------------------------

  Dipole Moment: [D]
     X:    -0.0094      Y:    -0.0418      Z:     0.0582     Total:     0.0723

*** Psi4 exiting successfully. Buy a developer a beer!
