                               Psi4 1.3.2 release

  ==> Input File <==

--------------------------------------------------------------------------
#psi4
#
memory 32 gb

molecule  {
0 1
  C       -0.2771134    -0.3014270     0.2927397
  C        0.8273080    -1.2201790    -0.1568800
  C        0.2651040     1.0998010    -0.2107530
  C        2.1130990    -0.4802110     0.2221390
  C        1.8015910     1.0121590    -0.0461820
  C       -1.6656960    -0.6060100    -0.2573320
  C       -2.7543930     0.3665140     0.1916780
  H       -0.3152930    -0.2454590     1.3709960
  H        0.7753790    -1.3637350    -1.2449700
  H        0.7413790    -2.2073630     0.3107570
  H       -0.1666070     1.9492740     0.3275400
  H        0.0028850     1.2252210    -1.2696860
  H        2.9896260    -0.8344780    -0.3294880
  H        2.3206340    -0.6367720     1.2866620
  H        2.1525340     1.6409000     0.7779560
  H        2.3101060     1.3673950    -0.9478660
  H       -1.9261760    -1.6212110     0.0690670
  H       -1.6246980    -0.6344010    -1.3548090
  H       -2.7974460     0.4229520     1.2842010
  H       -2.5674970     1.3742840    -0.1894550
  H       -3.7390610     0.0514200    -0.1666910
units angstrom
no_reorient  #important for SAPT in psi4, default
symmetry c1  #important for SAPT in psi4, default
}

set PROPERTIES_ORIGIN ["COM"]
properties('MP2/aug-cc-pvtz', properties = ['dipole'])
--------------------------------------------------------------------------

    Molecular point group: c1
  Charge       = 0
  Multiplicity = 1
  Basis Set: AUG-CC-PVTZ
    Blend: AUG-CC-PVTZ
  Basis Set: (AUG-CC-PVTZ AUX)
    Blend: AUG-CC-PVTZ-JKFIT

    Orbital Energies [Eh]
    ---------------------

    Doubly Occupied:

       1A    -11.214470     2A    -11.213499     3A    -11.211964
       4A    -11.211272     5A    -11.210728     6A    -11.209282
       7A    -11.209146     8A     -1.123087     9A     -1.033605
      10A     -0.957045    11A     -0.937015    12A     -0.833587
      13A     -0.769999    14A     -0.754832    15A     -0.650397
      16A     -0.628829    17A     -0.604188    18A     -0.570160
      19A     -0.558879    20A     -0.552117    21A     -0.511463
      22A     -0.485089    23A     -0.471536    24A     -0.463448
      25A     -0.456934    26A     -0.448038    27A     -0.446219
      28A     -0.424330

  @DF-RHF Final Energy:  -273.32316399352374

   => Energetics <=

    Nuclear Repulsion Energy =            322.5042206876285036
    One-Electron Energy =               -1007.3324543660268091
    Two-Electron Energy =                 411.5050696848745702
    Total Energy =                       -273.3231639935237354
  Basis Set: (AUG-CC-PVTZ AUX)
    Blend: AUG-CC-PVTZ-RI
    Molecular point group: c1

    Geometry (in Angstrom), charge = 0, multiplicity = 1:

       Center              X                  Y                   Z               Mass
    ------------   -----------------  -----------------  -----------------  -----------------
         C           -0.296073113842    -0.290618774214     0.289187167443    12.000000000000
         C            0.808348286158    -1.209370774214    -0.160432532557    12.000000000000
         C            0.246144286158     1.110609225786    -0.214305532557    12.000000000000
         C            2.094139286158    -0.469402774214     0.218586467443    12.000000000000
         C            1.782631286158     1.022967225786    -0.049734532557    12.000000000000
         C           -1.684655713842    -0.595201774214    -0.260884532557    12.000000000000
         C           -2.773352713842     0.377322225786     0.188125467443    12.000000000000
         H           -0.334252713842    -0.234650774214     1.367443467443     1.007825032230
         H            0.756419286158    -1.352926774214    -1.248522532557     1.007825032230
         H            0.722419286158    -2.196554774214     0.307204467443     1.007825032230
         H           -0.185566713842     1.960082225786     0.323987467443     1.007825032230
         H           -0.016074713842     1.236029225786    -1.273238532557     1.007825032230
         H            2.970666286158    -0.823669774214    -0.333040532557     1.007825032230
         H            2.301674286158    -0.625963774214     1.283109467443     1.007825032230
         H            2.133574286158     1.651708225786     0.774403467443     1.007825032230
         H            2.291146286158     1.378203225786    -0.951418532557     1.007825032230
         H           -1.945135713842    -1.610402774214     0.065514467443     1.007825032230
         H           -1.643657713842    -0.623592774214    -1.358361532557     1.007825032230
         H           -2.816405713842     0.433760225786     1.280648467443     1.007825032230
         H           -2.586456713842     1.385092225786    -0.193007532557     1.007825032230
         H           -3.758020713842     0.062228225786    -0.170243532557     1.007825032230

  Basis Set: AUG-CC-PVTZ
    Blend: AUG-CC-PVTZ
  Basis Set: (AUG-CC-PVTZ AUX)
    Blend: AUG-CC-PVTZ-JKFIT
	 Reference Energy          =    -273.3231639935237354 [Eh]
	 Singles Energy            =      -0.0000000000000000 [Eh]
	 Same-Spin Energy          =      -0.2971370906120983 [Eh]
	 Opposite-Spin Energy      =      -1.0773920336373322 [Eh]
	 Correlation Energy        =      -1.3745291242494304 [Eh]
	 Total Energy              =    -274.6976931177731558 [Eh]

	 ================> DF-SCS-MP2 Energies <==================
	-----------------------------------------------------------
	 SCS Same-Spin Scale       =       0.3333333333333333 [-]
	 SCS Opposite-Spin Scale   =       1.2000000000000000 [-]
	 SCS Same-Spin Energy      =      -0.0990456968706994 [Eh]
	 SCS Opposite-Spin Energy  =      -1.2928704403647986 [Eh]
	 SCS Correlation Energy    =      -1.3919161372354980 [Eh]
	 SCS Total Energy          =    -274.7150801307592474 [Eh]
	-----------------------------------------------------------

  Dipole Moment: [D]
     X:    -0.0180      Y:    -0.0570      Z:     0.0624     Total:     0.0864

*** Psi4 exiting successfully. Buy a developer a beer!
