                               Psi4 1.3.2 release

  ==> Input File <==

--------------------------------------------------------------------------
#psi4
#
memory 32 gb

molecule  {
0 1
  C       -0.2796410    -0.2534110     0.2699600
  C        0.8273080    -1.2201790    -0.1568800
  C        0.2651040     1.0998010    -0.2107530
  C        2.1059214    -0.4813928     0.2478535
  C        1.8015910     1.0121590    -0.0461820
  C       -1.6656960    -0.6060100    -0.2573320
  C       -2.7543930     0.3665140     0.1916780
  H       -0.3152930    -0.2454590     1.3709960
  H        0.7753790    -1.3637350    -1.2449700
  H        0.7413790    -2.2073630     0.3107570
  H       -0.1666070     1.9492740     0.3275400
  H        0.0028850     1.2252210    -1.2696860
  H        2.9896260    -0.8344780    -0.3294880
  H        2.3206340    -0.6367720     1.2866620
  H        2.1525340     1.6409000     0.7779560
  H        2.3101060     1.3673950    -0.9478660
  H       -1.9261760    -1.6212110     0.0690670
  H       -1.6246980    -0.6344010    -1.3548090
  H       -2.7974460     0.4229520     1.2842010
  H       -2.5674970     1.3742840    -0.1894550
  H       -3.7390610     0.0514200    -0.1666910
units angstrom
no_reorient  #important for SAPT in psi4, default
symmetry c1  #important for SAPT in psi4, default
}

set PROPERTIES_ORIGIN ["COM"]
properties('MP2/aug-cc-pvtz', properties = ['dipole'])
--------------------------------------------------------------------------

    Molecular point group: c1
  Charge       = 0
  Multiplicity = 1
  Basis Set: AUG-CC-PVTZ
    Blend: AUG-CC-PVTZ
  Basis Set: (AUG-CC-PVTZ AUX)
    Blend: AUG-CC-PVTZ-JKFIT

    Orbital Energies [Eh]
    ---------------------

    Doubly Occupied:

       1A    -11.214777     2A    -11.213437     3A    -11.212156
       4A    -11.211267     5A    -11.209947     6A    -11.209640
       7A    -11.208672     8A     -1.124633     9A     -1.033620
      10A     -0.956087    11A     -0.939095    12A     -0.833420
      13A     -0.772321    14A     -0.750962    15A     -0.652311
      16A     -0.628580    17A     -0.604745    18A     -0.570344
      19A     -0.557682    20A     -0.550971    21A     -0.513116
      22A     -0.485112    23A     -0.471332    24A     -0.462868
      25A     -0.454522    26A     -0.445894    27A     -0.442704
      28A     -0.434398

  @DF-RHF Final Energy:  -273.32466453047340

   => Energetics <=

    Nuclear Repulsion Energy =            322.7837796241200294
    One-Electron Energy =               -1007.8876639618657691
    Two-Electron Energy =                 411.7792198072723409
    Total Energy =                       -273.3246645304733988
  Basis Set: (AUG-CC-PVTZ AUX)
    Blend: AUG-CC-PVTZ-RI
    Molecular point group: c1

    Geometry (in Angstrom), charge = 0, multiplicity = 1:

       Center              X                  Y                   Z               Mass
    ------------   -----------------  -----------------  -----------------  -----------------
         C           -0.297413648979    -0.248331170659     0.266048505448    12.000000000000
         C            0.809535351021    -1.215099170659    -0.160791494552    12.000000000000
         C            0.247331351021     1.104880829341    -0.214664494552    12.000000000000
         C            2.088148751021    -0.476312970659     0.243942005448    12.000000000000
         C            1.783818351021     1.017238829341    -0.050093494552    12.000000000000
         C           -1.683468648979    -0.600930170659    -0.261243494552    12.000000000000
         C           -2.772165648979     0.371593829341     0.187766505448    12.000000000000
         H           -0.333065648979    -0.240379170659     1.367084505448     1.007825032230
         H            0.757606351021    -1.358655170659    -1.248881494552     1.007825032230
         H            0.723606351021    -2.202283170659     0.306845505448     1.007825032230
         H           -0.184379648979     1.954353829341     0.323628505448     1.007825032230
         H           -0.014887648979     1.230300829341    -1.273597494552     1.007825032230
         H            2.971853351021    -0.829398170659    -0.333399494552     1.007825032230
         H            2.302861351021    -0.631692170659     1.282750505448     1.007825032230
         H            2.134761351021     1.645979829341     0.774044505448     1.007825032230
         H            2.292333351021     1.372474829341    -0.951777494552     1.007825032230
         H           -1.943948648979    -1.616131170659     0.065155505448     1.007825032230
         H           -1.642470648979    -0.629321170659    -1.358720494552     1.007825032230
         H           -2.815218648979     0.428031829341     1.280289505448     1.007825032230
         H           -2.585269648979     1.379363829341    -0.193366494552     1.007825032230
         H           -3.756833648979     0.056499829341    -0.170602494552     1.007825032230

  Basis Set: AUG-CC-PVTZ
    Blend: AUG-CC-PVTZ
  Basis Set: (AUG-CC-PVTZ AUX)
    Blend: AUG-CC-PVTZ-JKFIT
	 Reference Energy          =    -273.3246645304733988 [Eh]
	 Singles Energy            =      -0.0000000000000000 [Eh]
	 Same-Spin Energy          =      -0.2971655154820448 [Eh]
	 Opposite-Spin Energy      =      -1.0773135511894831 [Eh]
	 Correlation Energy        =      -1.3744790666715279 [Eh]
	 Total Energy              =    -274.6991435971449391 [Eh]

	 ================> DF-SCS-MP2 Energies <==================
	-----------------------------------------------------------
	 SCS Same-Spin Scale       =       0.3333333333333333 [-]
	 SCS Opposite-Spin Scale   =       1.2000000000000000 [-]
	 SCS Same-Spin Energy      =      -0.0990551718273483 [Eh]
	 SCS Opposite-Spin Energy  =      -1.2927762614273797 [Eh]
	 SCS Correlation Energy    =      -1.3918314332547279 [Eh]
	 SCS Total Energy          =    -274.7164959637281072 [Eh]
	-----------------------------------------------------------

  Dipole Moment: [D]
     X:    -0.0123      Y:    -0.0470      Z:     0.0666     Total:     0.0825

*** Psi4 exiting successfully. Buy a developer a beer!
