                               Psi4 1.3.2 release

  ==> Input File <==

--------------------------------------------------------------------------
#psi4
#
memory 32 gb

molecule  {
0 1
  C       -0.2771345    -0.3985133     0.3362616
  C        0.8273080    -1.2201790    -0.1568800
  C        0.2651040     1.0998010    -0.2107530
  C        2.1130990    -0.4802110     0.2221390
  C        1.8015910     1.0121590    -0.0461820
  C       -1.6656960    -0.6060100    -0.2573320
  C       -2.7543930     0.3665140     0.1916780
  H       -0.3152930    -0.2454590     1.3709960
  H        0.7753790    -1.3637350    -1.2449700
  H        0.7413790    -2.2073630     0.3107570
  H       -0.1666070     1.9492740     0.3275400
  H        0.0028850     1.2252210    -1.2696860
  H        2.9896260    -0.8344780    -0.3294880
  H        2.3206340    -0.6367720     1.2866620
  H        2.1525340     1.6409000     0.7779560
  H        2.3101060     1.3673950    -0.9478660
  H       -1.9261760    -1.6212110     0.0690670
  H       -1.6246980    -0.6344010    -1.3548090
  H       -2.7974460     0.4229520     1.2842010
  H       -2.5674970     1.3742840    -0.1894550
  H       -3.7390610     0.0514200    -0.1666910
units angstrom
no_reorient  #important for SAPT in psi4, default
symmetry c1  #important for SAPT in psi4, default
}

set PROPERTIES_ORIGIN ["COM"]
properties('MP2/aug-cc-pvtz', properties = ['dipole'])
--------------------------------------------------------------------------

    Molecular point group: c1
  Charge       = 0
  Multiplicity = 1
  Basis Set: AUG-CC-PVTZ
    Blend: AUG-CC-PVTZ
  Basis Set: (AUG-CC-PVTZ AUX)
    Blend: AUG-CC-PVTZ-JKFIT

    Orbital Energies [Eh]
    ---------------------

    Doubly Occupied:

       1A    -11.215832     2A    -11.214567     3A    -11.212630
       4A    -11.211607     5A    -11.210545     6A    -11.209774
       7A    -11.208976     8A     -1.121410     9A     -1.033612
      10A     -0.961770    11A     -0.930952    12A     -0.834461
      13A     -0.769413    14A     -0.760278    15A     -0.646960
      16A     -0.627516    17A     -0.603519    18A     -0.573184
      19A     -0.565038    20A     -0.551724    21A     -0.509972
      22A     -0.487149    23A     -0.474192    24A     -0.468960
      25A     -0.461754    26A     -0.451783    27A     -0.447467
      28A     -0.392705

  @DF-RHF Final Energy:  -273.30506550774294

   => Energetics <=

    Nuclear Repulsion Energy =            321.9262901042816907
    One-Electron Energy =               -1006.1472144800999331
    Two-Electron Energy =                 410.9158588680752473
    Total Energy =                       -273.3050655077429383
  Basis Set: (AUG-CC-PVTZ AUX)
    Blend: AUG-CC-PVTZ-RI
    Molecular point group: c1

    Geometry (in Angstrom), charge = 0, multiplicity = 1:

       Center              X                  Y                   Z               Mass
    ------------   -----------------  -----------------  -----------------  -----------------
         C           -0.296091633053    -0.375830230281     0.327385805869    12.000000000000
         C            0.808350866947    -1.197495930281    -0.165755794131    12.000000000000
         C            0.246146866947     1.122484069719    -0.219628794131    12.000000000000
         C            2.094141866947    -0.457527930281     0.213263205869    12.000000000000
         C            1.782633866947     1.034842069719    -0.055057794131    12.000000000000
         C           -1.684653133053    -0.583326930281    -0.266207794131    12.000000000000
         C           -2.773350133053     0.389197069719     0.182802205869    12.000000000000
         H           -0.334250133053    -0.222775930281     1.362120205869     1.007825032230
         H            0.756421866947    -1.341051930281    -1.253845794131     1.007825032230
         H            0.722421866947    -2.184679930281     0.301881205869     1.007825032230
         H           -0.185564133053     1.971957069719     0.318664205869     1.007825032230
         H           -0.016072133053     1.247904069719    -1.278561794131     1.007825032230
         H            2.970668866947    -0.811794930281    -0.338363794131     1.007825032230
         H            2.301676866947    -0.614088930281     1.277786205869     1.007825032230
         H            2.133576866947     1.663583069719     0.769080205869     1.007825032230
         H            2.291148866947     1.390078069719    -0.956741794131     1.007825032230
         H           -1.945133133053    -1.598527930281     0.060191205869     1.007825032230
         H           -1.643655133053    -0.611717930281    -1.363684794131     1.007825032230
         H           -2.816403133053     0.445635069719     1.275325205869     1.007825032230
         H           -2.586454133053     1.396967069719    -0.198330794131     1.007825032230
         H           -3.758018133053     0.074103069719    -0.175566794131     1.007825032230

  Basis Set: AUG-CC-PVTZ
    Blend: AUG-CC-PVTZ
  Basis Set: (AUG-CC-PVTZ AUX)
    Blend: AUG-CC-PVTZ-JKFIT
	 Reference Energy          =    -273.3050655077429383 [Eh]
	 Singles Energy            =      -0.0000000000000000 [Eh]
	 Same-Spin Energy          =      -0.2977860237719218 [Eh]
	 Opposite-Spin Energy      =      -1.0788452634627785 [Eh]
	 Correlation Energy        =      -1.3766312872347002 [Eh]
	 Total Energy              =    -274.6816967949776540 [Eh]

	 ================> DF-SCS-MP2 Energies <==================
	-----------------------------------------------------------
	 SCS Same-Spin Scale       =       0.3333333333333333 [-]
	 SCS Opposite-Spin Scale   =       1.2000000000000000 [-]
	 SCS Same-Spin Energy      =      -0.0992620079239739 [Eh]
	 SCS Opposite-Spin Energy  =      -1.2946143161553343 [Eh]
	 SCS Correlation Energy    =      -1.3938763240793082 [Eh]
	 SCS Total Energy          =    -274.6989418318222533 [Eh]
	-----------------------------------------------------------

  Dipole Moment: [D]
     X:    -0.0357      Y:    -0.0817      Z:     0.0793     Total:     0.1193

*** Psi4 exiting successfully. Buy a developer a beer!
