                               Psi4 1.3.2 release

  ==> Input File <==

--------------------------------------------------------------------------
#psi4
#
memory 32 gb

molecule  {
0 1
  C       -0.2948910    -0.2498007     0.2188917
  C        0.8273080    -1.2201790    -0.1568800
  C        0.2651040     1.0998010    -0.2107530
  C        2.1130990    -0.4802110     0.2221390
  C        1.8015910     1.0121590    -0.0461820
  C       -1.6656960    -0.6060100    -0.2573320
  C       -2.7543930     0.3665140     0.1916780
  H       -0.3152930    -0.2454590     1.3709960
  H        0.7753790    -1.3637350    -1.2449700
  H        0.7413790    -2.2073630     0.3107570
  H       -0.1666070     1.9492740     0.3275400
  H        0.0028850     1.2252210    -1.2696860
  H        2.9896260    -0.8344780    -0.3294880
  H        2.3206340    -0.6367720     1.2866620
  H        2.1525340     1.6409000     0.7779560
  H        2.3101060     1.3673950    -0.9478660
  H       -1.9261760    -1.6212110     0.0690670
  H       -1.6246980    -0.6344010    -1.3548090
  H       -2.7974460     0.4229520     1.2842010
  H       -2.5674970     1.3742840    -0.1894550
  H       -3.7390610     0.0514200    -0.1666910
units angstrom
no_reorient  #important for SAPT in psi4, default
symmetry c1  #important for SAPT in psi4, default
}

set PROPERTIES_ORIGIN ["COM"]
properties('MP2/aug-cc-pvtz', properties = ['dipole'])
--------------------------------------------------------------------------

    Molecular point group: c1
  Charge       = 0
  Multiplicity = 1
  Basis Set: AUG-CC-PVTZ
    Blend: AUG-CC-PVTZ
  Basis Set: (AUG-CC-PVTZ AUX)
    Blend: AUG-CC-PVTZ-JKFIT

    Orbital Energies [Eh]
    ---------------------

    Doubly Occupied:

       1A    -11.217618     2A    -11.213371     3A    -11.212997
       4A    -11.212173     5A    -11.210408     6A    -11.210246
       7A    -11.209539     8A     -1.126840     9A     -1.037438
      10A     -0.956942    11A     -0.940872    12A     -0.837644
      13A     -0.771917    14A     -0.744538    15A     -0.653748
      16A     -0.632471    17A     -0.605801    18A     -0.568525
      19A     -0.554988    20A     -0.552573    21A     -0.516246
      22A     -0.485563    23A     -0.472613    24A     -0.465206
      25A     -0.455664    26A     -0.450277    27A     -0.437420
      28A     -0.430127

  @DF-RHF Final Energy:  -273.32188084399121

   => Energetics <=

    Nuclear Repulsion Energy =            323.0568708545424101
    One-Electron Energy =               -1008.3899796843028298
    Two-Electron Energy =                 412.0112279857692670
    Total Energy =                       -273.3218808439912095
  Basis Set: (AUG-CC-PVTZ AUX)
    Blend: AUG-CC-PVTZ-RI
    Molecular point group: c1

    Geometry (in Angstrom), charge = 0, multiplicity = 1:

       Center              X                  Y                   Z               Mass
    ------------   -----------------  -----------------  -----------------  -----------------
         C           -0.311676295561    -0.245307003199     0.224371682585    12.000000000000
         C            0.810522704439    -1.215685303199    -0.151400017415    12.000000000000
         C            0.248318704439     1.104294696801    -0.205273017415    12.000000000000
         C            2.096313704439    -0.475717303199     0.227618982585    12.000000000000
         C            1.784805704439     1.016652696801    -0.040702017415    12.000000000000
         C           -1.682481295561    -0.601516303199    -0.251852017415    12.000000000000
         C           -2.771178295561     0.371007696801     0.197157982585    12.000000000000
         H           -0.332078295561    -0.240965303199     1.376475982585     1.007825032230
         H            0.758593704439    -1.359241303199    -1.239490017415     1.007825032230
         H            0.724593704439    -2.202869303199     0.316236982585     1.007825032230
         H           -0.183392295561     1.953767696801     0.333019982585     1.007825032230
         H           -0.013900295561     1.229714696801    -1.264206017415     1.007825032230
         H            2.972840704439    -0.829984303199    -0.324008017415     1.007825032230
         H            2.303848704439    -0.632278303199     1.292141982585     1.007825032230
         H            2.135748704439     1.645393696801     0.783435982585     1.007825032230
         H            2.293320704439     1.371888696801    -0.942386017415     1.007825032230
         H           -1.942961295561    -1.616717303199     0.074546982585     1.007825032230
         H           -1.641483295561    -0.629907303199    -1.349329017415     1.007825032230
         H           -2.814231295561     0.427445696801     1.289680982585     1.007825032230
         H           -2.584282295561     1.378777696801    -0.183975017415     1.007825032230
         H           -3.755846295561     0.055913696801    -0.161211017415     1.007825032230

  Basis Set: AUG-CC-PVTZ
    Blend: AUG-CC-PVTZ
  Basis Set: (AUG-CC-PVTZ AUX)
    Blend: AUG-CC-PVTZ-JKFIT
	 Reference Energy          =    -273.3218808439912095 [Eh]
	 Singles Energy            =      -0.0000000000000000 [Eh]
	 Same-Spin Energy          =      -0.2975035176777697 [Eh]
	 Opposite-Spin Energy      =      -1.0777517216863677 [Eh]
	 Correlation Energy        =      -1.3752552393641375 [Eh]
	 Total Energy              =    -274.6971360833553604 [Eh]

	 ================> DF-SCS-MP2 Energies <==================
	-----------------------------------------------------------
	 SCS Same-Spin Scale       =       0.3333333333333333 [-]
	 SCS Opposite-Spin Scale   =       1.2000000000000000 [-]
	 SCS Same-Spin Energy      =      -0.0991678392259232 [Eh]
	 SCS Opposite-Spin Energy  =      -1.2933020660236412 [Eh]
	 SCS Correlation Energy    =      -1.3924699052495644 [Eh]
	 SCS Total Energy          =    -274.7143507492407934 [Eh]
	-----------------------------------------------------------

  Dipole Moment: [D]
     X:    -0.0089      Y:    -0.0407      Z:     0.0196     Total:     0.0460

*** Psi4 exiting successfully. Buy a developer a beer!
