                               Psi4 1.3.2 release

  ==> Input File <==

--------------------------------------------------------------------------
#psi4
#
memory 32 gb

molecule  {
0 1
  C       -0.3007836    -0.2113233     0.2947079
  C        0.8273080    -1.2201790    -0.1568800
  C        0.2651040     1.0998010    -0.2107530
  C        2.1130990    -0.4802110     0.2221390
  C        1.8015910     1.0121590    -0.0461820
  C       -1.6656960    -0.6060100    -0.2573320
  C       -2.7543930     0.3665140     0.1916780
  H       -0.3152930    -0.2454590     1.3709960
  H        0.7753790    -1.3637350    -1.2449700
  H        0.7413790    -2.2073630     0.3107570
  H       -0.1666070     1.9492740     0.3275400
  H        0.0028850     1.2252210    -1.2696860
  H        2.9896260    -0.8344780    -0.3294880
  H        2.3206340    -0.6367720     1.2866620
  H        2.1525340     1.6409000     0.7779560
  H        2.3101060     1.3673950    -0.9478660
  H       -1.9261760    -1.6212110     0.0690670
  H       -1.6246980    -0.6344010    -1.3548090
  H       -2.7974460     0.4229520     1.2842010
  H       -2.5674970     1.3742840    -0.1894550
  H       -3.7390610     0.0514200    -0.1666910
units angstrom
no_reorient  #important for SAPT in psi4, default
symmetry c1  #important for SAPT in psi4, default
}

set PROPERTIES_ORIGIN ["COM"]
properties('MP2/aug-cc-pvtz', properties = ['dipole'])
--------------------------------------------------------------------------

    Molecular point group: c1
  Charge       = 0
  Multiplicity = 1
  Basis Set: AUG-CC-PVTZ
    Blend: AUG-CC-PVTZ
  Basis Set: (AUG-CC-PVTZ AUX)
    Blend: AUG-CC-PVTZ-JKFIT

    Orbital Energies [Eh]
    ---------------------

    Doubly Occupied:

       1A    -11.214288     2A    -11.213561     3A    -11.212242
       4A    -11.210996     5A    -11.210365     6A    -11.209841
       7A    -11.207758     8A     -1.122468     9A     -1.034280
      10A     -0.954197    11A     -0.938714    12A     -0.832664
      13A     -0.771290    14A     -0.753821    15A     -0.650341
      16A     -0.630158    17A     -0.604965    18A     -0.568365
      19A     -0.558159    20A     -0.550677    21A     -0.512674
      22A     -0.486127    23A     -0.471540    24A     -0.464767
      25A     -0.456238    26A     -0.447067    27A     -0.446663
      28A     -0.423290

  @DF-RHF Final Energy:  -273.32306315220040

   => Energetics <=

    Nuclear Repulsion Energy =            322.5996485569447145
    One-Electron Energy =               -1007.5303922429234262
    Two-Electron Energy =                 411.6076805337783640
    Total Energy =                       -273.3230631522004046
  Basis Set: (AUG-CC-PVTZ AUX)
    Blend: AUG-CC-PVTZ-RI
    Molecular point group: c1

    Geometry (in Angstrom), charge = 0, multiplicity = 1:

       Center              X                  Y                   Z               Mass
    ------------   -----------------  -----------------  -----------------  -----------------
         C           -0.316848158388    -0.211535860621     0.290914632470    12.000000000000
         C            0.811243441612    -1.220391560621    -0.160673267530    12.000000000000
         C            0.249039441612     1.099588439379    -0.214546267530    12.000000000000
         C            2.097034441612    -0.480423560621     0.218345732470    12.000000000000
         C            1.785526441612     1.011946439379    -0.049975267530    12.000000000000
         C           -1.681760558388    -0.606222560621    -0.261125267530    12.000000000000
         C           -2.770457558388     0.366301439379     0.187884732470    12.000000000000
         H           -0.331357558388    -0.245671560621     1.367202732470     1.007825032230
         H            0.759314441612    -1.363947560621    -1.248763267530     1.007825032230
         H            0.725314441612    -2.207575560621     0.306963732470     1.007825032230
         H           -0.182671558388     1.949061439379     0.323746732470     1.007825032230
         H           -0.013179558388     1.225008439379    -1.273479267530     1.007825032230
         H            2.973561441612    -0.834690560621    -0.333281267530     1.007825032230
         H            2.304569441612    -0.636984560621     1.282868732470     1.007825032230
         H            2.136469441612     1.640687439379     0.774162732470     1.007825032230
         H            2.294041441612     1.367182439379    -0.951659267530     1.007825032230
         H           -1.942240558388    -1.621423560621     0.065273732470     1.007825032230
         H           -1.640762558388    -0.634613560621    -1.358602267530     1.007825032230
         H           -2.813510558388     0.422739439379     1.280407732470     1.007825032230
         H           -2.583561558388     1.374071439379    -0.193248267530     1.007825032230
         H           -3.755125558388     0.051207439379    -0.170484267530     1.007825032230

  Basis Set: AUG-CC-PVTZ
    Blend: AUG-CC-PVTZ
  Basis Set: (AUG-CC-PVTZ AUX)
    Blend: AUG-CC-PVTZ-JKFIT
	 Reference Energy          =    -273.3230631522004046 [Eh]
	 Singles Energy            =      -0.0000000000000000 [Eh]
	 Same-Spin Energy          =      -0.2971299250924858 [Eh]
	 Opposite-Spin Energy      =      -1.0774105276931603 [Eh]
	 Correlation Energy        =      -1.3745404527856460 [Eh]
	 Total Energy              =    -274.6976036049860568 [Eh]

	 ================> DF-SCS-MP2 Energies <==================
	-----------------------------------------------------------
	 SCS Same-Spin Scale       =       0.3333333333333333 [-]
	 SCS Opposite-Spin Scale   =       1.2000000000000000 [-]
	 SCS Same-Spin Energy      =      -0.0990433083641619 [Eh]
	 SCS Opposite-Spin Energy  =      -1.2928926332317923 [Eh]
	 SCS Correlation Energy    =      -1.3919359415959542 [Eh]
	 SCS Total Energy          =    -274.7149990937963366 [Eh]
	-----------------------------------------------------------

  Dipole Moment: [D]
     X:    -0.0115      Y:    -0.0430      Z:     0.0556     Total:     0.0712

*** Psi4 exiting successfully. Buy a developer a beer!
