                               Psi4 1.3.2 release

  ==> Input File <==

--------------------------------------------------------------------------
#psi4
#
memory 32 gb

molecule  {
0 1
  C       -0.2796410    -0.2534110     0.2699600
  C        0.7531420    -1.2757369    -0.2100169
  C        0.2651040     1.0998010    -0.2107530
  C        2.1130990    -0.4802110     0.2221390
  C        1.8015910     1.0121590    -0.0461820
  C       -1.6656960    -0.6060100    -0.2573320
  C       -2.7543930     0.3665140     0.1916780
  H       -0.3152930    -0.2454590     1.3709960
  H        0.7753790    -1.3637350    -1.2449700
  H        0.7413790    -2.2073630     0.3107570
  H       -0.1666070     1.9492740     0.3275400
  H        0.0028850     1.2252210    -1.2696860
  H        2.9896260    -0.8344780    -0.3294880
  H        2.3206340    -0.6367720     1.2866620
  H        2.1525340     1.6409000     0.7779560
  H        2.3101060     1.3673950    -0.9478660
  H       -1.9261760    -1.6212110     0.0690670
  H       -1.6246980    -0.6344010    -1.3548090
  H       -2.7974460     0.4229520     1.2842010
  H       -2.5674970     1.3742840    -0.1894550
  H       -3.7390610     0.0514200    -0.1666910
units angstrom
no_reorient  #important for SAPT in psi4, default
symmetry c1  #important for SAPT in psi4, default
}

set PROPERTIES_ORIGIN ["COM"]
properties('MP2/aug-cc-pvtz', properties = ['dipole'])
--------------------------------------------------------------------------

    Molecular point group: c1
  Charge       = 0
  Multiplicity = 1
  Basis Set: AUG-CC-PVTZ
    Blend: AUG-CC-PVTZ
  Basis Set: (AUG-CC-PVTZ AUX)
    Blend: AUG-CC-PVTZ-JKFIT

    Orbital Energies [Eh]
    ---------------------

    Doubly Occupied:

       1A    -11.215761     2A    -11.214729     3A    -11.211905
       4A    -11.211634     5A    -11.210684     6A    -11.207319
       7A    -11.207282     8A     -1.118713     9A     -1.030074
      10A     -0.955205    11A     -0.935638    12A     -0.833497
      13A     -0.777293    14A     -0.749902    15A     -0.653012
      16A     -0.624857    17A     -0.603032    18A     -0.577356
      19A     -0.556740    20A     -0.549787    21A     -0.513334
      22A     -0.489356    23A     -0.471830    24A     -0.463709
      25A     -0.459812    26A     -0.446205    27A     -0.439205
      28A     -0.418037

  @DF-RHF Final Energy:  -273.31595463705241

   => Energetics <=

    Nuclear Repulsion Energy =            321.9543842000057907
    One-Electron Energy =               -1006.2488625814784200
    Two-Electron Energy =                 410.9785237444201584
    Total Energy =                       -273.3159546370524140
  Basis Set: (AUG-CC-PVTZ AUX)
    Blend: AUG-CC-PVTZ-RI
    Molecular point group: c1

    Geometry (in Angstrom), charge = 0, multiplicity = 1:

       Center              X                  Y                   Z               Mass
    ------------   -----------------  -----------------  -----------------  -----------------
         C           -0.289220146957    -0.241680307446     0.275692997708    12.000000000000
         C            0.743562853043    -1.264006207446    -0.204283902292    12.000000000000
         C            0.255524853043     1.111531692554    -0.205020002292    12.000000000000
         C            2.103519853043    -0.468480307446     0.227871997708    12.000000000000
         C            1.792011853043     1.023889692554    -0.040449002292    12.000000000000
         C           -1.675275146957    -0.594279307446    -0.251599002292    12.000000000000
         C           -2.763972146957     0.378244692554     0.197410997708    12.000000000000
         H           -0.324872146957    -0.233728307446     1.376728997708     1.007825032230
         H            0.765799853043    -1.352004307446    -1.239237002292     1.007825032230
         H            0.731799853043    -2.195632307446     0.316489997708     1.007825032230
         H           -0.176186146957     1.961004692554     0.333272997708     1.007825032230
         H           -0.006694146957     1.236951692554    -1.263953002292     1.007825032230
         H            2.980046853043    -0.822747307446    -0.323755002292     1.007825032230
         H            2.311054853043    -0.625041307446     1.292394997708     1.007825032230
         H            2.142954853043     1.652630692554     0.783688997708     1.007825032230
         H            2.300526853043     1.379125692554    -0.942133002292     1.007825032230
         H           -1.935755146957    -1.609480307446     0.074799997708     1.007825032230
         H           -1.634277146957    -0.622670307446    -1.349076002292     1.007825032230
         H           -2.807025146957     0.434682692554     1.289933997708     1.007825032230
         H           -2.577076146957     1.386014692554    -0.183722002292     1.007825032230
         H           -3.748640146957     0.063150692554    -0.160958002292     1.007825032230

  Basis Set: AUG-CC-PVTZ
    Blend: AUG-CC-PVTZ
  Basis Set: (AUG-CC-PVTZ AUX)
    Blend: AUG-CC-PVTZ-JKFIT
	 Reference Energy          =    -273.3159546370524140 [Eh]
	 Singles Energy            =      -0.0000000000000000 [Eh]
	 Same-Spin Energy          =      -0.2970047924165719 [Eh]
	 Opposite-Spin Energy      =      -1.0777774140065628 [Eh]
	 Correlation Energy        =      -1.3747822064231348 [Eh]
	 Total Energy              =    -274.6907368434755767 [Eh]

	 ================> DF-SCS-MP2 Energies <==================
	-----------------------------------------------------------
	 SCS Same-Spin Scale       =       0.3333333333333333 [-]
	 SCS Opposite-Spin Scale   =       1.2000000000000000 [-]
	 SCS Same-Spin Energy      =      -0.0990015974721906 [Eh]
	 SCS Opposite-Spin Energy  =      -1.2933328968078752 [Eh]
	 SCS Correlation Energy    =      -1.3923344942800657 [Eh]
	 SCS Total Energy          =    -274.7082891313324922 [Eh]
	-----------------------------------------------------------

  Dipole Moment: [D]
     X:     0.0056      Y:    -0.0565      Z:     0.0325     Total:     0.0654

*** Psi4 exiting successfully. Buy a developer a beer!
