                               Psi4 1.3.2 release

  ==> Input File <==

--------------------------------------------------------------------------
#psi4
#
memory 32 gb

molecule  {
0 1
  C       -0.3212723    -0.2461299     0.1154443
  C        0.8273080    -1.2201790    -0.1568800
  C        0.2651040     1.0998010    -0.2107530
  C        2.1130990    -0.4802110     0.2221390
  C        1.8015910     1.0121590    -0.0461820
  C       -1.6656960    -0.6060100    -0.2573320
  C       -2.7543930     0.3665140     0.1916780
  H       -0.3152930    -0.2454590     1.3709960
  H        0.7753790    -1.3637350    -1.2449700
  H        0.7413790    -2.2073630     0.3107570
  H       -0.1666070     1.9492740     0.3275400
  H        0.0028850     1.2252210    -1.2696860
  H        2.9896260    -0.8344780    -0.3294880
  H        2.3206340    -0.6367720     1.2866620
  H        2.1525340     1.6409000     0.7779560
  H        2.3101060     1.3673950    -0.9478660
  H       -1.9261760    -1.6212110     0.0690670
  H       -1.6246980    -0.6344010    -1.3548090
  H       -2.7974460     0.4229520     1.2842010
  H       -2.5674970     1.3742840    -0.1894550
  H       -3.7390610     0.0514200    -0.1666910
units angstrom
no_reorient  #important for SAPT in psi4, default
symmetry c1  #important for SAPT in psi4, default
}

set PROPERTIES_ORIGIN ["COM"]
properties('MP2/aug-cc-pvtz', properties = ['dipole'])
--------------------------------------------------------------------------

    Molecular point group: c1
  Charge       = 0
  Multiplicity = 1
  Basis Set: AUG-CC-PVTZ
    Blend: AUG-CC-PVTZ
  Basis Set: (AUG-CC-PVTZ AUX)
    Blend: AUG-CC-PVTZ-JKFIT

    Orbital Energies [Eh]
    ---------------------

    Doubly Occupied:

       1A    -11.225381     2A    -11.215140     3A    -11.213926
       4A    -11.213881     5A    -11.212733     6A    -11.212322
       7A    -11.211350     8A     -1.132122     9A     -1.044990
      10A     -0.959494    11A     -0.944065    12A     -0.846458
      13A     -0.775379    14A     -0.732774    15A     -0.657811
      16A     -0.638001    17A     -0.608083    18A     -0.568692
      19A     -0.558620    20A     -0.548011    21A     -0.523351
      22A     -0.487470    23A     -0.475039    24A     -0.472899
      25A     -0.467382    26A     -0.453264    27A     -0.437637
      28A     -0.396243

  @DF-RHF Final Energy:  -273.29872584145755

   => Energetics <=

    Nuclear Repulsion Energy =            323.5492553158019291
    One-Electron Energy =               -1009.2309297667081864
    Two-Electron Energy =                 412.3829486094487038
    Total Energy =                       -273.2987258414575535
  Basis Set: (AUG-CC-PVTZ AUX)
    Blend: AUG-CC-PVTZ-RI
    Molecular point group: c1

    Geometry (in Angstrom), charge = 0, multiplicity = 1:

       Center              X                  Y                   Z               Mass
    ------------   -----------------  -----------------  -----------------  -----------------
         C           -0.334830839363    -0.242085187012     0.133577166981    12.000000000000
         C            0.813749460637    -1.216134287012    -0.138747133019    12.000000000000
         C            0.251545460637     1.103845712988    -0.192620133019    12.000000000000
         C            2.099540460637    -0.476166287012     0.240271866981    12.000000000000
         C            1.788032460637     1.016203712988    -0.028049133019    12.000000000000
         C           -1.679254539363    -0.601965287012    -0.239199133019    12.000000000000
         C           -2.767951539363     0.370558712988     0.209810866981    12.000000000000
         H           -0.328851539363    -0.241414287012     1.389128866981     1.007825032230
         H            0.761820460637    -1.359690287012    -1.226837133019     1.007825032230
         H            0.727820460637    -2.203318287012     0.328889866981     1.007825032230
         H           -0.180165539363     1.953318712988     0.345672866981     1.007825032230
         H           -0.010673539363     1.229265712988    -1.251553133019     1.007825032230
         H            2.976067460637    -0.830433287012    -0.311355133019     1.007825032230
         H            2.307075460637    -0.632727287012     1.304794866981     1.007825032230
         H            2.138975460637     1.644944712988     0.796088866981     1.007825032230
         H            2.296547460637     1.371439712988    -0.929733133019     1.007825032230
         H           -1.939734539363    -1.617166287012     0.087199866981     1.007825032230
         H           -1.638256539363    -0.630356287012    -1.336676133019     1.007825032230
         H           -2.811004539363     0.426996712988     1.302333866981     1.007825032230
         H           -2.581055539363     1.378328712988    -0.171322133019     1.007825032230
         H           -3.752619539363     0.055464712988    -0.148558133019     1.007825032230

  Basis Set: AUG-CC-PVTZ
    Blend: AUG-CC-PVTZ
  Basis Set: (AUG-CC-PVTZ AUX)
    Blend: AUG-CC-PVTZ-JKFIT
	 Reference Energy          =    -273.2987258414575535 [Eh]
	 Singles Energy            =      -0.0000000000000000 [Eh]
	 Same-Spin Energy          =      -0.2985755375321688 [Eh]
	 Opposite-Spin Energy      =      -1.0795669855857299 [Eh]
	 Correlation Energy        =      -1.3781425231178988 [Eh]
	 Total Energy              =    -274.6768683645754550 [Eh]

	 ================> DF-SCS-MP2 Energies <==================
	-----------------------------------------------------------
	 SCS Same-Spin Scale       =       0.3333333333333333 [-]
	 SCS Opposite-Spin Scale   =       1.2000000000000000 [-]
	 SCS Same-Spin Energy      =      -0.0995251791773896 [Eh]
	 SCS Opposite-Spin Energy  =      -1.2954803827028758 [Eh]
	 SCS Correlation Energy    =      -1.3950055618802655 [Eh]
	 SCS Total Energy          =    -274.6937314033378357 [Eh]
	-----------------------------------------------------------

  Dipole Moment: [D]
     X:    -0.0066      Y:    -0.0287      Z:    -0.0745     Total:     0.0801

*** Psi4 exiting successfully. Buy a developer a beer!
