                               Psi4 1.3.2 release

  ==> Input File <==

--------------------------------------------------------------------------
#psi4
#
memory 32 gb

molecule  {
0 1
  C       -0.2796410    -0.2534110     0.2699600
  C        0.9164756    -1.3053035    -0.2592978
  C        0.2651040     1.0998010    -0.2107530
  C        2.1130990    -0.4802110     0.2221390
  C        1.8015910     1.0121590    -0.0461820
  C       -1.6656960    -0.6060100    -0.2573320
  C       -2.7543930     0.3665140     0.1916780
  H       -0.3152930    -0.2454590     1.3709960
  H        0.7753790    -1.3637350    -1.2449700
  H        0.7413790    -2.2073630     0.3107570
  H       -0.1666070     1.9492740     0.3275400
  H        0.0028850     1.2252210    -1.2696860
  H        2.9896260    -0.8344780    -0.3294880
  H        2.3206340    -0.6367720     1.2866620
  H        2.1525340     1.6409000     0.7779560
  H        2.3101060     1.3673950    -0.9478660
  H       -1.9261760    -1.6212110     0.0690670
  H       -1.6246980    -0.6344010    -1.3548090
  H       -2.7974460     0.4229520     1.2842010
  H       -2.5674970     1.3742840    -0.1894550
  H       -3.7390610     0.0514200    -0.1666910
units angstrom
no_reorient  #important for SAPT in psi4, default
symmetry c1  #important for SAPT in psi4, default
}

set PROPERTIES_ORIGIN ["COM"]
properties('MP2/aug-cc-pvtz', properties = ['dipole'])
--------------------------------------------------------------------------

    Molecular point group: c1
  Charge       = 0
  Multiplicity = 1
  Basis Set: AUG-CC-PVTZ
    Blend: AUG-CC-PVTZ
  Basis Set: (AUG-CC-PVTZ AUX)
    Blend: AUG-CC-PVTZ-JKFIT

    Orbital Energies [Eh]
    ---------------------

    Doubly Occupied:

       1A    -11.220116     2A    -11.213095     3A    -11.212409
       4A    -11.212302     5A    -11.209674     6A    -11.208020
       7A    -11.207367     8A     -1.112705     9A     -1.032824
      10A     -0.958354    11A     -0.932295    12A     -0.834925
      13A     -0.780206    14A     -0.745851    15A     -0.648946
      16A     -0.625156    17A     -0.604798    18A     -0.582282
      19A     -0.556521    20A     -0.549850    21A     -0.511659
      22A     -0.494075    23A     -0.474513    24A     -0.468220
      25A     -0.464572    26A     -0.444713    27A     -0.439026
      28A     -0.397265

  @DF-RHF Final Energy:  -273.30366267864116

   => Energetics <=

    Nuclear Repulsion Energy =            320.7906709564691141
    One-Electron Energy =               -1003.9051884664037289
    Two-Electron Energy =                 409.8108548312933976
    Total Energy =                       -273.3036626786411603
  Basis Set: (AUG-CC-PVTZ AUX)
    Blend: AUG-CC-PVTZ-RI
    Molecular point group: c1

    Geometry (in Angstrom), charge = 0, multiplicity = 1:

       Center              X                  Y                   Z               Mass
    ------------   -----------------  -----------------  -----------------  -----------------
         C           -0.309197847303    -0.238063950033     0.281720655538    12.000000000000
         C            0.886918752697    -1.289956450033    -0.247537144462    12.000000000000
         C            0.235547152697     1.115148049967    -0.198992344462    12.000000000000
         C            2.083542152697    -0.464863950033     0.233899655538    12.000000000000
         C            1.772034152697     1.027506049967    -0.034421344462    12.000000000000
         C           -1.695252847303    -0.590662950033    -0.245571344462    12.000000000000
         C           -2.783949847303     0.381861049967     0.203438655538    12.000000000000
         H           -0.344849847303    -0.230111950033     1.382756655538     1.007825032230
         H            0.745822152697    -1.348387950033    -1.233209344462     1.007825032230
         H            0.711822152697    -2.192015950033     0.322517655538     1.007825032230
         H           -0.196163847303     1.964621049967     0.339300655538     1.007825032230
         H           -0.026671847303     1.240568049967    -1.257925344462     1.007825032230
         H            2.960069152697    -0.819130950033    -0.317727344462     1.007825032230
         H            2.291077152697    -0.621424950033     1.298422655538     1.007825032230
         H            2.122977152697     1.656247049967     0.789716655538     1.007825032230
         H            2.280549152697     1.382742049967    -0.936105344462     1.007825032230
         H           -1.955732847303    -1.605863950033     0.080827655538     1.007825032230
         H           -1.654254847303    -0.619053950033    -1.343048344462     1.007825032230
         H           -2.827002847303     0.438299049967     1.295961655538     1.007825032230
         H           -2.597053847303     1.389631049967    -0.177694344462     1.007825032230
         H           -3.768617847303     0.066767049967    -0.154930344462     1.007825032230

  Basis Set: AUG-CC-PVTZ
    Blend: AUG-CC-PVTZ
  Basis Set: (AUG-CC-PVTZ AUX)
    Blend: AUG-CC-PVTZ-JKFIT
	 Reference Energy          =    -273.3036626786411603 [Eh]
	 Singles Energy            =      -0.0000000000000000 [Eh]
	 Same-Spin Energy          =      -0.2972448683399760 [Eh]
	 Opposite-Spin Energy      =      -1.0784828121303534 [Eh]
	 Correlation Energy        =      -1.3757276804703293 [Eh]
	 Total Energy              =    -274.6793903591114940 [Eh]

	 ================> DF-SCS-MP2 Energies <==================
	-----------------------------------------------------------
	 SCS Same-Spin Scale       =       0.3333333333333333 [-]
	 SCS Opposite-Spin Scale   =       1.2000000000000000 [-]
	 SCS Same-Spin Energy      =      -0.0990816227799920 [Eh]
	 SCS Opposite-Spin Energy  =      -1.2941793745564241 [Eh]
	 SCS Correlation Energy    =      -1.3932609973364161 [Eh]
	 SCS Total Energy          =    -274.6969236759775868 [Eh]
	-----------------------------------------------------------

  Dipole Moment: [D]
     X:    -0.0339      Y:    -0.0277      Z:     0.0356     Total:     0.0564

*** Psi4 exiting successfully. Buy a developer a beer!
