                               Psi4 1.3.2 release

  ==> Input File <==

--------------------------------------------------------------------------
#psi4
#
memory 32 gb

molecule  {
0 1
  C       -0.2796410    -0.2534110     0.2699600
  C        0.7690494    -1.2994025    -0.1151621
  C        0.2651040     1.0998010    -0.2107530
  C        2.1130990    -0.4802110     0.2221390
  C        1.8015910     1.0121590    -0.0461820
  C       -1.6656960    -0.6060100    -0.2573320
  C       -2.7543930     0.3665140     0.1916780
  H       -0.3152930    -0.2454590     1.3709960
  H        0.7753790    -1.3637350    -1.2449700
  H        0.7413790    -2.2073630     0.3107570
  H       -0.1666070     1.9492740     0.3275400
  H        0.0028850     1.2252210    -1.2696860
  H        2.9896260    -0.8344780    -0.3294880
  H        2.3206340    -0.6367720     1.2866620
  H        2.1525340     1.6409000     0.7779560
  H        2.3101060     1.3673950    -0.9478660
  H       -1.9261760    -1.6212110     0.0690670
  H       -1.6246980    -0.6344010    -1.3548090
  H       -2.7974460     0.4229520     1.2842010
  H       -2.5674970     1.3742840    -0.1894550
  H       -3.7390610     0.0514200    -0.1666910
units angstrom
no_reorient  #important for SAPT in psi4, default
symmetry c1  #important for SAPT in psi4, default
}

set PROPERTIES_ORIGIN ["COM"]
properties('MP2/aug-cc-pvtz', properties = ['dipole'])
--------------------------------------------------------------------------

    Molecular point group: c1
  Charge       = 0
  Multiplicity = 1
  Basis Set: AUG-CC-PVTZ
    Blend: AUG-CC-PVTZ
  Basis Set: (AUG-CC-PVTZ AUX)
    Blend: AUG-CC-PVTZ-JKFIT

    Orbital Energies [Eh]
    ---------------------

    Doubly Occupied:

       1A    -11.216147     2A    -11.214640     3A    -11.212939
       4A    -11.212442     5A    -11.211815     6A    -11.209036
       7A    -11.207719     8A     -1.118897     9A     -1.030772
      10A     -0.957825    11A     -0.936770    12A     -0.833714
      13A     -0.775324    14A     -0.750664    15A     -0.659929
      16A     -0.625685    17A     -0.603383    18A     -0.566788
      19A     -0.555156    20A     -0.550907    21A     -0.515036
      22A     -0.491580    23A     -0.480433    24A     -0.464871
      25A     -0.446524    26A     -0.443997    27A     -0.440063
      28A     -0.424466

  @DF-RHF Final Energy:  -273.31309657998645

   => Energetics <=

    Nuclear Repulsion Energy =            321.8587694802096166
    One-Electron Energy =               -1006.0286842043109345
    Two-Electron Energy =                 410.8568181441148681
    Total Energy =                       -273.3130965799864498
  Basis Set: (AUG-CC-PVTZ AUX)
    Blend: AUG-CC-PVTZ-RI
    Molecular point group: c1

    Geometry (in Angstrom), charge = 0, multiplicity = 1:

       Center              X                  Y                   Z               Mass
    ------------   -----------------  -----------------  -----------------  -----------------
         C           -0.291165816865    -0.238785714629     0.264091093564    12.000000000000
         C            0.757524583135    -1.284777214629    -0.121031006436    12.000000000000
         C            0.253579183135     1.114426285371    -0.216621906436    12.000000000000
         C            2.101574183135    -0.465585714629     0.216270093564    12.000000000000
         C            1.790066183135     1.026784285371    -0.052050906436    12.000000000000
         C           -1.677220816865    -0.591384714629    -0.263200906436    12.000000000000
         C           -2.765917816865     0.381139285371     0.185809093564    12.000000000000
         H           -0.326817816865    -0.230833714629     1.365127093564     1.007825032230
         H            0.763854183135    -1.349109714629    -1.250838906436     1.007825032230
         H            0.729854183135    -2.192737714629     0.304888093564     1.007825032230
         H           -0.178131816865     1.963899285371     0.321671093564     1.007825032230
         H           -0.008639816865     1.239846285371    -1.275554906436     1.007825032230
         H            2.978101183135    -0.819852714629    -0.335356906436     1.007825032230
         H            2.309109183135    -0.622146714629     1.280793093564     1.007825032230
         H            2.141009183135     1.655525285371     0.772087093564     1.007825032230
         H            2.298581183135     1.382020285371    -0.953734906436     1.007825032230
         H           -1.937700816865    -1.606585714629     0.063198093564     1.007825032230
         H           -1.636222816865    -0.619775714629    -1.360677906436     1.007825032230
         H           -2.808970816865     0.437577285371     1.278332093564     1.007825032230
         H           -2.579021816865     1.388909285371    -0.195323906436     1.007825032230
         H           -3.750585816865     0.066045285371    -0.172559906436     1.007825032230

  Basis Set: AUG-CC-PVTZ
    Blend: AUG-CC-PVTZ
  Basis Set: (AUG-CC-PVTZ AUX)
    Blend: AUG-CC-PVTZ-JKFIT
	 Reference Energy          =    -273.3130965799864498 [Eh]
	 Singles Energy            =      -0.0000000000000000 [Eh]
	 Same-Spin Energy          =      -0.2969930084344868 [Eh]
	 Opposite-Spin Energy      =      -1.0778238032052394 [Eh]
	 Correlation Energy        =      -1.3748168116397261 [Eh]
	 Total Energy              =    -274.6879133916261821 [Eh]

	 ================> DF-SCS-MP2 Energies <==================
	-----------------------------------------------------------
	 SCS Same-Spin Scale       =       0.3333333333333333 [-]
	 SCS Opposite-Spin Scale   =       1.2000000000000000 [-]
	 SCS Same-Spin Energy      =      -0.0989976694781623 [Eh]
	 SCS Opposite-Spin Energy  =      -1.2933885638462872 [Eh]
	 SCS Correlation Energy    =      -1.3923862333244494 [Eh]
	 SCS Total Energy          =    -274.7054828133108799 [Eh]
	-----------------------------------------------------------

  Dipole Moment: [D]
     X:     0.0005      Y:    -0.0455      Z:     0.0903     Total:     0.1011

*** Psi4 exiting successfully. Buy a developer a beer!
