                               Psi4 1.3.2 release

  ==> Input File <==

--------------------------------------------------------------------------
#psi4
#
memory 32 gb

molecule  {
0 1
  C       -0.2796410    -0.2534110     0.2699600
  C        0.9029504    -1.3553461    -0.1157150
  C        0.2651040     1.0998010    -0.2107530
  C        2.1130990    -0.4802110     0.2221390
  C        1.8015910     1.0121590    -0.0461820
  C       -1.6656960    -0.6060100    -0.2573320
  C       -2.7543930     0.3665140     0.1916780
  H       -0.3152930    -0.2454590     1.3709960
  H        0.7753790    -1.3637350    -1.2449700
  H        0.7413790    -2.2073630     0.3107570
  H       -0.1666070     1.9492740     0.3275400
  H        0.0028850     1.2252210    -1.2696860
  H        2.9896260    -0.8344780    -0.3294880
  H        2.3206340    -0.6367720     1.2866620
  H        2.1525340     1.6409000     0.7779560
  H        2.3101060     1.3673950    -0.9478660
  H       -1.9261760    -1.6212110     0.0690670
  H       -1.6246980    -0.6344010    -1.3548090
  H       -2.7974460     0.4229520     1.2842010
  H       -2.5674970     1.3742840    -0.1894550
  H       -3.7390610     0.0514200    -0.1666910
units angstrom
no_reorient  #important for SAPT in psi4, default
symmetry c1  #important for SAPT in psi4, default
}

set PROPERTIES_ORIGIN ["COM"]
properties('MP2/aug-cc-pvtz', properties = ['dipole'])
--------------------------------------------------------------------------

    Molecular point group: c1
  Charge       = 0
  Multiplicity = 1
  Basis Set: AUG-CC-PVTZ
    Blend: AUG-CC-PVTZ
  Basis Set: (AUG-CC-PVTZ AUX)
    Blend: AUG-CC-PVTZ-JKFIT

    Orbital Energies [Eh]
    ---------------------

    Doubly Occupied:

       1A    -11.220514     2A    -11.214720     3A    -11.213361
       4A    -11.212805     5A    -11.211590     6A    -11.209199
       7A    -11.208243     8A     -1.112425     9A     -1.032783
      10A     -0.961988    11A     -0.933277    12A     -0.835111
      13A     -0.778315    14A     -0.747196    15A     -0.659915
      16A     -0.625420    17A     -0.604875    18A     -0.569714
      19A     -0.554372    20A     -0.546729    21A     -0.515733
      22A     -0.501948    23A     -0.484396    24A     -0.465959
      25A     -0.448049    26A     -0.444747    27A     -0.439326
      28A     -0.403113

  @DF-RHF Final Energy:  -273.29802679218687

   => Energetics <=

    Nuclear Repulsion Energy =            320.5893520227097042
    One-Electron Energy =               -1003.4631094185120901
    Two-Electron Energy =                 409.5757306036155114
    Total Energy =                       -273.2980267921868744
  Basis Set: (AUG-CC-PVTZ AUX)
    Blend: AUG-CC-PVTZ-RI
    Molecular point group: c1

    Geometry (in Angstrom), charge = 0, multiplicity = 1:

       Center              X                  Y                   Z               Mass
    ------------   -----------------  -----------------  -----------------  -----------------
         C           -0.307543549641    -0.231943126961     0.264158720007    12.000000000000
         C            0.875047850359    -1.333878226961    -0.121516279993    12.000000000000
         C            0.237201450359     1.121268873039    -0.216554279993    12.000000000000
         C            2.085196450359    -0.458743126961     0.216337720007    12.000000000000
         C            1.773688450359     1.033626873039    -0.051983279993    12.000000000000
         C           -1.693598549641    -0.584542126961    -0.263133279993    12.000000000000
         C           -2.782295549641     0.387981873039     0.185876720007    12.000000000000
         H           -0.343195549641    -0.223991126961     1.365194720007     1.007825032230
         H            0.747476450359    -1.342267126961    -1.250771279993     1.007825032230
         H            0.713476450359    -2.185895126961     0.304955720007     1.007825032230
         H           -0.194509549641     1.970741873039     0.321738720007     1.007825032230
         H           -0.025017549641     1.246688873039    -1.275487279993     1.007825032230
         H            2.961723450359    -0.813010126961    -0.335289279993     1.007825032230
         H            2.292731450359    -0.615304126961     1.280860720007     1.007825032230
         H            2.124631450359     1.662367873039     0.772154720007     1.007825032230
         H            2.282203450359     1.388862873039    -0.953667279993     1.007825032230
         H           -1.954078549641    -1.599743126961     0.063265720007     1.007825032230
         H           -1.652600549641    -0.612933126961    -1.360610279993     1.007825032230
         H           -2.825348549641     0.444419873039     1.278399720007     1.007825032230
         H           -2.595399549641     1.395751873039    -0.195256279993     1.007825032230
         H           -3.766963549641     0.072887873039    -0.172492279993     1.007825032230

  Basis Set: AUG-CC-PVTZ
    Blend: AUG-CC-PVTZ
  Basis Set: (AUG-CC-PVTZ AUX)
    Blend: AUG-CC-PVTZ-JKFIT
	 Reference Energy          =    -273.2980267921868744 [Eh]
	 Singles Energy            =      -0.0000000000000000 [Eh]
	 Same-Spin Energy          =      -0.2971652782101354 [Eh]
	 Opposite-Spin Energy      =      -1.0785845705192991 [Eh]
	 Correlation Energy        =      -1.3757498487294346 [Eh]
	 Total Energy              =    -274.6737766409162873 [Eh]

	 ================> DF-SCS-MP2 Energies <==================
	-----------------------------------------------------------
	 SCS Same-Spin Scale       =       0.3333333333333333 [-]
	 SCS Opposite-Spin Scale   =       1.2000000000000000 [-]
	 SCS Same-Spin Energy      =      -0.0990550927367118 [Eh]
	 SCS Opposite-Spin Energy  =      -1.2943014846231589 [Eh]
	 SCS Correlation Energy    =      -1.3933565773598706 [Eh]
	 SCS Total Energy          =    -274.6913833695467702 [Eh]
	-----------------------------------------------------------

  Dipole Moment: [D]
     X:    -0.0321      Y:    -0.0089      Z:     0.1096     Total:     0.1145

*** Psi4 exiting successfully. Buy a developer a beer!
