                               Psi4 1.3.2 release

  ==> Input File <==

--------------------------------------------------------------------------
#psi4
#
memory 32 gb

molecule  {
0 1
  C       -0.2796410    -0.2534110     0.2699600
  C        0.8006721    -1.1899538    -0.1217611
  C        0.2651040     1.0998010    -0.2107530
  C        2.1130990    -0.4802110     0.2221390
  C        1.8015910     1.0121590    -0.0461820
  C       -1.6656960    -0.6060100    -0.2573320
  C       -2.7543930     0.3665140     0.1916780
  H       -0.3152930    -0.2454590     1.3709960
  H        0.7753790    -1.3637350    -1.2449700
  H        0.7413790    -2.2073630     0.3107570
  H       -0.1666070     1.9492740     0.3275400
  H        0.0028850     1.2252210    -1.2696860
  H        2.9896260    -0.8344780    -0.3294880
  H        2.3206340    -0.6367720     1.2866620
  H        2.1525340     1.6409000     0.7779560
  H        2.3101060     1.3673950    -0.9478660
  H       -1.9261760    -1.6212110     0.0690670
  H       -1.6246980    -0.6344010    -1.3548090
  H       -2.7974460     0.4229520     1.2842010
  H       -2.5674970     1.3742840    -0.1894550
  H       -3.7390610     0.0514200    -0.1666910
units angstrom
no_reorient  #important for SAPT in psi4, default
symmetry c1  #important for SAPT in psi4, default
}

set PROPERTIES_ORIGIN ["COM"]
properties('MP2/aug-cc-pvtz', properties = ['dipole'])
--------------------------------------------------------------------------

    Molecular point group: c1
  Charge       = 0
  Multiplicity = 1
  Basis Set: AUG-CC-PVTZ
    Blend: AUG-CC-PVTZ
  Basis Set: (AUG-CC-PVTZ AUX)
    Blend: AUG-CC-PVTZ-JKFIT

    Orbital Energies [Eh]
    ---------------------

    Doubly Occupied:

       1A    -11.214408     2A    -11.213024     3A    -11.212200
       4A    -11.211938     5A    -11.211382     6A    -11.210544
       7A    -11.209127     8A     -1.130164     9A     -1.034535
      10A     -0.956584    11A     -0.941958    12A     -0.833721
      13A     -0.769053    14A     -0.752715    15A     -0.653687
      16A     -0.631968    17A     -0.604564    18A     -0.568098
      19A     -0.556817    20A     -0.552345    21A     -0.513701
      22A     -0.483713    23A     -0.471873    24A     -0.463806
      25A     -0.451059    26A     -0.445915    27A     -0.441964
      28A     -0.438996

  @DF-RHF Final Energy:  -273.32213324054806

   => Energetics <=

    Nuclear Repulsion Energy =            323.4566628079060706
    One-Electron Energy =               -1009.1978725036276501
    Two-Electron Energy =                 412.4190764551735811
    Total Energy =                       -273.3221332405480553
  Basis Set: (AUG-CC-PVTZ AUX)
    Blend: AUG-CC-PVTZ-RI
    Molecular point group: c1

    Geometry (in Angstrom), charge = 0, multiplicity = 1:

       Center              X                  Y                   Z               Mass
    ------------   -----------------  -----------------  -----------------  -----------------
         C           -0.295033660498    -0.252172631539     0.264898232111    12.000000000000
         C            0.785279439502    -1.188715431539    -0.126822867889    12.000000000000
         C            0.249711339502     1.101039368461    -0.215814767889    12.000000000000
         C            2.097706339502    -0.478972631539     0.217077232111    12.000000000000
         C            1.786198339502     1.013397368461    -0.051243767889    12.000000000000
         C           -1.681088660498    -0.604771631539    -0.262393767889    12.000000000000
         C           -2.769785660498     0.367752368461     0.186616232111    12.000000000000
         H           -0.330685660498    -0.244220631539     1.365934232111     1.007825032230
         H            0.759986339502    -1.362496631539    -1.250031767889     1.007825032230
         H            0.725986339502    -2.206124631539     0.305695232111     1.007825032230
         H           -0.181999660498     1.950512368461     0.322478232111     1.007825032230
         H           -0.012507660498     1.226459368461    -1.274747767889     1.007825032230
         H            2.974233339502    -0.833239631539    -0.334549767889     1.007825032230
         H            2.305241339502    -0.635533631539     1.281600232111     1.007825032230
         H            2.137141339502     1.642138368461     0.772894232111     1.007825032230
         H            2.294713339502     1.368633368461    -0.952927767889     1.007825032230
         H           -1.941568660498    -1.619972631539     0.064005232111     1.007825032230
         H           -1.640090660498    -0.633162631539    -1.359870767889     1.007825032230
         H           -2.812838660498     0.424190368461     1.279139232111     1.007825032230
         H           -2.582889660498     1.375522368461    -0.194516767889     1.007825032230
         H           -3.754453660498     0.052658368461    -0.171752767889     1.007825032230

  Basis Set: AUG-CC-PVTZ
    Blend: AUG-CC-PVTZ
  Basis Set: (AUG-CC-PVTZ AUX)
    Blend: AUG-CC-PVTZ-JKFIT
	 Reference Energy          =    -273.3221332405480553 [Eh]
	 Singles Energy            =      -0.0000000000000000 [Eh]
	 Same-Spin Energy          =      -0.2975404975494407 [Eh]
	 Opposite-Spin Energy      =      -1.0777009415449537 [Eh]
	 Correlation Energy        =      -1.3752414390943943 [Eh]
	 Total Energy              =    -274.6973746796424507 [Eh]

	 ================> DF-SCS-MP2 Energies <==================
	-----------------------------------------------------------
	 SCS Same-Spin Scale       =       0.3333333333333333 [-]
	 SCS Opposite-Spin Scale   =       1.2000000000000000 [-]
	 SCS Same-Spin Energy      =      -0.0991801658498136 [Eh]
	 SCS Opposite-Spin Energy  =      -1.2932411298539443 [Eh]
	 SCS Correlation Energy    =      -1.3924212957037578 [Eh]
	 SCS Total Energy          =    -274.7145545362517964 [Eh]
	-----------------------------------------------------------

  Dipole Moment: [D]
     X:    -0.0102      Y:    -0.0347      Z:     0.0681     Total:     0.0771

*** Psi4 exiting successfully. Buy a developer a beer!
