                               Psi4 1.3.2 release

  ==> Input File <==

--------------------------------------------------------------------------
#psi4
#
memory 32 gb

molecule  {
0 1
  C       -0.2796410    -0.2534110     0.2699600
  C        0.8033581    -1.1969015    -0.2583461
  C        0.2651040     1.0998010    -0.2107530
  C        2.1130990    -0.4802110     0.2221390
  C        1.8015910     1.0121590    -0.0461820
  C       -1.6656960    -0.6060100    -0.2573320
  C       -2.7543930     0.3665140     0.1916780
  H       -0.3152930    -0.2454590     1.3709960
  H        0.7753790    -1.3637350    -1.2449700
  H        0.7413790    -2.2073630     0.3107570
  H       -0.1666070     1.9492740     0.3275400
  H        0.0028850     1.2252210    -1.2696860
  H        2.9896260    -0.8344780    -0.3294880
  H        2.3206340    -0.6367720     1.2866620
  H        2.1525340     1.6409000     0.7779560
  H        2.3101060     1.3673950    -0.9478660
  H       -1.9261760    -1.6212110     0.0690670
  H       -1.6246980    -0.6344010    -1.3548090
  H       -2.7974460     0.4229520     1.2842010
  H       -2.5674970     1.3742840    -0.1894550
  H       -3.7390610     0.0514200    -0.1666910
units angstrom
no_reorient  #important for SAPT in psi4, default
symmetry c1  #important for SAPT in psi4, default
}

set PROPERTIES_ORIGIN ["COM"]
properties('MP2/aug-cc-pvtz', properties = ['dipole'])
--------------------------------------------------------------------------

    Molecular point group: c1
  Charge       = 0
  Multiplicity = 1
  Basis Set: AUG-CC-PVTZ
    Blend: AUG-CC-PVTZ
  Basis Set: (AUG-CC-PVTZ AUX)
    Blend: AUG-CC-PVTZ-JKFIT

    Orbital Energies [Eh]
    ---------------------

    Doubly Occupied:

       1A    -11.215621     2A    -11.213486     3A    -11.213001
       4A    -11.210911     5A    -11.209589     6A    -11.209173
       7A    -11.208322     8A     -1.124210     9A     -1.032860
      10A     -0.953778    11A     -0.938859    12A     -0.834356
      13A     -0.778571    14A     -0.751190    15A     -0.645104
      16A     -0.630969    17A     -0.604537    18A     -0.577443
      19A     -0.559019    20A     -0.551345    21A     -0.512865
      22A     -0.490090    23A     -0.469214    24A     -0.464670
      25A     -0.450215    26A     -0.446693    27A     -0.440458
      28A     -0.427553

  @DF-RHF Final Energy:  -273.31191273728189

   => Energetics <=

    Nuclear Repulsion Energy =            322.8008434048066988
    One-Electron Energy =               -1007.8973095643823399
    Two-Electron Energy =                 411.7845534222936976
    Total Energy =                       -273.3119127372818866
  Basis Set: (AUG-CC-PVTZ AUX)
    Blend: AUG-CC-PVTZ-RI
    Molecular point group: c1

    Geometry (in Angstrom), charge = 0, multiplicity = 1:

       Center              X                  Y                   Z               Mass
    ------------   -----------------  -----------------  -----------------  -----------------
         C           -0.295362191205    -0.251322842710     0.281604250969    12.000000000000
         C            0.787636908795    -1.194813342710    -0.246701849031    12.000000000000
         C            0.249382808795     1.101889157290    -0.199108749031    12.000000000000
         C            2.097377808795    -0.478122842710     0.233783250969    12.000000000000
         C            1.785869808795     1.014247157290    -0.034537749031    12.000000000000
         C           -1.681417191205    -0.603921842710    -0.245687749031    12.000000000000
         C           -2.770114191205     0.368602157290     0.203322250969    12.000000000000
         H           -0.331014191205    -0.243370842710     1.382640250969     1.007825032230
         H            0.759657808795    -1.361646842710    -1.233325749031     1.007825032230
         H            0.725657808795    -2.205274842710     0.322401250969     1.007825032230
         H           -0.182328191205     1.951362157290     0.339184250969     1.007825032230
         H           -0.012836191205     1.227309157290    -1.258041749031     1.007825032230
         H            2.973904808795    -0.832389842710    -0.317843749031     1.007825032230
         H            2.304912808795    -0.634683842710     1.298306250969     1.007825032230
         H            2.136812808795     1.642988157290     0.789600250969     1.007825032230
         H            2.294384808795     1.369483157290    -0.936221749031     1.007825032230
         H           -1.941897191205    -1.619122842710     0.080711250969     1.007825032230
         H           -1.640419191205    -0.632312842710    -1.343164749031     1.007825032230
         H           -2.813167191205     0.425040157290     1.295845250969     1.007825032230
         H           -2.583218191205     1.376372157290    -0.177810749031     1.007825032230
         H           -3.754782191205     0.053508157290    -0.155046749031     1.007825032230

  Basis Set: AUG-CC-PVTZ
    Blend: AUG-CC-PVTZ
  Basis Set: (AUG-CC-PVTZ AUX)
    Blend: AUG-CC-PVTZ-JKFIT
	 Reference Energy          =    -273.3119127372818866 [Eh]
	 Singles Energy            =      -0.0000000000000000 [Eh]
	 Same-Spin Energy          =      -0.2972667841033920 [Eh]
	 Opposite-Spin Energy      =      -1.0778669702527335 [Eh]
	 Correlation Energy        =      -1.3751337543561255 [Eh]
	 Total Energy              =    -274.6870464916380001 [Eh]

	 ================> DF-SCS-MP2 Energies <==================
	-----------------------------------------------------------
	 SCS Same-Spin Scale       =       0.3333333333333333 [-]
	 SCS Opposite-Spin Scale   =       1.2000000000000000 [-]
	 SCS Same-Spin Energy      =      -0.0990889280344640 [Eh]
	 SCS Opposite-Spin Energy  =      -1.2934403643032801 [Eh]
	 SCS Correlation Energy    =      -1.3925292923377441 [Eh]
	 SCS Total Energy          =    -274.7044420296196563 [Eh]
	-----------------------------------------------------------

  Dipole Moment: [D]
     X:    -0.0026      Y:    -0.0240      Z:    -0.0020     Total:     0.0242

*** Psi4 exiting successfully. Buy a developer a beer!
