                               Psi4 1.3.2 release

  ==> Input File <==

--------------------------------------------------------------------------
#psi4
#
memory 32 gb

molecule  {
0 1
  C       -0.2796410    -0.2534110     0.2699600
  C        0.8509947    -1.2662106    -0.1435984
  C        0.2651040     1.0998010    -0.2107530
  C        2.1130990    -0.4802110     0.2221390
  C        1.8015910     1.0121590    -0.0461820
  C       -1.6656960    -0.6060100    -0.2573320
  C       -2.7543930     0.3665140     0.1916780
  H       -0.3152930    -0.2454590     1.3709960
  H        0.7753790    -1.3637350    -1.2449700
  H        0.7413790    -2.2073630     0.3107570
  H       -0.1666070     1.9492740     0.3275400
  H        0.0028850     1.2252210    -1.2696860
  H        2.9896260    -0.8344780    -0.3294880
  H        2.3206340    -0.6367720     1.2866620
  H        2.1525340     1.6409000     0.7779560
  H        2.3101060     1.3673950    -0.9478660
  H       -1.9261760    -1.6212110     0.0690670
  H       -1.6246980    -0.6344010    -1.3548090
  H       -2.7974460     0.4229520     1.2842010
  H       -2.5674970     1.3742840    -0.1894550
  H       -3.7390610     0.0514200    -0.1666910
units angstrom
no_reorient  #important for SAPT in psi4, default
symmetry c1  #important for SAPT in psi4, default
}

set PROPERTIES_ORIGIN ["COM"]
properties('MP2/aug-cc-pvtz', properties = ['dipole'])
--------------------------------------------------------------------------

    Molecular point group: c1
  Charge       = 0
  Multiplicity = 1
  Basis Set: AUG-CC-PVTZ
    Blend: AUG-CC-PVTZ
  Basis Set: (AUG-CC-PVTZ AUX)
    Blend: AUG-CC-PVTZ-JKFIT

    Orbital Energies [Eh]
    ---------------------

    Doubly Occupied:

       1A    -11.216720     2A    -11.213222     3A    -11.212745
       4A    -11.211735     5A    -11.210451     6A    -11.208761
       7A    -11.208506     8A     -1.119859     9A     -1.033330
      10A     -0.957570    11A     -0.937168    12A     -0.833764
      13A     -0.772471    14A     -0.749794    15A     -0.654605
      16A     -0.628124    17A     -0.604436    18A     -0.568629
      19A     -0.555264    20A     -0.550896    21A     -0.513212
      22A     -0.486725    23A     -0.481241    24A     -0.465413
      25A     -0.450664    26A     -0.445571    27A     -0.439996
      28A     -0.427448

  @DF-RHF Final Energy:  -273.32276073640389

   => Energetics <=

    Nuclear Repulsion Energy =            322.0227361850068633
    One-Electron Energy =               -1006.3743517475875251
    Two-Electron Energy =                 411.0288548261768256
    Total Energy =                       -273.3227607364038931
  Basis Set: (AUG-CC-PVTZ AUX)
    Blend: AUG-CC-PVTZ-RI
    Molecular point group: c1

    Geometry (in Angstrom), charge = 0, multiplicity = 1:

       Center              X                  Y                   Z               Mass
    ------------   -----------------  -----------------  -----------------  -----------------
         C           -0.301188731000    -0.242845490646     0.267569201438    12.000000000000
         C            0.829446969000    -1.255645090646    -0.145989198562    12.000000000000
         C            0.243556269000     1.110366509354    -0.213143798562    12.000000000000
         C            2.091551269000    -0.469645490646     0.219748201438    12.000000000000
         C            1.780043269000     1.022724509354    -0.048572798562    12.000000000000
         C           -1.687243731000    -0.595444490646    -0.259722798562    12.000000000000
         C           -2.775940731000     0.377079509354     0.189287201438    12.000000000000
         H           -0.336840731000    -0.234893490646     1.368605201438     1.007825032230
         H            0.753831269000    -1.353169490646    -1.247360798562     1.007825032230
         H            0.719831269000    -2.196797490646     0.308366201438     1.007825032230
         H           -0.188154731000     1.959839509354     0.325149201438     1.007825032230
         H           -0.018662731000     1.235786509354    -1.272076798562     1.007825032230
         H            2.968078269000    -0.823912490646    -0.331878798562     1.007825032230
         H            2.299086269000    -0.626206490646     1.284271201438     1.007825032230
         H            2.130986269000     1.651465509354     0.775565201438     1.007825032230
         H            2.288558269000     1.377960509354    -0.950256798562     1.007825032230
         H           -1.947723731000    -1.610645490646     0.066676201438     1.007825032230
         H           -1.646245731000    -0.623835490646    -1.357199798562     1.007825032230
         H           -2.818993731000     0.433517509354     1.281810201438     1.007825032230
         H           -2.589044731000     1.384849509354    -0.191845798562     1.007825032230
         H           -3.760608731000     0.061985509354    -0.169081798562     1.007825032230

  Basis Set: AUG-CC-PVTZ
    Blend: AUG-CC-PVTZ
  Basis Set: (AUG-CC-PVTZ AUX)
    Blend: AUG-CC-PVTZ-JKFIT
	 Reference Energy          =    -273.3227607364038931 [Eh]
	 Singles Energy            =      -0.0000000000000000 [Eh]
	 Same-Spin Energy          =      -0.2969685197806579 [Eh]
	 Opposite-Spin Energy      =      -1.0773165689075626 [Eh]
	 Correlation Energy        =      -1.3742850886882205 [Eh]
	 Total Energy              =    -274.6970458250921183 [Eh]

	 ================> DF-SCS-MP2 Energies <==================
	-----------------------------------------------------------
	 SCS Same-Spin Scale       =       0.3333333333333333 [-]
	 SCS Opposite-Spin Scale   =       1.2000000000000000 [-]
	 SCS Same-Spin Energy      =      -0.0989895065935526 [Eh]
	 SCS Opposite-Spin Energy  =      -1.2927798826890751 [Eh]
	 SCS Correlation Energy    =      -1.3917693892826277 [Eh]
	 SCS Total Energy          =    -274.7145301256865082 [Eh]
	-----------------------------------------------------------

  Dipole Moment: [D]
     X:    -0.0140      Y:    -0.0496      Z:     0.0696     Total:     0.0866

*** Psi4 exiting successfully. Buy a developer a beer!
