                               Psi4 1.3.2 release

  ==> Input File <==

--------------------------------------------------------------------------
#psi4
#
memory 32 gb

molecule  {
0 1
  C       -0.2796410    -0.2534110     0.2699600
  C        0.8273080    -1.2201790    -0.1568800
  C        0.2651040     1.0998010    -0.2107530
  C        2.1262771    -0.4785239     0.1703716
  C        1.8015910     1.0121590    -0.0461820
  C       -1.6656960    -0.6060100    -0.2573320
  C       -2.7543930     0.3665140     0.1916780
  H       -0.3152930    -0.2454590     1.3709960
  H        0.7753790    -1.3637350    -1.2449700
  H        0.7413790    -2.2073630     0.3107570
  H       -0.1666070     1.9492740     0.3275400
  H        0.0028850     1.2252210    -1.2696860
  H        2.9896260    -0.8344780    -0.3294880
  H        2.3206340    -0.6367720     1.2866620
  H        2.1525340     1.6409000     0.7779560
  H        2.3101060     1.3673950    -0.9478660
  H       -1.9261760    -1.6212110     0.0690670
  H       -1.6246980    -0.6344010    -1.3548090
  H       -2.7974460     0.4229520     1.2842010
  H       -2.5674970     1.3742840    -0.1894550
  H       -3.7390610     0.0514200    -0.1666910
units angstrom
no_reorient  #important for SAPT in psi4, default
symmetry c1  #important for SAPT in psi4, default
}

set PROPERTIES_ORIGIN ["COM"]
properties('MP2/aug-cc-pvtz', properties = ['dipole'])
--------------------------------------------------------------------------

    Molecular point group: c1
  Charge       = 0
  Multiplicity = 1
  Basis Set: AUG-CC-PVTZ
    Blend: AUG-CC-PVTZ
  Basis Set: (AUG-CC-PVTZ AUX)
    Blend: AUG-CC-PVTZ-JKFIT

    Orbital Energies [Eh]
    ---------------------

    Doubly Occupied:

       1A    -11.215374     2A    -11.213930     3A    -11.212739
       4A    -11.211957     5A    -11.210637     6A    -11.209952
       7A    -11.208984     8A     -1.124855     9A     -1.034474
      10A     -0.956129    11A     -0.940558    12A     -0.834132
      13A     -0.769581    14A     -0.752471    15A     -0.651786
      16A     -0.633110    17A     -0.604096    18A     -0.567521
      19A     -0.555940    20A     -0.552603    21A     -0.513020
      22A     -0.485709    23A     -0.474543    24A     -0.469573
      25A     -0.447550    26A     -0.446677    27A     -0.438343
      28A     -0.435242

  @DF-RHF Final Energy:  -273.32230575091666

   => Energetics <=

    Nuclear Repulsion Energy =            322.7375058405139043
    One-Electron Energy =               -1007.7766553783625341
    Two-Electron Energy =                 411.7168437869319746
    Total Energy =                       -273.3223057509166551
  Basis Set: (AUG-CC-PVTZ AUX)
    Blend: AUG-CC-PVTZ-RI
    Molecular point group: c1

    Geometry (in Angstrom), charge = 0, multiplicity = 1:

       Center              X                  Y                   Z               Mass
    ------------   -----------------  -----------------  -----------------  -----------------
         C           -0.299903400475    -0.248682072277     0.275525491080    12.000000000000
         C            0.807045599525    -1.215450072277    -0.151314508920    12.000000000000
         C            0.244841599525     1.104529927723    -0.205187508920    12.000000000000
         C            2.106014699525    -0.473794972277     0.175937091080    12.000000000000
         C            1.781328599525     1.016887927723    -0.040616508920    12.000000000000
         C           -1.685958400475    -0.601281072277    -0.251766508920    12.000000000000
         C           -2.774655400475     0.371242927723     0.197243491080    12.000000000000
         H           -0.335555400475    -0.240730072277     1.376561491080     1.007825032230
         H            0.755116599525    -1.359006072277    -1.239404508920     1.007825032230
         H            0.721116599525    -2.202634072277     0.316322491080     1.007825032230
         H           -0.186869400475     1.954002927723     0.333105491080     1.007825032230
         H           -0.017377400475     1.229949927723    -1.264120508920     1.007825032230
         H            2.969363599525    -0.829749072277    -0.323922508920     1.007825032230
         H            2.300371599525    -0.632043072277     1.292227491080     1.007825032230
         H            2.132271599525     1.645628927723     0.783521491080     1.007825032230
         H            2.289843599525     1.372123927723    -0.942300508920     1.007825032230
         H           -1.946438400475    -1.616482072277     0.074632491080     1.007825032230
         H           -1.644960400475    -0.629672072277    -1.349243508920     1.007825032230
         H           -2.817708400475     0.427680927723     1.289766491080     1.007825032230
         H           -2.587759400475     1.379012927723    -0.183889508920     1.007825032230
         H           -3.759323400475     0.056148927723    -0.161125508920     1.007825032230

  Basis Set: AUG-CC-PVTZ
    Blend: AUG-CC-PVTZ
  Basis Set: (AUG-CC-PVTZ AUX)
    Blend: AUG-CC-PVTZ-JKFIT
	 Reference Energy          =    -273.3223057509166551 [Eh]
	 Singles Energy            =      -0.0000000000000000 [Eh]
	 Same-Spin Energy          =      -0.2972086620316465 [Eh]
	 Opposite-Spin Energy      =      -1.0774810915324680 [Eh]
	 Correlation Energy        =      -1.3746897535641145 [Eh]
	 Total Energy              =    -274.6969955044807534 [Eh]

	 ================> DF-SCS-MP2 Energies <==================
	-----------------------------------------------------------
	 SCS Same-Spin Scale       =       0.3333333333333333 [-]
	 SCS Opposite-Spin Scale   =       1.2000000000000000 [-]
	 SCS Same-Spin Energy      =      -0.0990695540105488 [Eh]
	 SCS Opposite-Spin Energy  =      -1.2929773098389614 [Eh]
	 SCS Correlation Energy    =      -1.3920468638495103 [Eh]
	 SCS Total Energy          =    -274.7143526147661419 [Eh]
	-----------------------------------------------------------

  Dipole Moment: [D]
     X:    -0.0136      Y:    -0.0418      Z:     0.0118     Total:     0.0455

*** Psi4 exiting successfully. Buy a developer a beer!
