                               Psi4 1.3.2 release

  ==> Input File <==

--------------------------------------------------------------------------
#psi4
#
memory 32 gb

molecule  {
0 1
  C       -0.2796410    -0.2534110     0.2699600
  C        0.8273080    -1.2201790    -0.1568800
  C        0.2651040     1.0998010    -0.2107530
  C        2.1130990    -0.4802110     0.2221390
  C        1.8015910     1.0121590    -0.0461820
  C       -1.6656960    -0.6060100    -0.2573320
  C       -2.7543930     0.3665140     0.1916780
  H       -0.3152930    -0.2454590     1.3709960
  H        0.7753790    -1.3637350    -1.2449700
  H        0.7413790    -2.2073630     0.3107570
  H       -0.1666070     1.9492740     0.3275400
  H        0.0028850     1.2252210    -1.2696860
  H        2.9722005    -0.8247862    -0.3620781
  H        2.3206340    -0.6367720     1.2866620
  H        2.1525340     1.6409000     0.7779560
  H        2.3101060     1.3673950    -0.9478660
  H       -1.9261760    -1.6212110     0.0690670
  H       -1.6246980    -0.6344010    -1.3548090
  H       -2.7974460     0.4229520     1.2842010
  H       -2.5674970     1.3742840    -0.1894550
  H       -3.7390610     0.0514200    -0.1666910
units angstrom
no_reorient  #important for SAPT in psi4, default
symmetry c1  #important for SAPT in psi4, default
}

set PROPERTIES_ORIGIN ["COM"]
properties('MP2/aug-cc-pvtz', properties = ['dipole'])
--------------------------------------------------------------------------

    Molecular point group: c1
  Charge       = 0
  Multiplicity = 1
  Basis Set: AUG-CC-PVTZ
    Blend: AUG-CC-PVTZ
  Basis Set: (AUG-CC-PVTZ AUX)
    Blend: AUG-CC-PVTZ-JKFIT

    Orbital Energies [Eh]
    ---------------------

    Doubly Occupied:

       1A    -11.214803     2A    -11.213499     3A    -11.211927
       4A    -11.211371     5A    -11.209972     6A    -11.209405
       7A    -11.208691     8A     -1.124688     9A     -1.033901
      10A     -0.955966    11A     -0.939504    12A     -0.833547
      13A     -0.770089    14A     -0.751416    15A     -0.652069
      16A     -0.630370    17A     -0.604911    18A     -0.569345
      19A     -0.557033    20A     -0.551874    21A     -0.513083
      22A     -0.485064    23A     -0.471873    24A     -0.463245
      25A     -0.452920    26A     -0.445937    27A     -0.442394
      28A     -0.435263

  @DF-RHF Final Energy:  -273.32530089292504

   => Energetics <=

    Nuclear Repulsion Energy =            322.8031229299515417
    One-Electron Energy =               -1007.9285268928229016
    Two-Electron Energy =                 411.8001030699463172
    Total Energy =                       -273.3253008929250427
  Basis Set: (AUG-CC-PVTZ AUX)
    Blend: AUG-CC-PVTZ-RI
    Molecular point group: c1

    Geometry (in Angstrom), charge = 0, multiplicity = 1:

       Center              X                  Y                   Z               Mass
    ------------   -----------------  -----------------  -----------------  -----------------
         C           -0.298112554892    -0.248575277767     0.269528483870    12.000000000000
         C            0.808836445108    -1.215343277767    -0.157311516130    12.000000000000
         C            0.246632445108     1.104636722233    -0.211184516130    12.000000000000
         C            2.094627445108    -0.475375277767     0.221707483870    12.000000000000
         C            1.783119445108     1.016994722233    -0.046613516130    12.000000000000
         C           -1.684167554892    -0.601174277767    -0.257763516130    12.000000000000
         C           -2.772864554892     0.371349722233     0.191246483870    12.000000000000
         H           -0.333764554892    -0.240623277767     1.370564483870     1.007825032230
         H            0.756907445108    -1.358899277767    -1.245401516130     1.007825032230
         H            0.722907445108    -2.202527277767     0.310325483870     1.007825032230
         H           -0.185078554892     1.954109722233     0.327108483870     1.007825032230
         H           -0.015586554892     1.230056722233    -1.270117516130     1.007825032230
         H            2.953728945108    -0.819950477767    -0.362509616130     1.007825032230
         H            2.302162445108    -0.631936277767     1.286230483870     1.007825032230
         H            2.134062445108     1.645735722233     0.777524483870     1.007825032230
         H            2.291634445108     1.372230722233    -0.948297516130     1.007825032230
         H           -1.944647554892    -1.616375277767     0.068635483870     1.007825032230
         H           -1.643169554892    -0.629565277767    -1.355240516130     1.007825032230
         H           -2.815917554892     0.427787722233     1.283769483870     1.007825032230
         H           -2.585968554892     1.379119722233    -0.189886516130     1.007825032230
         H           -3.757532554892     0.056255722233    -0.167122516130     1.007825032230

  Basis Set: AUG-CC-PVTZ
    Blend: AUG-CC-PVTZ
  Basis Set: (AUG-CC-PVTZ AUX)
    Blend: AUG-CC-PVTZ-JKFIT
	 Reference Energy          =    -273.3253008929250427 [Eh]
	 Singles Energy            =      -0.0000000000000000 [Eh]
	 Same-Spin Energy          =      -0.2971733791108137 [Eh]
	 Opposite-Spin Energy      =      -1.0773604085050319 [Eh]
	 Correlation Energy        =      -1.3745337876158454 [Eh]
	 Total Energy              =    -274.6998346805409028 [Eh]

	 ================> DF-SCS-MP2 Energies <==================
	-----------------------------------------------------------
	 SCS Same-Spin Scale       =       0.3333333333333333 [-]
	 SCS Opposite-Spin Scale   =       1.2000000000000000 [-]
	 SCS Same-Spin Energy      =      -0.0990577930369379 [Eh]
	 SCS Opposite-Spin Energy  =      -1.2928324902060382 [Eh]
	 SCS Correlation Energy    =      -1.3918902832429760 [Eh]
	 SCS Total Energy          =    -274.7171911761680008 [Eh]
	-----------------------------------------------------------

  Dipole Moment: [D]
     X:    -0.0119      Y:    -0.0450      Z:     0.0438     Total:     0.0639

*** Psi4 exiting successfully. Buy a developer a beer!
