                               Psi4 1.3.2 release

  ==> Input File <==

--------------------------------------------------------------------------
#psi4
#
memory 32 gb

molecule  {
0 1
  C       -0.2781659    -0.2773689     0.2814319
  C        0.8273080    -1.2201790    -0.1568800
  C        0.2651040     1.0998010    -0.2107530
  C        2.1130990    -0.4802110     0.2221390
  C        1.8015910     1.0121590    -0.0461820
  C       -1.6656960    -0.6060100    -0.2573320
  C       -2.7543930     0.3665140     0.1916780
  H       -0.3152930    -0.2454590     1.3709960
  H        0.7753790    -1.3637350    -1.2449700
  H        0.7413790    -2.2073630     0.3107570
  H       -0.1666070     1.9492740     0.3275400
  H        0.0028850     1.2252210    -1.2696860
  H        2.9896260    -0.8344780    -0.3294880
  H        2.3206340    -0.6367720     1.2866620
  H        2.1525340     1.6409000     0.7779560
  H        2.3101060     1.3673950    -0.9478660
  H       -1.9261760    -1.6212110     0.0690670
  H       -1.6246980    -0.6344010    -1.3548090
  H       -2.7974460     0.4229520     1.2842010
  H       -2.5674970     1.3742840    -0.1894550
  H       -3.7390610     0.0514200    -0.1666910
units angstrom
no_reorient  #important for SAPT in psi4, default
symmetry c1  #important for SAPT in psi4, default
}

set PROPERTIES_ORIGIN ["COM"]
properties('MP2/aug-cc-pvtz', properties = ['dipole'])
--------------------------------------------------------------------------

    Molecular point group: c1
  Charge       = 0
  Multiplicity = 1
  Basis Set: AUG-CC-PVTZ
    Blend: AUG-CC-PVTZ
  Basis Set: (AUG-CC-PVTZ AUX)
    Blend: AUG-CC-PVTZ-JKFIT

    Orbital Energies [Eh]
    ---------------------

    Doubly Occupied:

       1A    -11.214609     2A    -11.213490     3A    -11.211923
       4A    -11.211379     5A    -11.210526     6A    -11.209360
       7A    -11.209010     8A     -1.123804     9A     -1.033718
      10A     -0.956329    11A     -0.938391    12A     -0.833563
      13A     -0.770416    14A     -0.753175    15A     -0.651221
      16A     -0.629417    17A     -0.604352    18A     -0.569582
      19A     -0.557590    20A     -0.552190    21A     -0.512172
      22A     -0.485015    23A     -0.471781    24A     -0.463782
      25A     -0.453863    26A     -0.447043    27A     -0.444396
      28A     -0.431078

  @DF-RHF Final Energy:  -273.32493959839491

   => Energetics <=

    Nuclear Repulsion Energy =            322.6386722309711672
    One-Electron Energy =               -1007.6008724029981067
    Two-Electron Energy =                 411.6372605736320907
    Total Energy =                       -273.3249395983949057
  Basis Set: (AUG-CC-PVTZ AUX)
    Blend: AUG-CC-PVTZ-RI
    Molecular point group: c1

    Geometry (in Angstrom), charge = 0, multiplicity = 1:

       Center              X                  Y                   Z               Mass
    ------------   -----------------  -----------------  -----------------  -----------------
         C           -0.296996880197    -0.269503274590     0.279262449920    12.000000000000
         C            0.808477019803    -1.212313374590    -0.159049450080    12.000000000000
         C            0.246273019803     1.107666625410    -0.212922450080    12.000000000000
         C            2.094268019803    -0.472345374590     0.219969549920    12.000000000000
         C            1.782760019803     1.020024625410    -0.048351450080    12.000000000000
         C           -1.684526980197    -0.598144374590    -0.259501450080    12.000000000000
         C           -2.773223980197     0.374379625410     0.189508549920    12.000000000000
         H           -0.334123980197    -0.237593374590     1.368826549920     1.007825032230
         H            0.756548019803    -1.355869374590    -1.247139450080     1.007825032230
         H            0.722548019803    -2.199497374590     0.308587549920     1.007825032230
         H           -0.185437980197     1.957139625410     0.325370549920     1.007825032230
         H           -0.015945980197     1.233086625410    -1.271855450080     1.007825032230
         H            2.970795019803    -0.826612374590    -0.331657450080     1.007825032230
         H            2.301803019803    -0.628906374590     1.284492549920     1.007825032230
         H            2.133703019803     1.648765625410     0.775786549920     1.007825032230
         H            2.291275019803     1.375260625410    -0.950035450080     1.007825032230
         H           -1.945006980197    -1.613345374590     0.066897549920     1.007825032230
         H           -1.643528980197    -0.626535374590    -1.356978450080     1.007825032230
         H           -2.816276980197     0.430817625410     1.282031549920     1.007825032230
         H           -2.586327980197     1.382149625410    -0.191624450080     1.007825032230
         H           -3.757891980197     0.059285625410    -0.168860450080     1.007825032230

  Basis Set: AUG-CC-PVTZ
    Blend: AUG-CC-PVTZ
  Basis Set: (AUG-CC-PVTZ AUX)
    Blend: AUG-CC-PVTZ-JKFIT
	 Reference Energy          =    -273.3249395983949057 [Eh]
	 Singles Energy            =      -0.0000000000000000 [Eh]
	 Same-Spin Energy          =      -0.2971171137819204 [Eh]
	 Opposite-Spin Energy      =      -1.0772896782675137 [Eh]
	 Correlation Energy        =      -1.3744067920494341 [Eh]
	 Total Energy              =    -274.6993463904443615 [Eh]

	 ================> DF-SCS-MP2 Energies <==================
	-----------------------------------------------------------
	 SCS Same-Spin Scale       =       0.3333333333333333 [-]
	 SCS Opposite-Spin Scale   =       1.2000000000000000 [-]
	 SCS Same-Spin Energy      =      -0.0990390379273068 [Eh]
	 SCS Opposite-Spin Energy  =      -1.2927476139210163 [Eh]
	 SCS Correlation Energy    =      -1.3917866518483231 [Eh]
	 SCS Total Energy          =    -274.7167262502432550 [Eh]
	-----------------------------------------------------------

  Dipole Moment: [D]
     X:    -0.0138      Y:    -0.0516      Z:     0.0567     Total:     0.0779

*** Psi4 exiting successfully. Buy a developer a beer!
