                               Psi4 1.4a3.dev225

  ==> Input File <==

--------------------------------------------------------------------------
#psi4
#
memory 32 gb

molecule  {
0 1
  C       -0.2796410    -0.2534110     0.2699600
  C        0.8273080    -1.2201790    -0.1568800
  C        0.2651040     1.0998010    -0.2107530
  C        2.1130990    -0.4802110     0.2221390
  C        1.8015910     1.0121590    -0.0461820
  C       -1.6656960    -0.6060100    -0.2573320
  C       -2.7543930     0.3665140     0.1916780
  H       -0.3159403    -0.2453146     1.3909850
  H        0.7753790    -1.3637350    -1.2449700
  H        0.7413790    -2.2073630     0.3107570
  H       -0.1666070     1.9492740     0.3275400
  H        0.0028850     1.2252210    -1.2696860
  H        2.9896260    -0.8344780    -0.3294880
  H        2.3206340    -0.6367720     1.2866620
  H        2.1525340     1.6409000     0.7779560
  H        2.3101060     1.3673950    -0.9478660
  H       -1.9261760    -1.6212110     0.0690670
  H       -1.6246980    -0.6344010    -1.3548090
  H       -2.7974460     0.4229520     1.2842010
  H       -2.5674970     1.3742840    -0.1894550
  H       -3.7390610     0.0514200    -0.1666910
units angstrom
no_reorient  #important for SAPT in psi4, default
symmetry c1  #important for SAPT in psi4, default
}

set PROPERTIES_ORIGIN ["COM"]
properties('MP2/aug-cc-pvtz', properties = ['dipole'])
--------------------------------------------------------------------------

    Molecular point group: c1
  Charge       = 0
  Multiplicity = 1
  Basis Set: AUG-CC-PVTZ
    Blend: AUG-CC-PVTZ
  Basis Set: (AUG-CC-PVTZ AUX)
    Blend: AUG-CC-PVTZ-JKFIT

    Orbital Energies [Eh]
    ---------------------

    Doubly Occupied:

       1A    -11.217446     2A    -11.213876     3A    -11.212149
       4A    -11.211484     5A    -11.210377     6A    -11.209864
       7A    -11.208774     8A     -1.124400     9A     -1.033873
      10A     -0.956139    11A     -0.939148    12A     -0.833749
      13A     -0.770715    14A     -0.749400    15A     -0.651852
      16A     -0.630197    17A     -0.604453    18A     -0.569206
      19A     -0.555378    20A     -0.552287    21A     -0.513163
      22A     -0.485162    23A     -0.472284    24A     -0.464305
      25A     -0.451526    26A     -0.445770    27A     -0.442012
      28A     -0.435643

  @DF-RHF Final Energy:  -273.32494213979749

   => Energetics <=

    Nuclear Repulsion Energy =            322.6695889842272891
    One-Electron Energy =               -1007.6597932061157508
    Two-Electron Energy =                 411.6652620820909760
    Total Energy =                       -273.3249421397974857
  Basis Set: (AUG-CC-PVTZ AUX)
    Blend: AUG-CC-PVTZ-RI
    Molecular point group: c1

    Geometry (in Angstrom), charge = 0, multiplicity = 1:

       Center              X                  Y                   Z               Mass
    ------------   -----------------  -----------------  -----------------  -----------------
         C           -0.298284908041    -0.248477202619     0.268988367919    12.000000000000
         C            0.808664091959    -1.215245202619    -0.157851632081    12.000000000000
         C            0.246460091959     1.104734797381    -0.211724632081    12.000000000000
         C            2.094455091959    -0.475277202619     0.221167367919    12.000000000000
         C            1.782947091959     1.017092797381    -0.047153632081    12.000000000000
         C           -1.684339908041    -0.601076202619    -0.258303632081    12.000000000000
         C           -2.773036908041     0.371447797381     0.190706367919    12.000000000000
         H           -0.334584208041    -0.240380802619     1.390013367919     1.007825032230
         H            0.756735091959    -1.358801202619    -1.245941632081     1.007825032230
         H            0.722735091959    -2.202429202619     0.309785367919     1.007825032230
         H           -0.185250908041     1.954207797381     0.326568367919     1.007825032230
         H           -0.015758908041     1.230154797381    -1.270657632081     1.007825032230
         H            2.970982091959    -0.829544202619    -0.330459632081     1.007825032230
         H            2.301990091959    -0.631838202619     1.285690367919     1.007825032230
         H            2.133890091959     1.645833797381     0.776984367919     1.007825032230
         H            2.291462091959     1.372328797381    -0.948837632081     1.007825032230
         H           -1.944819908041    -1.616277202619     0.068095367919     1.007825032230
         H           -1.643341908041    -0.629467202619    -1.355780632081     1.007825032230
         H           -2.816089908041     0.427885797381     1.283229367919     1.007825032230
         H           -2.586140908041     1.379217797381    -0.190426632081     1.007825032230
         H           -3.757704908041     0.056353797381    -0.167662632081     1.007825032230

  Basis Set: AUG-CC-PVTZ
    Blend: AUG-CC-PVTZ
  Basis Set: (AUG-CC-PVTZ AUX)
    Blend: AUG-CC-PVTZ-JKFIT
	 Reference Energy          =    -273.3249421397974857 [Eh]
	 Singles Energy            =      -0.0000000000000000 [Eh]
	 Same-Spin Energy          =      -0.2971704053996905 [Eh]
	 Opposite-Spin Energy      =      -1.0774353930514906 [Eh]
	 Correlation Energy        =      -1.3746057984511810 [Eh]
	 Total Energy              =    -274.6995479382486565 [Eh]

	 ================> DF-SCS-MP2 Energies <==================
	-----------------------------------------------------------
	 SCS Same-Spin Scale       =       0.3333333333333333 [-]
	 SCS Opposite-Spin Scale   =       1.2000000000000000 [-]
	 SCS Same-Spin Energy      =      -0.0990568017998968 [Eh]
	 SCS Opposite-Spin Energy  =      -1.2929224716617886 [Eh]
	 SCS Correlation Energy    =      -1.3919792734616854 [Eh]
	 SCS Total Energy          =    -274.7169214132591719 [Eh]
	-----------------------------------------------------------

  Dipole Moment: [D]
     X:    -0.0090      Y:    -0.0465      Z:     0.0336     Total:     0.0580

*** Psi4 exiting successfully. Buy a developer a beer!
