                               Psi4 1.3.2 release

  ==> Input File <==

--------------------------------------------------------------------------
#psi4
#
memory 32 gb

molecule  {
0 1
  C       -0.2421038    -0.2193708     0.2868657
  C        0.8273080    -1.2201790    -0.1568800
  C        0.2651040     1.0998010    -0.2107530
  C        2.1130990    -0.4802110     0.2221390
  C        1.8015910     1.0121590    -0.0461820
  C       -1.6656960    -0.6060100    -0.2573320
  C       -2.7543930     0.3665140     0.1916780
  H       -0.3152930    -0.2454590     1.3709960
  H        0.7753790    -1.3637350    -1.2449700
  H        0.7413790    -2.2073630     0.3107570
  H       -0.1666070     1.9492740     0.3275400
  H        0.0028850     1.2252210    -1.2696860
  H        2.9896260    -0.8344780    -0.3294880
  H        2.3206340    -0.6367720     1.2866620
  H        2.1525340     1.6409000     0.7779560
  H        2.3101060     1.3673950    -0.9478660
  H       -1.9261760    -1.6212110     0.0690670
  H       -1.6246980    -0.6344010    -1.3548090
  H       -2.7974460     0.4229520     1.2842010
  H       -2.5674970     1.3742840    -0.1894550
  H       -3.7390610     0.0514200    -0.1666910
units angstrom
no_reorient  #important for SAPT in psi4, default
symmetry c1  #important for SAPT in psi4, default
}

set PROPERTIES_ORIGIN ["COM"]
properties('MP2/aug-cc-pvtz', properties = ['dipole'])
--------------------------------------------------------------------------

    Molecular point group: c1
  Charge       = 0
  Multiplicity = 1
  Basis Set: AUG-CC-PVTZ
    Blend: AUG-CC-PVTZ
  Basis Set: (AUG-CC-PVTZ AUX)
    Blend: AUG-CC-PVTZ-JKFIT

    Orbital Energies [Eh]
    ---------------------

    Doubly Occupied:

       1A    -11.214715     2A    -11.213947     3A    -11.211773
       4A    -11.210793     5A    -11.209272     6A    -11.208964
       7A    -11.207809     8A     -1.127407     9A     -1.029090
      10A     -0.957678    11A     -0.940432    12A     -0.829213
      13A     -0.772014    14A     -0.753727    15A     -0.654168
      16A     -0.629328    17A     -0.602704    18A     -0.570236
      19A     -0.556546    20A     -0.550529    21A     -0.512117
      22A     -0.484882    23A     -0.475048    24A     -0.464782
      25A     -0.455577    26A     -0.447587    27A     -0.440824
      28A     -0.428921

  @DF-RHF Final Energy:  -273.32273018939253

   => Energetics <=

    Nuclear Repulsion Energy =            322.9002687992233973
    One-Electron Energy =               -1008.1258294040405872
    Two-Electron Energy =                 411.9028304154247166
    Total Energy =                       -273.3227301893925301
  Basis Set: (AUG-CC-PVTZ AUX)
    Blend: AUG-CC-PVTZ-RI
    Molecular point group: c1

    Geometry (in Angstrom), charge = 0, multiplicity = 1:

       Center              X                  Y                   Z               Mass
    ------------   -----------------  -----------------  -----------------  -----------------
         C           -0.265345616838    -0.218599052778     0.284031629608    12.000000000000
         C            0.804066183162    -1.219407252778    -0.159714070392    12.000000000000
         C            0.241862183162     1.100572747222    -0.213587070392    12.000000000000
         C            2.089857183162    -0.479439252778     0.219304929608    12.000000000000
         C            1.778349183162     1.012930747222    -0.049016070392    12.000000000000
         C           -1.688937816838    -0.605238252778    -0.260166070392    12.000000000000
         C           -2.777634816838     0.367285747222     0.188843929608    12.000000000000
         H           -0.338534816838    -0.244687252778     1.368161929608     1.007825032230
         H            0.752137183162    -1.362963252778    -1.247804070392     1.007825032230
         H            0.718137183162    -2.206591252778     0.307922929608     1.007825032230
         H           -0.189848816838     1.950045747222     0.324705929608     1.007825032230
         H           -0.020356816838     1.225992747222    -1.272520070392     1.007825032230
         H            2.966384183162    -0.833706252778    -0.332322070392     1.007825032230
         H            2.297392183162    -0.636000252778     1.283827929608     1.007825032230
         H            2.129292183162     1.641671747222     0.775121929608     1.007825032230
         H            2.286864183162     1.368166747222    -0.950700070392     1.007825032230
         H           -1.949417816838    -1.620439252778     0.066232929608     1.007825032230
         H           -1.647939816838    -0.633629252778    -1.357643070392     1.007825032230
         H           -2.820687816838     0.423723747222     1.281366929608     1.007825032230
         H           -2.590738816838     1.375055747222    -0.192289070392     1.007825032230
         H           -3.762302816838     0.052191747222    -0.169525070392     1.007825032230

  Basis Set: AUG-CC-PVTZ
    Blend: AUG-CC-PVTZ
  Basis Set: (AUG-CC-PVTZ AUX)
    Blend: AUG-CC-PVTZ-JKFIT
	 Reference Energy          =    -273.3227301893925301 [Eh]
	 Singles Energy            =      -0.0000000000000000 [Eh]
	 Same-Spin Energy          =      -0.2972298534213005 [Eh]
	 Opposite-Spin Energy      =      -1.0773952093474515 [Eh]
	 Correlation Energy        =      -1.3746250627687520 [Eh]
	 Total Energy              =    -274.6973552521612874 [Eh]

	 ================> DF-SCS-MP2 Energies <==================
	-----------------------------------------------------------
	 SCS Same-Spin Scale       =       0.3333333333333333 [-]
	 SCS Opposite-Spin Scale   =       1.2000000000000000 [-]
	 SCS Same-Spin Energy      =      -0.0990766178071002 [Eh]
	 SCS Opposite-Spin Energy  =      -1.2928742512169418 [Eh]
	 SCS Correlation Energy    =      -1.3919508690240419 [Eh]
	 SCS Total Energy          =    -274.7146810584165451 [Eh]
	-----------------------------------------------------------

  Dipole Moment: [D]
     X:     0.0046      Y:    -0.0412      Z:     0.0593     Total:     0.0723

*** Psi4 exiting successfully. Buy a developer a beer!
