                               Psi4 1.3.2 release

  ==> Input File <==

--------------------------------------------------------------------------
#psi4
#
memory 32 gb

molecule  {
0 1
  C       -0.2796410    -0.2534110     0.2699600
  C        0.7141486    -1.3016641    -0.2357243
  C        0.2651040     1.0998010    -0.2107530
  C        2.1130990    -0.4802110     0.2221390
  C        1.8015910     1.0121590    -0.0461820
  C       -1.6656960    -0.6060100    -0.2573320
  C       -2.7543930     0.3665140     0.1916780
  H       -0.3152930    -0.2454590     1.3709960
  H        0.7753790    -1.3637350    -1.2449700
  H        0.7413790    -2.2073630     0.3107570
  H       -0.1666070     1.9492740     0.3275400
  H        0.0028850     1.2252210    -1.2696860
  H        2.9896260    -0.8344780    -0.3294880
  H        2.3206340    -0.6367720     1.2866620
  H        2.1525340     1.6409000     0.7779560
  H        2.3101060     1.3673950    -0.9478660
  H       -1.9261760    -1.6212110     0.0690670
  H       -1.6246980    -0.6344010    -1.3548090
  H       -2.7974460     0.4229520     1.2842010
  H       -2.5674970     1.3742840    -0.1894550
  H       -3.7390610     0.0514200    -0.1666910
units angstrom
no_reorient  #important for SAPT in psi4, default
symmetry c1  #important for SAPT in psi4, default
}

set PROPERTIES_ORIGIN ["COM"]
properties('MP2/aug-cc-pvtz', properties = ['dipole'])
--------------------------------------------------------------------------

    Molecular point group: c1
  Charge       = 0
  Multiplicity = 1
  Basis Set: AUG-CC-PVTZ
    Blend: AUG-CC-PVTZ
  Basis Set: (AUG-CC-PVTZ AUX)
    Blend: AUG-CC-PVTZ-JKFIT

    Orbital Energies [Eh]
    ---------------------

    Doubly Occupied:

       1A    -11.216627     2A    -11.216032     3A    -11.211699
       4A    -11.211241     5A    -11.211024     6A    -11.207350
       7A    -11.206664     8A     -1.116754     9A     -1.028694
      10A     -0.955810    11A     -0.933534    12A     -0.833720
      13A     -0.780257    14A     -0.749245    15A     -0.653836
      16A     -0.622716    17A     -0.602520    18A     -0.583080
      19A     -0.557093    20A     -0.549203    21A     -0.513609
      22A     -0.492260    23A     -0.472927    24A     -0.463472
      25A     -0.460902    26A     -0.446290    27A     -0.439195
      28A     -0.404336

  @DF-RHF Final Energy:  -273.30448687072499

   => Energetics <=

    Nuclear Repulsion Energy =            321.5874141389364240
    One-Electron Energy =               -1005.5036207071399303
    Two-Electron Energy =                 410.6117196974785202
    Total Energy =                       -273.3044868707249861
  Basis Set: (AUG-CC-PVTZ AUX)
    Blend: AUG-CC-PVTZ-RI
    Molecular point group: c1

    Geometry (in Angstrom), charge = 0, multiplicity = 1:

       Center              X                  Y                   Z               Mass
    ------------   -----------------  -----------------  -----------------  -----------------
         C           -0.284450776413    -0.238509093241     0.278837327680    12.000000000000
         C            0.709338823587    -1.286762193241    -0.226846972320    12.000000000000
         C            0.260294223587     1.114702906759    -0.201875672320    12.000000000000
         C            2.108289223587    -0.465309093241     0.231016327680    12.000000000000
         C            1.796781223587     1.027060906759    -0.037304672320    12.000000000000
         C           -1.670505776413    -0.591108093241    -0.248454672320    12.000000000000
         C           -2.759202776413     0.381415906759     0.200555327680    12.000000000000
         H           -0.320102776413    -0.230557093241     1.379873327680     1.007825032230
         H            0.770569223587    -1.348833093241    -1.236092672320     1.007825032230
         H            0.736569223587    -2.192461093241     0.319634327680     1.007825032230
         H           -0.171416776413     1.964175906759     0.336417327680     1.007825032230
         H           -0.001924776413     1.240122906759    -1.260808672320     1.007825032230
         H            2.984816223587    -0.819576093241    -0.320610672320     1.007825032230
         H            2.315824223587    -0.621870093241     1.295539327680     1.007825032230
         H            2.147724223587     1.655801906759     0.786833327680     1.007825032230
         H            2.305296223587     1.382296906759    -0.938988672320     1.007825032230
         H           -1.930985776413    -1.606309093241     0.077944327680     1.007825032230
         H           -1.629507776413    -0.619499093241    -1.345931672320     1.007825032230
         H           -2.802255776413     0.437853906759     1.293078327680     1.007825032230
         H           -2.572306776413     1.389185906759    -0.180577672320     1.007825032230
         H           -3.743870776413     0.066321906759    -0.157813672320     1.007825032230

  Basis Set: AUG-CC-PVTZ
    Blend: AUG-CC-PVTZ
  Basis Set: (AUG-CC-PVTZ AUX)
    Blend: AUG-CC-PVTZ-JKFIT
	 Reference Energy          =    -273.3044868707249861 [Eh]
	 Singles Energy            =      -0.0000000000000000 [Eh]
	 Same-Spin Energy          =      -0.2972381708219977 [Eh]
	 Opposite-Spin Energy      =      -1.0786041423862700 [Eh]
	 Correlation Energy        =      -1.3758423132082678 [Eh]
	 Total Energy              =    -274.6803291839332815 [Eh]

	 ================> DF-SCS-MP2 Energies <==================
	-----------------------------------------------------------
	 SCS Same-Spin Scale       =       0.3333333333333333 [-]
	 SCS Opposite-Spin Scale   =       1.2000000000000000 [-]
	 SCS Same-Spin Energy      =      -0.0990793902739992 [Eh]
	 SCS Opposite-Spin Energy  =      -1.2943249708635240 [Eh]
	 SCS Correlation Energy    =      -1.3934043611375233 [Eh]
	 SCS Total Energy          =    -274.6978912318625135 [Eh]
	-----------------------------------------------------------

  Dipole Moment: [D]
     X:     0.0163      Y:    -0.0504      Z:     0.0301     Total:     0.0609

*** Psi4 exiting successfully. Buy a developer a beer!
