                               Psi4 1.3.2 release

  ==> Input File <==

--------------------------------------------------------------------------
#psi4
#
memory 32 gb

molecule  {
0 1
  C       -0.2796410    -0.2534110     0.2699600
  C        0.7846612    -1.1254683    -0.1820423
  C        0.2651040     1.0998010    -0.2107530
  C        2.1130990    -0.4802110     0.2221390
  C        1.8015910     1.0121590    -0.0461820
  C       -1.6656960    -0.6060100    -0.2573320
  C       -2.7543930     0.3665140     0.1916780
  H       -0.3152930    -0.2454590     1.3709960
  H        0.7753790    -1.3637350    -1.2449700
  H        0.7413790    -2.2073630     0.3107570
  H       -0.1666070     1.9492740     0.3275400
  H        0.0028850     1.2252210    -1.2696860
  H        2.9896260    -0.8344780    -0.3294880
  H        2.3206340    -0.6367720     1.2866620
  H        2.1525340     1.6409000     0.7779560
  H        2.3101060     1.3673950    -0.9478660
  H       -1.9261760    -1.6212110     0.0690670
  H       -1.6246980    -0.6344010    -1.3548090
  H       -2.7974460     0.4229520     1.2842010
  H       -2.5674970     1.3742840    -0.1894550
  H       -3.7390610     0.0514200    -0.1666910
units angstrom
no_reorient  #important for SAPT in psi4, default
symmetry c1  #important for SAPT in psi4, default
}

set PROPERTIES_ORIGIN ["COM"]
properties('MP2/aug-cc-pvtz', properties = ['dipole'])
--------------------------------------------------------------------------

    Molecular point group: c1
  Charge       = 0
  Multiplicity = 1
  Basis Set: AUG-CC-PVTZ
    Blend: AUG-CC-PVTZ
  Basis Set: (AUG-CC-PVTZ AUX)
    Blend: AUG-CC-PVTZ-JKFIT

    Orbital Energies [Eh]
    ---------------------

    Doubly Occupied:

       1A    -11.214908     2A    -11.213929     3A    -11.212093
       4A    -11.211422     5A    -11.211072     6A    -11.210198
       7A    -11.209504     8A     -1.136816     9A     -1.035575
      10A     -0.955445    11A     -0.943675    12A     -0.834256
      13A     -0.769737    14A     -0.755296    15A     -0.648701
      16A     -0.635086    17A     -0.605436    18A     -0.573975
      19A     -0.559344    20A     -0.552761    21A     -0.513535
      22A     -0.485315    23A     -0.469083    24A     -0.465623
      25A     -0.448738    26A     -0.447974    27A     -0.442443
      28A     -0.432637

  @DF-RHF Final Energy:  -273.31247851763987

   => Energetics <=

    Nuclear Repulsion Energy =            324.3179787330150248
    One-Electron Energy =               -1010.8717535193593449
    Two-Electron Energy =                 413.2412962687044455
    Total Energy =                       -273.3124785176398746
  Basis Set: (AUG-CC-PVTZ AUX)
    Blend: AUG-CC-PVTZ-RI
    Molecular point group: c1

    Geometry (in Angstrom), charge = 0, multiplicity = 1:

       Center              X                  Y                   Z               Mass
    ------------   -----------------  -----------------  -----------------  -----------------
         C           -0.293075331272    -0.260059998227     0.272271361400    12.000000000000
         C            0.771226868728    -1.132117298227    -0.179730938600    12.000000000000
         C            0.251669668728     1.093152001773    -0.208441638600    12.000000000000
         C            2.099664668728    -0.486859998227     0.224450361400    12.000000000000
         C            1.788156668728     1.005510001773    -0.043870638600    12.000000000000
         C           -1.679130331272    -0.612658998227    -0.255020638600    12.000000000000
         C           -2.767827331272     0.359865001773     0.193989361400    12.000000000000
         H           -0.328727331272    -0.252107998227     1.373307361400     1.007825032230
         H            0.761944668728    -1.370383998227    -1.242658638600     1.007825032230
         H            0.727944668728    -2.214011998227     0.313068361400     1.007825032230
         H           -0.180041331272     1.942625001773     0.329851361400     1.007825032230
         H           -0.010549331272     1.218572001773    -1.267374638600     1.007825032230
         H            2.976191668728    -0.841126998227    -0.327176638600     1.007825032230
         H            2.307199668728    -0.643420998227     1.288973361400     1.007825032230
         H            2.139099668728     1.634251001773     0.780267361400     1.007825032230
         H            2.296671668728     1.360746001773    -0.945554638600     1.007825032230
         H           -1.939610331272    -1.627859998227     0.071378361400     1.007825032230
         H           -1.638132331272    -0.641049998227    -1.352497638600     1.007825032230
         H           -2.810880331272     0.416303001773     1.286512361400     1.007825032230
         H           -2.580931331272     1.367635001773    -0.187143638600     1.007825032230
         H           -3.752495331272     0.044771001773    -0.164379638600     1.007825032230

  Basis Set: AUG-CC-PVTZ
    Blend: AUG-CC-PVTZ
  Basis Set: (AUG-CC-PVTZ AUX)
    Blend: AUG-CC-PVTZ-JKFIT
	 Reference Energy          =    -273.3124785176398746 [Eh]
	 Singles Energy            =      -0.0000000000000000 [Eh]
	 Same-Spin Energy          =      -0.2981226733004729 [Eh]
	 Opposite-Spin Energy      =      -1.0784376231192652 [Eh]
	 Correlation Energy        =      -1.3765602964197381 [Eh]
	 Total Energy              =    -274.6890388140595860 [Eh]

	 ================> DF-SCS-MP2 Energies <==================
	-----------------------------------------------------------
	 SCS Same-Spin Scale       =       0.3333333333333333 [-]
	 SCS Opposite-Spin Scale   =       1.2000000000000000 [-]
	 SCS Same-Spin Energy      =      -0.0993742244334910 [Eh]
	 SCS Opposite-Spin Energy  =      -1.2941251477431182 [Eh]
	 SCS Correlation Energy    =      -1.3934993721766091 [Eh]
	 SCS Total Energy          =    -274.7059778898164950 [Eh]
	-----------------------------------------------------------

  Dipole Moment: [D]
     X:    -0.0116      Y:     0.0125      Z:     0.0095     Total:     0.0195

*** Psi4 exiting successfully. Buy a developer a beer!
