                               Psi4 1.3.2 release

  ==> Input File <==

--------------------------------------------------------------------------
#psi4
#
memory 32 gb

molecule  {
0 1
  C       -0.2900028    -0.2323103     0.2824162
  C        0.8273080    -1.2201790    -0.1568800
  C        0.2651040     1.0998010    -0.2107530
  C        2.1130990    -0.4802110     0.2221390
  C        1.8015910     1.0121590    -0.0461820
  C       -1.6656960    -0.6060100    -0.2573320
  C       -2.7543930     0.3665140     0.1916780
  H       -0.3152930    -0.2454590     1.3709960
  H        0.7753790    -1.3637350    -1.2449700
  H        0.7413790    -2.2073630     0.3107570
  H       -0.1666070     1.9492740     0.3275400
  H        0.0028850     1.2252210    -1.2696860
  H        2.9896260    -0.8344780    -0.3294880
  H        2.3206340    -0.6367720     1.2866620
  H        2.1525340     1.6409000     0.7779560
  H        2.3101060     1.3673950    -0.9478660
  H       -1.9261760    -1.6212110     0.0690670
  H       -1.6246980    -0.6344010    -1.3548090
  H       -2.7974460     0.4229520     1.2842010
  H       -2.5674970     1.3742840    -0.1894550
  H       -3.7390610     0.0514200    -0.1666910
units angstrom
no_reorient  #important for SAPT in psi4, default
symmetry c1  #important for SAPT in psi4, default
}

set PROPERTIES_ORIGIN ["COM"]
properties('MP2/aug-cc-pvtz', properties = ['dipole'])
--------------------------------------------------------------------------

    Molecular point group: c1
  Charge       = 0
  Multiplicity = 1
  Basis Set: AUG-CC-PVTZ
    Blend: AUG-CC-PVTZ
  Basis Set: (AUG-CC-PVTZ AUX)
    Blend: AUG-CC-PVTZ-JKFIT

    Orbital Energies [Eh]
    ---------------------

    Doubly Occupied:

       1A    -11.214507     2A    -11.213535     3A    -11.212138
       4A    -11.211174     5A    -11.210078     6A    -11.209957
       7A    -11.208238     8A     -1.123496     9A     -1.034053
      10A     -0.954849    11A     -0.939302    12A     -0.833104
      13A     -0.770999    14A     -0.752707    15A     -0.651187
      16A     -0.630118    17A     -0.604704    18A     -0.568695
      19A     -0.557133    20A     -0.551543    21A     -0.512832
      22A     -0.485538    23A     -0.471700    24A     -0.464393
      25A     -0.453881    26A     -0.446629    27A     -0.444442
      28A     -0.430388

  @DF-RHF Final Energy:  -273.32490561043693

   => Energetics <=

    Nuclear Repulsion Energy =            322.6862366545488499
    One-Electron Energy =               -1007.6996468457733727
    Two-Electron Energy =                 411.6885045807875372
    Total Energy =                       -273.3249056104369288
  Basis Set: (AUG-CC-PVTZ AUX)
    Blend: AUG-CC-PVTZ-RI
    Molecular point group: c1

    Geometry (in Angstrom), charge = 0, multiplicity = 1:

       Center              X                  Y                   Z               Mass
    ------------   -----------------  -----------------  -----------------  -----------------
         C           -0.307385982308    -0.229955893401     0.280126357971    12.000000000000
         C            0.809924817692    -1.217824593401    -0.159169842029    12.000000000000
         C            0.247720817692     1.102155406599    -0.213042842029    12.000000000000
         C            2.095715817692    -0.477856593401     0.219849157971    12.000000000000
         C            1.784207817692     1.014513406599    -0.048471842029    12.000000000000
         C           -1.683079182308    -0.603655593401    -0.259621842029    12.000000000000
         C           -2.771776182308     0.368868406599     0.189388157971    12.000000000000
         H           -0.332676182308    -0.243104593401     1.368706157971     1.007825032230
         H            0.757995817692    -1.361380593401    -1.247259842029     1.007825032230
         H            0.723995817692    -2.205008593401     0.308467157971     1.007825032230
         H           -0.183990182308     1.951628406599     0.325250157971     1.007825032230
         H           -0.014498182308     1.227575406599    -1.271975842029     1.007825032230
         H            2.972242817692    -0.832123593401    -0.331777842029     1.007825032230
         H            2.303250817692    -0.634417593401     1.284372157971     1.007825032230
         H            2.135150817692     1.643254406599     0.775666157971     1.007825032230
         H            2.292722817692     1.369749406599    -0.950155842029     1.007825032230
         H           -1.943559182308    -1.618856593401     0.066777157971     1.007825032230
         H           -1.642081182308    -0.632046593401    -1.357098842029     1.007825032230
         H           -2.814829182308     0.425306406599     1.281911157971     1.007825032230
         H           -2.584880182308     1.376638406599    -0.191744842029     1.007825032230
         H           -3.756444182308     0.053774406599    -0.168980842029     1.007825032230

  Basis Set: AUG-CC-PVTZ
    Blend: AUG-CC-PVTZ
  Basis Set: (AUG-CC-PVTZ AUX)
    Blend: AUG-CC-PVTZ-JKFIT
	 Reference Energy          =    -273.3249056104369288 [Eh]
	 Singles Energy            =      -0.0000000000000000 [Eh]
	 Same-Spin Energy          =      -0.2971140510896683 [Eh]
	 Opposite-Spin Energy      =      -1.0772968545372501 [Eh]
	 Correlation Energy        =      -1.3744109056269185 [Eh]
	 Total Energy              =    -274.6993165160638455 [Eh]

	 ================> DF-SCS-MP2 Energies <==================
	-----------------------------------------------------------
	 SCS Same-Spin Scale       =       0.3333333333333333 [-]
	 SCS Opposite-Spin Scale   =       1.2000000000000000 [-]
	 SCS Same-Spin Energy      =      -0.0990380170298894 [Eh]
	 SCS Opposite-Spin Energy  =      -1.2927562254447000 [Eh]
	 SCS Correlation Energy    =      -1.3917942424745895 [Eh]
	 SCS Total Energy          =    -274.7166998529115176 [Eh]
	-----------------------------------------------------------

  Dipole Moment: [D]
     X:    -0.0105      Y:    -0.0448      Z:     0.0533     Total:     0.0704

*** Psi4 exiting successfully. Buy a developer a beer!
