                               Psi4 1.3.2 release

  ==> Input File <==

--------------------------------------------------------------------------
#psi4
#
memory 32 gb

molecule  {
0 1
  C       -0.2796410    -0.2534110     0.2699600
  C        0.7379855    -1.3371264    -0.0935864
  C        0.2651040     1.0998010    -0.2107530
  C        2.1130990    -0.4802110     0.2221390
  C        1.8015910     1.0121590    -0.0461820
  C       -1.6656960    -0.6060100    -0.2573320
  C       -2.7543930     0.3665140     0.1916780
  H       -0.3152930    -0.2454590     1.3709960
  H        0.7753790    -1.3637350    -1.2449700
  H        0.7413790    -2.2073630     0.3107570
  H       -0.1666070     1.9492740     0.3275400
  H        0.0028850     1.2252210    -1.2696860
  H        2.9896260    -0.8344780    -0.3294880
  H        2.3206340    -0.6367720     1.2866620
  H        2.1525340     1.6409000     0.7779560
  H        2.3101060     1.3673950    -0.9478660
  H       -1.9261760    -1.6212110     0.0690670
  H       -1.6246980    -0.6344010    -1.3548090
  H       -2.7974460     0.4229520     1.2842010
  H       -2.5674970     1.3742840    -0.1894550
  H       -3.7390610     0.0514200    -0.1666910
units angstrom
no_reorient  #important for SAPT in psi4, default
symmetry c1  #important for SAPT in psi4, default
}

set PROPERTIES_ORIGIN ["COM"]
properties('MP2/aug-cc-pvtz', properties = ['dipole'])
--------------------------------------------------------------------------

    Molecular point group: c1
  Charge       = 0
  Multiplicity = 1
  Basis Set: AUG-CC-PVTZ
    Blend: AUG-CC-PVTZ
  Basis Set: (AUG-CC-PVTZ AUX)
    Blend: AUG-CC-PVTZ-JKFIT

    Orbital Energies [Eh]
    ---------------------

    Doubly Occupied:

       1A    -11.217362     2A    -11.216269     3A    -11.213716
       4A    -11.212923     5A    -11.211987     6A    -11.209882
       7A    -11.207275     8A     -1.116907     9A     -1.029652
      10A     -0.959711    11A     -0.935491    12A     -0.834359
      13A     -0.778815    14A     -0.750826    15A     -0.663848
      16A     -0.624304    17A     -0.603162    18A     -0.565524
      19A     -0.555008    20A     -0.551806    21A     -0.516775
      22A     -0.496868    23A     -0.480393    24A     -0.464736
      25A     -0.446458    26A     -0.443821    27A     -0.438271
      28A     -0.413498

  @DF-RHF Final Energy:  -273.29636452475802

   => Energetics <=

    Nuclear Repulsion Energy =            321.4424656378830605
    One-Electron Energy =               -1005.1583632362506933
    Two-Electron Energy =                 410.4195330736096139
    Total Energy =                       -273.2963645247580189
  Basis Set: (AUG-CC-PVTZ AUX)
    Blend: AUG-CC-PVTZ-RI
    Molecular point group: c1

    Geometry (in Angstrom), charge = 0, multiplicity = 1:

       Center              X                  Y                   Z               Mass
    ------------   -----------------  -----------------  -----------------  -----------------
         C           -0.287366321319    -0.234171619488     0.261452121121    12.000000000000
         C            0.730260178681    -1.317887019488    -0.102094278879    12.000000000000
         C            0.257378678681     1.119040380512    -0.219260878879    12.000000000000
         C            2.105373678681    -0.460971619488     0.213631121121    12.000000000000
         C            1.793865678681     1.031398380512    -0.054689878879    12.000000000000
         C           -1.673421321319    -0.586770619488    -0.265839878879    12.000000000000
         C           -2.762118321319     0.385753380512     0.183170121121    12.000000000000
         H           -0.323018321319    -0.226219619488     1.362488121121     1.007825032230
         H            0.767653678681    -1.344495619488    -1.253477878879     1.007825032230
         H            0.733653678681    -2.188123619488     0.302249121121     1.007825032230
         H           -0.174332321319     1.968513380512     0.319032121121     1.007825032230
         H           -0.004840321319     1.244460380512    -1.278193878879     1.007825032230
         H            2.981900678681    -0.815238619488    -0.337995878879     1.007825032230
         H            2.312908678681    -0.617532619488     1.278154121121     1.007825032230
         H            2.144808678681     1.660139380512     0.769448121121     1.007825032230
         H            2.302380678681     1.386634380512    -0.956373878879     1.007825032230
         H           -1.933901321319    -1.601971619488     0.060559121121     1.007825032230
         H           -1.632423321319    -0.615161619488    -1.363316878879     1.007825032230
         H           -2.805171321319     0.442191380512     1.275693121121     1.007825032230
         H           -2.575222321319     1.393523380512    -0.197962878879     1.007825032230
         H           -3.746786321319     0.070659380512    -0.175198878879     1.007825032230

  Basis Set: AUG-CC-PVTZ
    Blend: AUG-CC-PVTZ
  Basis Set: (AUG-CC-PVTZ AUX)
    Blend: AUG-CC-PVTZ-JKFIT
	 Reference Energy          =    -273.2963645247580189 [Eh]
	 Singles Energy            =      -0.0000000000000000 [Eh]
	 Same-Spin Energy          =      -0.2971731736761324 [Eh]
	 Opposite-Spin Energy      =      -1.0786874149418240 [Eh]
	 Correlation Energy        =      -1.3758605886179565 [Eh]
	 Total Energy              =    -274.6722251133759869 [Eh]

	 ================> DF-SCS-MP2 Energies <==================
	-----------------------------------------------------------
	 SCS Same-Spin Scale       =       0.3333333333333333 [-]
	 SCS Opposite-Spin Scale   =       1.2000000000000000 [-]
	 SCS Same-Spin Energy      =      -0.0990577245587108 [Eh]
	 SCS Opposite-Spin Energy  =      -1.2944248979301887 [Eh]
	 SCS Correlation Energy    =      -1.3934826224888994 [Eh]
	 SCS Total Energy          =    -274.6898471472468941 [Eh]
	-----------------------------------------------------------

  Dipole Moment: [D]
     X:     0.0074      Y:    -0.0239      Z:     0.1110     Total:     0.1138

*** Psi4 exiting successfully. Buy a developer a beer!
