                               Psi4 1.3.2 release

  ==> Input File <==

--------------------------------------------------------------------------
#psi4
#
memory 32 gb

molecule  {
0 1
  C       -0.2796410    -0.2534110     0.2699600
  C        0.8273080    -1.2201790    -0.1568800
  C        0.2651040     1.0998010    -0.2107530
  C        2.1130990    -0.4802110     0.2221390
  C        1.8015910     1.0121590    -0.0461820
  C       -1.5747658    -0.5828782    -0.2227398
  C       -2.7543930     0.3665140     0.1916780
  H       -0.3152930    -0.2454590     1.3709960
  H        0.7753790    -1.3637350    -1.2449700
  H        0.7413790    -2.2073630     0.3107570
  H       -0.1666070     1.9492740     0.3275400
  H        0.0028850     1.2252210    -1.2696860
  H        2.9896260    -0.8344780    -0.3294880
  H        2.3206340    -0.6367720     1.2866620
  H        2.1525340     1.6409000     0.7779560
  H        2.3101060     1.3673950    -0.9478660
  H       -1.9261760    -1.6212110     0.0690670
  H       -1.6246980    -0.6344010    -1.3548090
  H       -2.7974460     0.4229520     1.2842010
  H       -2.5674970     1.3742840    -0.1894550
  H       -3.7390610     0.0514200    -0.1666910
units angstrom
no_reorient  #important for SAPT in psi4, default
symmetry c1  #important for SAPT in psi4, default
}

set PROPERTIES_ORIGIN ["COM"]
properties('MP2/aug-cc-pvtz', properties = ['dipole'])
--------------------------------------------------------------------------

    Molecular point group: c1
  Charge       = 0
  Multiplicity = 1
  Basis Set: AUG-CC-PVTZ
    Blend: AUG-CC-PVTZ
  Basis Set: (AUG-CC-PVTZ AUX)
    Blend: AUG-CC-PVTZ-JKFIT

    Orbital Energies [Eh]
    ---------------------

    Doubly Occupied:

       1A    -11.217666     2A    -11.212675     3A    -11.211986
       4A    -11.211369     5A    -11.210869     6A    -11.210831
       7A    -11.210366     8A     -1.132225     9A     -1.036193
      10A     -0.957620    11A     -0.939333    12A     -0.836905
      13A     -0.772896    14A     -0.751048    15A     -0.654075
      16A     -0.636030    17A     -0.600215    18A     -0.571226
      19A     -0.555796    20A     -0.553018    21A     -0.508147
      22A     -0.481125    23A     -0.473520    24A     -0.469186
      25A     -0.465063    26A     -0.450548    27A     -0.435649
      28A     -0.423719

  @DF-RHF Final Energy:  -273.31400233831818

   => Energetics <=

    Nuclear Repulsion Energy =            324.0258956551688811
    One-Electron Energy =               -1010.3011995772790215
    Two-Electron Energy =                 412.9613015837920216
    Total Energy =                       -273.3140023383181756
  Basis Set: (AUG-CC-PVTZ AUX)
    Blend: AUG-CC-PVTZ-RI
    Molecular point group: c1

    Geometry (in Angstrom), charge = 0, multiplicity = 1:

       Center              X                  Y                   Z               Mass
    ------------   -----------------  -----------------  -----------------  -----------------
         C           -0.309413434878    -0.251305021815     0.264962653974    12.000000000000
         C            0.797535565122    -1.218073021815    -0.161877346026    12.000000000000
         C            0.235331565122     1.101906978185    -0.215750346026    12.000000000000
         C            2.083326565122    -0.478105021815     0.217141653974    12.000000000000
         C            1.771818565122     1.014264978185    -0.051179346026    12.000000000000
         C           -1.604538234878    -0.580772221815    -0.227737146026    12.000000000000
         C           -2.784165434878     0.368619978185     0.186680653974    12.000000000000
         H           -0.345065434878    -0.243353021815     1.365998653974     1.007825032230
         H            0.745606565122    -1.361629021815    -1.249967346026     1.007825032230
         H            0.711606565122    -2.205257021815     0.305759653974     1.007825032230
         H           -0.196379434878     1.951379978185     0.322542653974     1.007825032230
         H           -0.026887434878     1.227326978185    -1.274683346026     1.007825032230
         H            2.959853565122    -0.832372021815    -0.334485346026     1.007825032230
         H            2.290861565122    -0.634666021815     1.281664653974     1.007825032230
         H            2.122761565122     1.643005978185     0.772958653974     1.007825032230
         H            2.280333565122     1.369500978185    -0.952863346026     1.007825032230
         H           -1.955948434878    -1.619105021815     0.064069653974     1.007825032230
         H           -1.654470434878    -0.632295021815    -1.359806346026     1.007825032230
         H           -2.827218434878     0.425057978185     1.279203653974     1.007825032230
         H           -2.597269434878     1.376389978185    -0.194452346026     1.007825032230
         H           -3.768833434878     0.053525978185    -0.171688346026     1.007825032230

  Basis Set: AUG-CC-PVTZ
    Blend: AUG-CC-PVTZ
  Basis Set: (AUG-CC-PVTZ AUX)
    Blend: AUG-CC-PVTZ-JKFIT
	 Reference Energy          =    -273.3140023383181756 [Eh]
	 Singles Energy            =      -0.0000000000000000 [Eh]
	 Same-Spin Energy          =      -0.2980387704690132 [Eh]
	 Opposite-Spin Energy      =      -1.0785353873041843 [Eh]
	 Correlation Energy        =      -1.3765741577731974 [Eh]
	 Total Energy              =    -274.6905764960913530 [Eh]

	 ================> DF-SCS-MP2 Energies <==================
	-----------------------------------------------------------
	 SCS Same-Spin Scale       =       0.3333333333333333 [-]
	 SCS Opposite-Spin Scale   =       1.2000000000000000 [-]
	 SCS Same-Spin Energy      =      -0.0993462568230044 [Eh]
	 SCS Opposite-Spin Energy  =      -1.2942424647650210 [Eh]
	 SCS Correlation Energy    =      -1.3935887215880254 [Eh]
	 SCS Total Energy          =    -274.7075910599061785 [Eh]
	-----------------------------------------------------------

  Dipole Moment: [D]
     X:     0.0472      Y:    -0.0278      Z:     0.0644     Total:     0.0846

*** Psi4 exiting successfully. Buy a developer a beer!
