                               Psi4 1.3.2 release

  ==> Input File <==

--------------------------------------------------------------------------
#psi4
#
memory 32 gb

molecule  {
0 1
  C       -0.2610382    -0.2362411     0.2784791
  C        0.8273080    -1.2201790    -0.1568800
  C        0.2651040     1.0998010    -0.2107530
  C        2.1130990    -0.4802110     0.2221390
  C        1.8015910     1.0121590    -0.0461820
  C       -1.6656960    -0.6060100    -0.2573320
  C       -2.7543930     0.3665140     0.1916780
  H       -0.3152930    -0.2454590     1.3709960
  H        0.7753790    -1.3637350    -1.2449700
  H        0.7413790    -2.2073630     0.3107570
  H       -0.1666070     1.9492740     0.3275400
  H        0.0028850     1.2252210    -1.2696860
  H        2.9896260    -0.8344780    -0.3294880
  H        2.3206340    -0.6367720     1.2866620
  H        2.1525340     1.6409000     0.7779560
  H        2.3101060     1.3673950    -0.9478660
  H       -1.9261760    -1.6212110     0.0690670
  H       -1.6246980    -0.6344010    -1.3548090
  H       -2.7974460     0.4229520     1.2842010
  H       -2.5674970     1.3742840    -0.1894550
  H       -3.7390610     0.0514200    -0.1666910
units angstrom
no_reorient  #important for SAPT in psi4, default
symmetry c1  #important for SAPT in psi4, default
}

set PROPERTIES_ORIGIN ["COM"]
properties('MP2/aug-cc-pvtz', properties = ['dipole'])
--------------------------------------------------------------------------

    Molecular point group: c1
  Charge       = 0
  Multiplicity = 1
  Basis Set: AUG-CC-PVTZ
    Blend: AUG-CC-PVTZ
  Basis Set: (AUG-CC-PVTZ AUX)
    Blend: AUG-CC-PVTZ-JKFIT

    Orbital Energies [Eh]
    ---------------------

    Doubly Occupied:

       1A    -11.214569     2A    -11.213968     3A    -11.211907
       4A    -11.211100     5A    -11.209559     6A    -11.209412
       7A    -11.208276     8A     -1.125906     9A     -1.031434
      10A     -0.956712    11A     -0.940052    12A     -0.831371
      13A     -0.771446    14A     -0.752627    15A     -0.653014
      16A     -0.629705    17A     -0.603596    18A     -0.569556
      19A     -0.556464    20A     -0.551408    21A     -0.512523
      22A     -0.484818    23A     -0.473501    24A     -0.464503
      25A     -0.453508    26A     -0.445366    27A     -0.441129
      28A     -0.435154

  @DF-RHF Final Energy:  -273.32480529670943

   => Energetics <=

    Nuclear Repulsion Energy =            322.8324349025168090
    One-Electron Energy =               -1007.9893100868039255
    Two-Electron Energy =                 411.8320698875777452
    Total Energy =                       -273.3248052967094281
  Basis Set: (AUG-CC-PVTZ AUX)
    Blend: AUG-CC-PVTZ-RI
    Molecular point group: c1

    Geometry (in Angstrom), charge = 0, multiplicity = 1:

       Center              X                  Y                   Z               Mass
    ------------   -----------------  -----------------  -----------------  -----------------
         C           -0.281964107745    -0.233405908403     0.276670813536    12.000000000000
         C            0.806382092255    -1.217343808403    -0.158688286464    12.000000000000
         C            0.244178092255     1.102636191597    -0.212561286464    12.000000000000
         C            2.092173092255    -0.477375808403     0.220330713536    12.000000000000
         C            1.780665092255     1.014994191597    -0.047990286464    12.000000000000
         C           -1.686621907745    -0.603174808403    -0.259140286464    12.000000000000
         C           -2.775318907745     0.369349191597     0.189869713536    12.000000000000
         H           -0.336218907745    -0.242623808403     1.369187713536     1.007825032230
         H            0.754453092255    -1.360899808403    -1.246778286464     1.007825032230
         H            0.720453092255    -2.204527808403     0.308948713536     1.007825032230
         H           -0.187532907745     1.952109191597     0.325731713536     1.007825032230
         H           -0.018040907745     1.228056191597    -1.271494286464     1.007825032230
         H            2.968700092255    -0.831642808403    -0.331296286464     1.007825032230
         H            2.299708092255    -0.633936808403     1.284853713536     1.007825032230
         H            2.131608092255     1.643735191597     0.776147713536     1.007825032230
         H            2.289180092255     1.370230191597    -0.949674286464     1.007825032230
         H           -1.947101907745    -1.618375808403     0.067258713536     1.007825032230
         H           -1.645623907745    -0.631565808403    -1.356617286464     1.007825032230
         H           -2.818371907745     0.425787191597     1.282392713536     1.007825032230
         H           -2.588422907745     1.377119191597    -0.191263286464     1.007825032230
         H           -3.759986907745     0.054255191597    -0.168499286464     1.007825032230

  Basis Set: AUG-CC-PVTZ
    Blend: AUG-CC-PVTZ
  Basis Set: (AUG-CC-PVTZ AUX)
    Blend: AUG-CC-PVTZ-JKFIT
	 Reference Energy          =    -273.3248052967094281 [Eh]
	 Singles Energy            =      -0.0000000000000000 [Eh]
	 Same-Spin Energy          =      -0.2971577911445565 [Eh]
	 Opposite-Spin Energy      =      -1.0772856709926910 [Eh]
	 Correlation Energy        =      -1.3744434621372474 [Eh]
	 Total Energy              =    -274.6992487588466929 [Eh]

	 ================> DF-SCS-MP2 Energies <==================
	-----------------------------------------------------------
	 SCS Same-Spin Scale       =       0.3333333333333333 [-]
	 SCS Opposite-Spin Scale   =       1.2000000000000000 [-]
	 SCS Same-Spin Energy      =      -0.0990525970481855 [Eh]
	 SCS Opposite-Spin Energy  =      -1.2927428051912291 [Eh]
	 SCS Correlation Energy    =      -1.3917954022394146 [Eh]
	 SCS Total Energy          =    -274.7166006989488665 [Eh]
	-----------------------------------------------------------

  Dipole Moment: [D]
     X:    -0.0028      Y:    -0.0440      Z:     0.0548     Total:     0.0704

*** Psi4 exiting successfully. Buy a developer a beer!
