                               Psi4 1.3.2 release

  ==> Input File <==

--------------------------------------------------------------------------
#psi4
#
memory 32 gb

molecule  {
0 1
  C       -0.2838573    -0.2058246     0.2465379
  C        0.8273080    -1.2201790    -0.1568800
  C        0.2651040     1.0998010    -0.2107530
  C        2.1130990    -0.4802110     0.2221390
  C        1.8015910     1.0121590    -0.0461820
  C       -1.6656960    -0.6060100    -0.2573320
  C       -2.7543930     0.3665140     0.1916780
  H       -0.3152930    -0.2454590     1.3709960
  H        0.7753790    -1.3637350    -1.2449700
  H        0.7413790    -2.2073630     0.3107570
  H       -0.1666070     1.9492740     0.3275400
  H        0.0028850     1.2252210    -1.2696860
  H        2.9896260    -0.8344780    -0.3294880
  H        2.3206340    -0.6367720     1.2866620
  H        2.1525340     1.6409000     0.7779560
  H        2.3101060     1.3673950    -0.9478660
  H       -1.9261760    -1.6212110     0.0690670
  H       -1.6246980    -0.6344010    -1.3548090
  H       -2.7974460     0.4229520     1.2842010
  H       -2.5674970     1.3742840    -0.1894550
  H       -3.7390610     0.0514200    -0.1666910
units angstrom
no_reorient  #important for SAPT in psi4, default
symmetry c1  #important for SAPT in psi4, default
}

set PROPERTIES_ORIGIN ["COM"]
properties('MP2/aug-cc-pvtz', properties = ['dipole'])
--------------------------------------------------------------------------

    Molecular point group: c1
  Charge       = 0
  Multiplicity = 1
  Basis Set: AUG-CC-PVTZ
    Blend: AUG-CC-PVTZ
  Basis Set: (AUG-CC-PVTZ AUX)
    Blend: AUG-CC-PVTZ-JKFIT

    Orbital Energies [Eh]
    ---------------------

    Doubly Occupied:

       1A    -11.216143     2A    -11.214044     3A    -11.212825
       4A    -11.211324     5A    -11.210296     6A    -11.209123
       7A    -11.208309     8A     -1.126868     9A     -1.034330
      10A     -0.957154    11A     -0.940467    12A     -0.833987
      13A     -0.772094    14A     -0.747797    15A     -0.653651
      16A     -0.631820    17A     -0.604801    18A     -0.568572
      19A     -0.554443    20A     -0.552190    21A     -0.515333
      22A     -0.485767    23A     -0.473769    24A     -0.465532
      25A     -0.452939    26A     -0.450513    27A     -0.439206
      28A     -0.429105

  @DF-RHF Final Energy:  -273.32242664552854

   => Energetics <=

    Nuclear Repulsion Energy =            323.0241168924875979
    One-Electron Energy =               -1008.3482862454125097
    Two-Electron Energy =                 412.0017427073963177
    Total Energy =                       -273.3224266455285374
  Basis Set: (AUG-CC-PVTZ AUX)
    Blend: AUG-CC-PVTZ-RI
    Molecular point group: c1

    Geometry (in Angstrom), charge = 0, multiplicity = 1:

       Center              X                  Y                   Z               Mass
    ------------   -----------------  -----------------  -----------------  -----------------
         C           -0.301992152249    -0.206709718998     0.248636413620    12.000000000000
         C            0.809173147751    -1.221064118998    -0.154781486380    12.000000000000
         C            0.246969147751     1.098915881002    -0.208654486380    12.000000000000
         C            2.094964147751    -0.481096118998     0.224237513620    12.000000000000
         C            1.783456147751     1.011273881002    -0.044083486380    12.000000000000
         C           -1.683830852249    -0.606895118998    -0.255233486380    12.000000000000
         C           -2.772527852249     0.365628881002     0.193776513620    12.000000000000
         H           -0.333427852249    -0.246344118998     1.373094513620     1.007825032230
         H            0.757244147751    -1.364620118998    -1.242871486380     1.007825032230
         H            0.723244147751    -2.208248118998     0.312855513620     1.007825032230
         H           -0.184741852249     1.948388881002     0.329638513620     1.007825032230
         H           -0.015249852249     1.224335881002    -1.267587486380     1.007825032230
         H            2.971491147751    -0.835363118998    -0.327389486380     1.007825032230
         H            2.302499147751    -0.637657118998     1.288760513620     1.007825032230
         H            2.134399147751     1.640014881002     0.780054513620     1.007825032230
         H            2.291971147751     1.366509881002    -0.945767486380     1.007825032230
         H           -1.944310852249    -1.622096118998     0.071165513620     1.007825032230
         H           -1.642832852249    -0.635286118998    -1.352710486380     1.007825032230
         H           -2.815580852249     0.422066881002     1.286299513620     1.007825032230
         H           -2.585631852249     1.373398881002    -0.187356486380     1.007825032230
         H           -3.757195852249     0.050534881002    -0.164592486380     1.007825032230

  Basis Set: AUG-CC-PVTZ
    Blend: AUG-CC-PVTZ
  Basis Set: (AUG-CC-PVTZ AUX)
    Blend: AUG-CC-PVTZ-JKFIT
	 Reference Energy          =    -273.3224266455285374 [Eh]
	 Singles Energy            =      -0.0000000000000000 [Eh]
	 Same-Spin Energy          =      -0.2974175995813914 [Eh]
	 Opposite-Spin Energy      =      -1.0776383769231332 [Eh]
	 Correlation Energy        =      -1.3750559765045245 [Eh]
	 Total Energy              =    -274.6974826220330783 [Eh]

	 ================> DF-SCS-MP2 Energies <==================
	-----------------------------------------------------------
	 SCS Same-Spin Scale       =       0.3333333333333333 [-]
	 SCS Opposite-Spin Scale   =       1.2000000000000000 [-]
	 SCS Same-Spin Energy      =      -0.0991391998604638 [Eh]
	 SCS Opposite-Spin Energy  =      -1.2931660523077599 [Eh]
	 SCS Correlation Energy    =      -1.3923052521682238 [Eh]
	 SCS Total Energy          =    -274.7147318976967654 [Eh]
	-----------------------------------------------------------

  Dipole Moment: [D]
     X:    -0.0020      Y:    -0.0366      Z:     0.0344     Total:     0.0502

*** Psi4 exiting successfully. Buy a developer a beer!
