                               Psi4 1.3.2 release

  ==> Input File <==

--------------------------------------------------------------------------
#psi4
#
memory 32 gb

molecule  {
0 1
  C       -0.2796410    -0.2534110     0.2699600
  C        0.8273080    -1.2201790    -0.1568800
  C        0.2651040     1.0998010    -0.2107530
  C        2.1130990    -0.4802110     0.2221390
  C        1.8015910     1.0121590    -0.0461820
  C       -1.7566262    -0.6291418    -0.2919242
  C       -2.7543930     0.3665140     0.1916780
  H       -0.3152930    -0.2454590     1.3709960
  H        0.7753790    -1.3637350    -1.2449700
  H        0.7413790    -2.2073630     0.3107570
  H       -0.1666070     1.9492740     0.3275400
  H        0.0028850     1.2252210    -1.2696860
  H        2.9896260    -0.8344780    -0.3294880
  H        2.3206340    -0.6367720     1.2866620
  H        2.1525340     1.6409000     0.7779560
  H        2.3101060     1.3673950    -0.9478660
  H       -1.9261760    -1.6212110     0.0690670
  H       -1.6246980    -0.6344010    -1.3548090
  H       -2.7974460     0.4229520     1.2842010
  H       -2.5674970     1.3742840    -0.1894550
  H       -3.7390610     0.0514200    -0.1666910
units angstrom
no_reorient  #important for SAPT in psi4, default
symmetry c1  #important for SAPT in psi4, default
}

set PROPERTIES_ORIGIN ["COM"]
properties('MP2/aug-cc-pvtz', properties = ['dipole'])
--------------------------------------------------------------------------

    Molecular point group: c1
  Charge       = 0
  Multiplicity = 1
  Basis Set: AUG-CC-PVTZ
    Blend: AUG-CC-PVTZ
  Basis Set: (AUG-CC-PVTZ AUX)
    Blend: AUG-CC-PVTZ-JKFIT

    Orbital Energies [Eh]
    ---------------------

    Doubly Occupied:

       1A    -11.217550     2A    -11.212145     3A    -11.211647
       4A    -11.210999     5A    -11.209539     6A    -11.208969
       7A    -11.207566     8A     -1.119730     9A     -1.034838
      10A     -0.954764    11A     -0.938960    12A     -0.832286
      13A     -0.769212    14A     -0.750972    15A     -0.650777
      16A     -0.625184    17A     -0.610848    18A     -0.567706
      19A     -0.557579    20A     -0.551168    21A     -0.522794
      22A     -0.491549    23A     -0.471627    24A     -0.463698
      25A     -0.452757    26A     -0.445287    27A     -0.442193
      28A     -0.416716

  @DF-RHF Final Energy:  -273.31748966898829

   => Energetics <=

    Nuclear Repulsion Energy =            321.6020824134582199
    One-Electron Energy =               -1005.5410253067373105
    Two-Electron Energy =                 410.6214532242908035
    Total Energy =                       -273.3174896689882871
  Basis Set: (AUG-CC-PVTZ AUX)
    Blend: AUG-CC-PVTZ-RI
    Molecular point group: c1

    Geometry (in Angstrom), charge = 0, multiplicity = 1:

       Center              X                  Y                   Z               Mass
    ------------   -----------------  -----------------  -----------------  -----------------
         C           -0.287169679912    -0.245646416741     0.273424753700    12.000000000000
         C            0.819779320088    -1.212414416741    -0.153415246300    12.000000000000
         C            0.257575320088     1.107565583259    -0.207288246300    12.000000000000
         C            2.105570320088    -0.472446416741     0.225603753700    12.000000000000
         C            1.794062320088     1.019923583259    -0.042717246300    12.000000000000
         C           -1.764154879912    -0.621377216741    -0.288459446300    12.000000000000
         C           -2.761921679912     0.374278583259     0.195142753700    12.000000000000
         H           -0.322821679912    -0.237694416741     1.374460753700     1.007825032230
         H            0.767850320088    -1.355970416741    -1.241505246300     1.007825032230
         H            0.733850320088    -2.199598416741     0.314221753700     1.007825032230
         H           -0.174135679912     1.957038583259     0.331004753700     1.007825032230
         H           -0.004643679912     1.232985583259    -1.266221246300     1.007825032230
         H            2.982097320088    -0.826713416741    -0.326023246300     1.007825032230
         H            2.313105320088    -0.629007416741     1.290126753700     1.007825032230
         H            2.145005320088     1.648664583259     0.781420753700     1.007825032230
         H            2.302577320088     1.375159583259    -0.944401246300     1.007825032230
         H           -1.933704679912    -1.613446416741     0.072531753700     1.007825032230
         H           -1.632226679912    -0.626636416741    -1.351344246300     1.007825032230
         H           -2.804974679912     0.430716583259     1.287665753700     1.007825032230
         H           -2.575025679912     1.382048583259    -0.185990246300     1.007825032230
         H           -3.746589679912     0.059184583259    -0.163226246300     1.007825032230

  Basis Set: AUG-CC-PVTZ
    Blend: AUG-CC-PVTZ
  Basis Set: (AUG-CC-PVTZ AUX)
    Blend: AUG-CC-PVTZ-JKFIT
	 Reference Energy          =    -273.3174896689882871 [Eh]
	 Singles Energy            =      -0.0000000000000000 [Eh]
	 Same-Spin Energy          =      -0.2971573320628910 [Eh]
	 Opposite-Spin Energy      =      -1.0775871908847627 [Eh]
	 Correlation Energy        =      -1.3747445229476538 [Eh]
	 Total Energy              =    -274.6922341919359383 [Eh]

	 ================> DF-SCS-MP2 Energies <==================
	-----------------------------------------------------------
	 SCS Same-Spin Scale       =       0.3333333333333333 [-]
	 SCS Opposite-Spin Scale   =       1.2000000000000000 [-]
	 SCS Same-Spin Energy      =      -0.0990524440209637 [Eh]
	 SCS Opposite-Spin Energy  =      -1.2931046290617152 [Eh]
	 SCS Correlation Energy    =      -1.3921570730826789 [Eh]
	 SCS Total Energy          =    -274.7096467420709587 [Eh]
	-----------------------------------------------------------

  Dipole Moment: [D]
     X:    -0.0438      Y:    -0.0500      Z:     0.0470     Total:     0.0814

*** Psi4 exiting successfully. Buy a developer a beer!
