                               Psi4 1.3.2 release

  ==> Input File <==

--------------------------------------------------------------------------
#psi4
#
memory 32 gb

molecule  {
0 1
  C       -0.2796410    -0.2534110     0.2699600
  C        0.8372668    -1.2300577    -0.1053358
  C        0.2651040     1.0998010    -0.2107530
  C        2.1130990    -0.4802110     0.2221390
  C        1.8015910     1.0121590    -0.0461820
  C       -1.6656960    -0.6060100    -0.2573320
  C       -2.7543930     0.3665140     0.1916780
  H       -0.3152930    -0.2454590     1.3709960
  H        0.7753790    -1.3637350    -1.2449700
  H        0.7413790    -2.2073630     0.3107570
  H       -0.1666070     1.9492740     0.3275400
  H        0.0028850     1.2252210    -1.2696860
  H        2.9896260    -0.8344780    -0.3294880
  H        2.3206340    -0.6367720     1.2866620
  H        2.1525340     1.6409000     0.7779560
  H        2.3101060     1.3673950    -0.9478660
  H       -1.9261760    -1.6212110     0.0690670
  H       -1.6246980    -0.6344010    -1.3548090
  H       -2.7974460     0.4229520     1.2842010
  H       -2.5674970     1.3742840    -0.1894550
  H       -3.7390610     0.0514200    -0.1666910
units angstrom
no_reorient  #important for SAPT in psi4, default
symmetry c1  #important for SAPT in psi4, default
}

set PROPERTIES_ORIGIN ["COM"]
properties('MP2/aug-cc-pvtz', properties = ['dipole'])
--------------------------------------------------------------------------

    Molecular point group: c1
  Charge       = 0
  Multiplicity = 1
  Basis Set: AUG-CC-PVTZ
    Blend: AUG-CC-PVTZ
  Basis Set: (AUG-CC-PVTZ AUX)
    Blend: AUG-CC-PVTZ-JKFIT

    Orbital Energies [Eh]
    ---------------------

    Doubly Occupied:

       1A    -11.215299     2A    -11.213993     3A    -11.212729
       4A    -11.211519     5A    -11.210876     6A    -11.210642
       7A    -11.209027     8A     -1.125273     9A     -1.034533
      10A     -0.957983    11A     -0.939936    12A     -0.833795
      13A     -0.769827    14A     -0.751449    15A     -0.655453
      16A     -0.630795    17A     -0.604673    18A     -0.565899
      19A     -0.555602    20A     -0.551806    21A     -0.513753
      22A     -0.484055    23A     -0.481325    24A     -0.465566
      25A     -0.447313    26A     -0.443544    27A     -0.440300
      28A     -0.436532

  @DF-RHF Final Energy:  -273.32233032014597

   => Energetics <=

    Nuclear Repulsion Energy =            322.7526616430509421
    One-Electron Energy =               -1007.8029873976922772
    Two-Electron Energy =                 411.7279954344953694
    Total Energy =                       -273.3223303201459657
  Basis Set: (AUG-CC-PVTZ AUX)
    Blend: AUG-CC-PVTZ-RI
    Molecular point group: c1

    Geometry (in Angstrom), charge = 0, multiplicity = 1:

       Center              X                  Y                   Z               Mass
    ------------   -----------------  -----------------  -----------------  -----------------
         C           -0.299509640644    -0.247267433240     0.262889216688    12.000000000000
         C            0.817398159356    -1.223914133240    -0.112406583312    12.000000000000
         C            0.245235359356     1.105944566760    -0.217823783312    12.000000000000
         C            2.093230359356    -0.474067433240     0.215068216688    12.000000000000
         C            1.781722359356     1.018302566760    -0.053252783312    12.000000000000
         C           -1.685564640644    -0.599866433240    -0.264402783312    12.000000000000
         C           -2.774261640644     0.372657566760     0.184607216688    12.000000000000
         H           -0.335161640644    -0.239315433240     1.363925216688     1.007825032230
         H            0.755510359356    -1.357591433240    -1.252040783312     1.007825032230
         H            0.721510359356    -2.201219433240     0.303686216688     1.007825032230
         H           -0.186475640644     1.955417566760     0.320469216688     1.007825032230
         H           -0.016983640644     1.231364566760    -1.276756783312     1.007825032230
         H            2.969757359356    -0.828334433240    -0.336558783312     1.007825032230
         H            2.300765359356    -0.630628433240     1.279591216688     1.007825032230
         H            2.132665359356     1.647043566760     0.770885216688     1.007825032230
         H            2.290237359356     1.373538566760    -0.954936783312     1.007825032230
         H           -1.946044640644    -1.615067433240     0.061996216688     1.007825032230
         H           -1.644566640644    -0.628257433240    -1.361879783312     1.007825032230
         H           -2.817314640644     0.429095566760     1.277130216688     1.007825032230
         H           -2.587365640644     1.380427566760    -0.196525783312     1.007825032230
         H           -3.758929640644     0.057563566760    -0.173761783312     1.007825032230

  Basis Set: AUG-CC-PVTZ
    Blend: AUG-CC-PVTZ
  Basis Set: (AUG-CC-PVTZ AUX)
    Blend: AUG-CC-PVTZ-JKFIT
	 Reference Energy          =    -273.3223303201459657 [Eh]
	 Singles Energy            =      -0.0000000000000000 [Eh]
	 Same-Spin Energy          =      -0.2972604825914562 [Eh]
	 Opposite-Spin Energy      =      -1.0774978143928700 [Eh]
	 Correlation Energy        =      -1.3747582969843262 [Eh]
	 Total Energy              =    -274.6970886171303050 [Eh]

	 ================> DF-SCS-MP2 Energies <==================
	-----------------------------------------------------------
	 SCS Same-Spin Scale       =       0.3333333333333333 [-]
	 SCS Opposite-Spin Scale   =       1.2000000000000000 [-]
	 SCS Same-Spin Energy      =      -0.0990868275304854 [Eh]
	 SCS Opposite-Spin Energy  =      -1.2929973772714438 [Eh]
	 SCS Correlation Energy    =      -1.3920842048019293 [Eh]
	 SCS Total Energy          =    -274.7144145249478697 [Eh]
	-----------------------------------------------------------

  Dipole Moment: [D]
     X:    -0.0125      Y:    -0.0423      Z:     0.0907     Total:     0.1009

*** Psi4 exiting successfully. Buy a developer a beer!
