                               Psi4 1.3.2 release

  ==> Input File <==

--------------------------------------------------------------------------
#psi4
#
memory 32 gb

molecule  {
0 1
  C       -0.2796410    -0.2534110     0.2699600
  C        0.7893963    -1.1835311    -0.3081444
  C        0.2651040     1.0998010    -0.2107530
  C        2.1130990    -0.4802110     0.2221390
  C        1.8015910     1.0121590    -0.0461820
  C       -1.6656960    -0.6060100    -0.2573320
  C       -2.7543930     0.3665140     0.1916780
  H       -0.3152930    -0.2454590     1.3709960
  H        0.7753790    -1.3637350    -1.2449700
  H        0.7413790    -2.2073630     0.3107570
  H       -0.1666070     1.9492740     0.3275400
  H        0.0028850     1.2252210    -1.2696860
  H        2.9896260    -0.8344780    -0.3294880
  H        2.3206340    -0.6367720     1.2866620
  H        2.1525340     1.6409000     0.7779560
  H        2.3101060     1.3673950    -0.9478660
  H       -1.9261760    -1.6212110     0.0690670
  H       -1.6246980    -0.6344010    -1.3548090
  H       -2.7974460     0.4229520     1.2842010
  H       -2.5674970     1.3742840    -0.1894550
  H       -3.7390610     0.0514200    -0.1666910
units angstrom
no_reorient  #important for SAPT in psi4, default
symmetry c1  #important for SAPT in psi4, default
}

set PROPERTIES_ORIGIN ["COM"]
properties('MP2/aug-cc-pvtz', properties = ['dipole'])
--------------------------------------------------------------------------

    Molecular point group: c1
  Charge       = 0
  Multiplicity = 1
  Basis Set: AUG-CC-PVTZ
    Blend: AUG-CC-PVTZ
  Basis Set: (AUG-CC-PVTZ AUX)
    Blend: AUG-CC-PVTZ-JKFIT

    Orbital Energies [Eh]
    ---------------------

    Doubly Occupied:

       1A    -11.216710     2A    -11.215050     3A    -11.212826
       4A    -11.210673     5A    -11.210135     6A    -11.209546
       7A    -11.208162     8A     -1.124371     9A     -1.032516
      10A     -0.953841    11A     -0.938535    12A     -0.835578
      13A     -0.784667    14A     -0.750861    15A     -0.642460
      16A     -0.632603    17A     -0.604852    18A     -0.581417
      19A     -0.560089    20A     -0.550703    21A     -0.513461
      22A     -0.493736    23A     -0.473046    24A     -0.464672
      25A     -0.447620    26A     -0.446132    27A     -0.433122
      28A     -0.422847

  @DF-RHF Final Energy:  -273.29364194801389

   => Energetics <=

    Nuclear Repulsion Energy =            322.8212437480917743
    One-Electron Energy =               -1007.8893064939827582
    Two-Electron Energy =                 411.7744207978770987
    Total Energy =                       -273.2936419480138852
  Basis Set: (AUG-CC-PVTZ AUX)
    Blend: AUG-CC-PVTZ-RI
    Molecular point group: c1

    Geometry (in Angstrom), charge = 0, multiplicity = 1:

       Center              X                  Y                   Z               Mass
    ------------   -----------------  -----------------  -----------------  -----------------
         C           -0.293654492013    -0.252958206436     0.287695193158    12.000000000000
         C            0.775382807987    -1.183078306436    -0.290409206842    12.000000000000
         C            0.251090507987     1.100253793564    -0.193017806842    12.000000000000
         C            2.099085507987    -0.479758206436     0.239874193158    12.000000000000
         C            1.787577507987     1.012611793564    -0.028446806842    12.000000000000
         C           -1.679709492013    -0.605557206436    -0.239596806842    12.000000000000
         C           -2.768406492013     0.366966793564     0.209413193158    12.000000000000
         H           -0.329306492013    -0.245006206436     1.388731193158     1.007825032230
         H            0.761365507987    -1.363282206436    -1.227234806842     1.007825032230
         H            0.727365507987    -2.206910206436     0.328492193158     1.007825032230
         H           -0.180620492013     1.949726793564     0.345275193158     1.007825032230
         H           -0.011128492013     1.225673793564    -1.251950806842     1.007825032230
         H            2.975612507987    -0.834025206436    -0.311752806842     1.007825032230
         H            2.306620507987    -0.636319206436     1.304397193158     1.007825032230
         H            2.138520507987     1.641352793564     0.795691193158     1.007825032230
         H            2.296092507987     1.367847793564    -0.930130806842     1.007825032230
         H           -1.940189492013    -1.620758206436     0.086802193158     1.007825032230
         H           -1.638711492013    -0.633948206436    -1.337073806842     1.007825032230
         H           -2.811459492013     0.423404793564     1.301936193158     1.007825032230
         H           -2.581510492013     1.374736793564    -0.171719806842     1.007825032230
         H           -3.753074492013     0.051872793564    -0.148955806842     1.007825032230

  Basis Set: AUG-CC-PVTZ
    Blend: AUG-CC-PVTZ
  Basis Set: (AUG-CC-PVTZ AUX)
    Blend: AUG-CC-PVTZ-JKFIT
	 Reference Energy          =    -273.2936419480138852 [Eh]
	 Singles Energy            =      -0.0000000000000000 [Eh]
	 Same-Spin Energy          =      -0.2974948341197611 [Eh]
	 Opposite-Spin Energy      =      -1.0786976221663562 [Eh]
	 Correlation Energy        =      -1.3761924562861174 [Eh]
	 Total Energy              =    -274.6698344042999906 [Eh]

	 ================> DF-SCS-MP2 Energies <==================
	-----------------------------------------------------------
	 SCS Same-Spin Scale       =       0.3333333333333333 [-]
	 SCS Opposite-Spin Scale   =       1.2000000000000000 [-]
	 SCS Same-Spin Energy      =      -0.0991649447065870 [Eh]
	 SCS Opposite-Spin Energy  =      -1.2944371465996274 [Eh]
	 SCS Correlation Energy    =      -1.3936020913062144 [Eh]
	 SCS Total Energy          =    -274.6872440393200918 [Eh]
	-----------------------------------------------------------

  Dipole Moment: [D]
     X:     0.0005      Y:     0.0024      Z:    -0.0145     Total:     0.0147

*** Psi4 exiting successfully. Buy a developer a beer!
