                               Psi4 1.3.2 release

  ==> Input File <==

--------------------------------------------------------------------------
#psi4
#
memory 32 gb

molecule  {
0 1
  C       -0.2796410    -0.2534110     0.2699600
  C        0.8132383    -1.2404419    -0.1466377
  C        0.2651040     1.0998010    -0.2107530
  C        2.1130990    -0.4802110     0.2221390
  C        1.8015910     1.0121590    -0.0461820
  C       -1.6656960    -0.6060100    -0.2573320
  C       -2.7543930     0.3665140     0.1916780
  H       -0.3152930    -0.2454590     1.3709960
  H        0.7753790    -1.3637350    -1.2449700
  H        0.7413790    -2.2073630     0.3107570
  H       -0.1666070     1.9492740     0.3275400
  H        0.0028850     1.2252210    -1.2696860
  H        2.9896260    -0.8344780    -0.3294880
  H        2.3206340    -0.6367720     1.2866620
  H        2.1525340     1.6409000     0.7779560
  H        2.3101060     1.3673950    -0.9478660
  H       -1.9261760    -1.6212110     0.0690670
  H       -1.6246980    -0.6344010    -1.3548090
  H       -2.7974460     0.4229520     1.2842010
  H       -2.5674970     1.3742840    -0.1894550
  H       -3.7390610     0.0514200    -0.1666910
units angstrom
no_reorient  #important for SAPT in psi4, default
symmetry c1  #important for SAPT in psi4, default
}

set PROPERTIES_ORIGIN ["COM"]
properties('MP2/aug-cc-pvtz', properties = ['dipole'])
--------------------------------------------------------------------------

    Molecular point group: c1
  Charge       = 0
  Multiplicity = 1
  Basis Set: AUG-CC-PVTZ
    Blend: AUG-CC-PVTZ
  Basis Set: (AUG-CC-PVTZ AUX)
    Blend: AUG-CC-PVTZ-JKFIT

    Orbital Energies [Eh]
    ---------------------

    Doubly Occupied:

       1A    -11.215087     2A    -11.213272     3A    -11.212489
       4A    -11.211923     5A    -11.210482     6A    -11.209202
       7A    -11.208480     8A     -1.122979     9A     -1.032993
      10A     -0.956189    11A     -0.938861    12A     -0.833531
      13A     -0.771711    14A     -0.751123    15A     -0.653896
      16A     -0.628779    17A     -0.604130    18A     -0.568574
      19A     -0.556005    20A     -0.551499    21A     -0.513359
      22A     -0.485193    23A     -0.475361    24A     -0.465089
      25A     -0.449957    26A     -0.445624    27A     -0.440715
      28A     -0.435519

  @DF-RHF Final Energy:  -273.32487373323113

   => Energetics <=

    Nuclear Repulsion Energy =            322.5327448728834270
    One-Electron Energy =               -1007.3911936406834684
    Two-Electron Energy =                 411.5335750345689121
    Total Energy =                       -273.3248737332311293
  Basis Set: (AUG-CC-PVTZ AUX)
    Blend: AUG-CC-PVTZ-RI
    Molecular point group: c1

    Geometry (in Angstrom), charge = 0, multiplicity = 1:

       Center              X                  Y                   Z               Mass
    ------------   -----------------  -----------------  -----------------  -----------------
         C           -0.296570660711    -0.245997318359     0.267940945064    12.000000000000
         C            0.796308639289    -1.233028218359    -0.148656754936    12.000000000000
         C            0.248174339289     1.107214681641    -0.212772054936    12.000000000000
         C            2.096169339289    -0.472797318359     0.220119945064    12.000000000000
         C            1.784661339289     1.019572681641    -0.048201054936    12.000000000000
         C           -1.682625660711    -0.598596318359    -0.259351054936    12.000000000000
         C           -2.771322660711     0.373927681641     0.189658945064    12.000000000000
         H           -0.332222660711    -0.238045318359     1.368976945064     1.007825032230
         H            0.758449339289    -1.356321318359    -1.246989054936     1.007825032230
         H            0.724449339289    -2.199949318359     0.308737945064     1.007825032230
         H           -0.183536660711     1.956687681641     0.325520945064     1.007825032230
         H           -0.014044660711     1.232634681641    -1.271705054936     1.007825032230
         H            2.972696339289    -0.827064318359    -0.331507054936     1.007825032230
         H            2.303704339289    -0.629358318359     1.284642945064     1.007825032230
         H            2.135604339289     1.648313681641     0.775936945064     1.007825032230
         H            2.293176339289     1.374808681641    -0.949885054936     1.007825032230
         H           -1.943105660711    -1.613797318359     0.067047945064     1.007825032230
         H           -1.641627660711    -0.626987318359    -1.356828054936     1.007825032230
         H           -2.814375660711     0.430365681641     1.282181945064     1.007825032230
         H           -2.584426660711     1.381697681641    -0.191474054936     1.007825032230
         H           -3.755990660711     0.058833681641    -0.168710054936     1.007825032230

  Basis Set: AUG-CC-PVTZ
    Blend: AUG-CC-PVTZ
  Basis Set: (AUG-CC-PVTZ AUX)
    Blend: AUG-CC-PVTZ-JKFIT
	 Reference Energy          =    -273.3248737332311293 [Eh]
	 Singles Energy            =      -0.0000000000000000 [Eh]
	 Same-Spin Energy          =      -0.2970501348969490 [Eh]
	 Opposite-Spin Energy      =      -1.0772821284094212 [Eh]
	 Correlation Energy        =      -1.3743322633063701 [Eh]
	 Total Energy              =    -274.6992059965375006 [Eh]

	 ================> DF-SCS-MP2 Energies <==================
	-----------------------------------------------------------
	 SCS Same-Spin Scale       =       0.3333333333333333 [-]
	 SCS Opposite-Spin Scale   =       1.2000000000000000 [-]
	 SCS Same-Spin Energy      =      -0.0990167116323163 [Eh]
	 SCS Opposite-Spin Energy  =      -1.2927385540913054 [Eh]
	 SCS Correlation Energy    =      -1.3917552657236218 [Eh]
	 SCS Total Energy          =    -274.7166289989547749 [Eh]
	-----------------------------------------------------------

  Dipole Moment: [D]
     X:    -0.0078      Y:    -0.0518      Z:     0.0602     Total:     0.0798

*** Psi4 exiting successfully. Buy a developer a beer!
