                               Psi4 1.3.2 release

  ==> Input File <==

--------------------------------------------------------------------------
#psi4
#
memory 32 gb

molecule  {
0 1
  C       -0.2796410    -0.2534110     0.2699600
  C        0.9045025    -1.0926394    -0.2154970
  C        0.2651040     1.0998010    -0.2107530
  C        2.1130990    -0.4802110     0.2221390
  C        1.8015910     1.0121590    -0.0461820
  C       -1.6656960    -0.6060100    -0.2573320
  C       -2.7543930     0.3665140     0.1916780
  H       -0.3152930    -0.2454590     1.3709960
  H        0.7753790    -1.3637350    -1.2449700
  H        0.7413790    -2.2073630     0.3107570
  H       -0.1666070     1.9492740     0.3275400
  H        0.0028850     1.2252210    -1.2696860
  H        2.9896260    -0.8344780    -0.3294880
  H        2.3206340    -0.6367720     1.2866620
  H        2.1525340     1.6409000     0.7779560
  H        2.3101060     1.3673950    -0.9478660
  H       -1.9261760    -1.6212110     0.0690670
  H       -1.6246980    -0.6344010    -1.3548090
  H       -2.7974460     0.4229520     1.2842010
  H       -2.5674970     1.3742840    -0.1894550
  H       -3.7390610     0.0514200    -0.1666910
units angstrom
no_reorient  #important for SAPT in psi4, default
symmetry c1  #important for SAPT in psi4, default
}

set PROPERTIES_ORIGIN ["COM"]
properties('MP2/aug-cc-pvtz', properties = ['dipole'])
--------------------------------------------------------------------------

    Molecular point group: c1
  Charge       = 0
  Multiplicity = 1
  Basis Set: AUG-CC-PVTZ
    Blend: AUG-CC-PVTZ
  Basis Set: (AUG-CC-PVTZ AUX)
    Blend: AUG-CC-PVTZ-JKFIT

    Orbital Energies [Eh]
    ---------------------

    Doubly Occupied:

       1A    -11.216912     2A    -11.216158     3A    -11.215439
       4A    -11.212074     5A    -11.210643     6A    -11.209410
       7A    -11.208151     8A     -1.138806     9A     -1.040553
      10A     -0.959619    11A     -0.941674    12A     -0.835182
      13A     -0.769185    14A     -0.754576    15A     -0.645180
      16A     -0.640427    17A     -0.609008    18A     -0.574609
      19A     -0.560828    20A     -0.557463    21A     -0.512786
      22A     -0.489929    23A     -0.478635    24A     -0.464034
      25A     -0.453021    26A     -0.447078    27A     -0.436620
      28A     -0.415114

  @DF-RHF Final Energy:  -273.29805806010967

   => Energetics <=

    Nuclear Repulsion Energy =            324.3048589368984267
    One-Electron Energy =               -1010.7796049902030973
    Two-Electron Energy =                 413.1766879931950029
    Total Energy =                       -273.2980580601096676
  Basis Set: (AUG-CC-PVTZ AUX)
    Blend: AUG-CC-PVTZ-RI
    Molecular point group: c1

    Geometry (in Angstrom), charge = 0, multiplicity = 1:

       Center              X                  Y                   Z               Mass
    ------------   -----------------  -----------------  -----------------  -----------------
         C           -0.307733390486    -0.264075374897     0.276363281077    12.000000000000
         C            0.876410109514    -1.103303774897    -0.209093718923    12.000000000000
         C            0.237011609514     1.089136625103    -0.204349718923    12.000000000000
         C            2.085006609514    -0.490875374897     0.228542281077    12.000000000000
         C            1.773498609514     1.001494625103    -0.039778718923    12.000000000000
         C           -1.693788390486    -0.616674374897    -0.250928718923    12.000000000000
         C           -2.782485390486     0.355849625103     0.198081281077    12.000000000000
         H           -0.343385390486    -0.256123374897     1.377399281077     1.007825032230
         H            0.747286609514    -1.374399374897    -1.238566718923     1.007825032230
         H            0.713286609514    -2.218027374897     0.317160281077     1.007825032230
         H           -0.194699390486     1.938609625103     0.333943281077     1.007825032230
         H           -0.025207390486     1.214556625103    -1.263282718923     1.007825032230
         H            2.961533609514    -0.845142374897    -0.323084718923     1.007825032230
         H            2.292541609514    -0.647436374897     1.293065281077     1.007825032230
         H            2.124441609514     1.630235625103     0.784359281077     1.007825032230
         H            2.282013609514     1.356730625103    -0.941462718923     1.007825032230
         H           -1.954268390486    -1.631875374897     0.075470281077     1.007825032230
         H           -1.652790390486    -0.645065374897    -1.348405718923     1.007825032230
         H           -2.825538390486     0.412287625103     1.290604281077     1.007825032230
         H           -2.595589390486     1.363619625103    -0.183051718923     1.007825032230
         H           -3.767153390486     0.040755625103    -0.160287718923     1.007825032230

  Basis Set: AUG-CC-PVTZ
    Blend: AUG-CC-PVTZ
  Basis Set: (AUG-CC-PVTZ AUX)
    Blend: AUG-CC-PVTZ-JKFIT
	 Reference Energy          =    -273.2980580601096676 [Eh]
	 Singles Energy            =      -0.0000000000000000 [Eh]
	 Same-Spin Energy          =      -0.2987108861907753 [Eh]
	 Opposite-Spin Energy      =      -1.0792830119696801 [Eh]
	 Correlation Energy        =      -1.3779938981604554 [Eh]
	 Total Energy              =    -274.6760519582701363 [Eh]

	 ================> DF-SCS-MP2 Energies <==================
	-----------------------------------------------------------
	 SCS Same-Spin Scale       =       0.3333333333333333 [-]
	 SCS Opposite-Spin Scale   =       1.2000000000000000 [-]
	 SCS Same-Spin Energy      =      -0.0995702953969251 [Eh]
	 SCS Opposite-Spin Energy  =      -1.2951396143636160 [Eh]
	 SCS Correlation Energy    =      -1.3947099097605411 [Eh]
	 SCS Total Energy          =    -274.6927679698702036 [Eh]
	-----------------------------------------------------------

  Dipole Moment: [D]
     X:    -0.0073      Y:     0.0699      Z:    -0.0144     Total:     0.0717

*** Psi4 exiting successfully. Buy a developer a beer!
