                               Psi4 1.3.2 release

  ==> Input File <==

--------------------------------------------------------------------------
#psi4
#
memory 32 gb

molecule  {
0 1
  C       -0.2796410    -0.2534110     0.2699600
  C        0.8960811    -1.1599111    -0.1016635
  C        0.2651040     1.0998010    -0.2107530
  C        2.1130990    -0.4802110     0.2221390
  C        1.8015910     1.0121590    -0.0461820
  C       -1.6656960    -0.6060100    -0.2573320
  C       -2.7543930     0.3665140     0.1916780
  H       -0.3152930    -0.2454590     1.3709960
  H        0.7753790    -1.3637350    -1.2449700
  H        0.7413790    -2.2073630     0.3107570
  H       -0.1666070     1.9492740     0.3275400
  H        0.0028850     1.2252210    -1.2696860
  H        2.9896260    -0.8344780    -0.3294880
  H        2.3206340    -0.6367720     1.2866620
  H        2.1525340     1.6409000     0.7779560
  H        2.3101060     1.3673950    -0.9478660
  H       -1.9261760    -1.6212110     0.0690670
  H       -1.6246980    -0.6344010    -1.3548090
  H       -2.7974460     0.4229520     1.2842010
  H       -2.5674970     1.3742840    -0.1894550
  H       -3.7390610     0.0514200    -0.1666910
units angstrom
no_reorient  #important for SAPT in psi4, default
symmetry c1  #important for SAPT in psi4, default
}

set PROPERTIES_ORIGIN ["COM"]
properties('MP2/aug-cc-pvtz', properties = ['dipole'])
--------------------------------------------------------------------------

    Molecular point group: c1
  Charge       = 0
  Multiplicity = 1
  Basis Set: AUG-CC-PVTZ
    Blend: AUG-CC-PVTZ
  Basis Set: (AUG-CC-PVTZ AUX)
    Blend: AUG-CC-PVTZ-JKFIT

    Orbital Energies [Eh]
    ---------------------

    Doubly Occupied:

       1A    -11.215974     2A    -11.215418     3A    -11.214856
       4A    -11.212833     5A    -11.210352     6A    -11.209910
       7A    -11.207656     8A     -1.134206     9A     -1.039245
      10A     -0.961469    11A     -0.941177    12A     -0.834487
      13A     -0.766398    14A     -0.751087    15A     -0.652304
      16A     -0.636901    17A     -0.606662    18A     -0.569463
      19A     -0.557301    20A     -0.554172    21A     -0.513137
      22A     -0.486478    23A     -0.480999    24A     -0.465291
      25A     -0.450831    26A     -0.443887    27A     -0.436605
      28A     -0.429470

  @DF-RHF Final Energy:  -273.31205275933121

   => Energetics <=

    Nuclear Repulsion Energy =            323.7143622803050107
    One-Electron Energy =               -1009.6556889969513122
    Two-Electron Energy =                 412.6292739573150357
    Total Energy =                       -273.3120527593312090
  Basis Set: (AUG-CC-PVTZ AUX)
    Blend: AUG-CC-PVTZ-RI
    Molecular point group: c1

    Geometry (in Angstrom), charge = 0, multiplicity = 1:

       Center              X                  Y                   Z               Mass
    ------------   -----------------  -----------------  -----------------  -----------------
         C           -0.306703350092    -0.255847221814     0.262440049407    12.000000000000
         C            0.869018749908    -1.162347321814    -0.109183450593    12.000000000000
         C            0.238041649908     1.097364778186    -0.218272950593    12.000000000000
         C            2.086036649908    -0.482647221814     0.214619049407    12.000000000000
         C            1.774528649908     1.009722778186    -0.053701950593    12.000000000000
         C           -1.692758350092    -0.608446221814    -0.264851950593    12.000000000000
         C           -2.781455350092     0.364077778186     0.184158049407    12.000000000000
         H           -0.342355350092    -0.247895221814     1.363476049407     1.007825032230
         H            0.748316649908    -1.366171221814    -1.252489950593     1.007825032230
         H            0.714316649908    -2.209799221814     0.303237049407     1.007825032230
         H           -0.193669350092     1.946837778186     0.320020049407     1.007825032230
         H           -0.024177350092     1.222784778186    -1.277205950593     1.007825032230
         H            2.962563649908    -0.836914221814    -0.337007950593     1.007825032230
         H            2.293571649908    -0.639208221814     1.279142049407     1.007825032230
         H            2.125471649908     1.638463778186     0.770436049407     1.007825032230
         H            2.283043649908     1.364958778186    -0.955385950593     1.007825032230
         H           -1.953238350092    -1.623647221814     0.061547049407     1.007825032230
         H           -1.651760350092    -0.636837221814    -1.362328950593     1.007825032230
         H           -2.824508350092     0.420515778186     1.276681049407     1.007825032230
         H           -2.594559350092     1.371847778186    -0.196974950593     1.007825032230
         H           -3.766123350092     0.048983778186    -0.174210950593     1.007825032230

  Basis Set: AUG-CC-PVTZ
    Blend: AUG-CC-PVTZ
  Basis Set: (AUG-CC-PVTZ AUX)
    Blend: AUG-CC-PVTZ-JKFIT
	 Reference Energy          =    -273.3120527593312090 [Eh]
	 Singles Energy            =      -0.0000000000000000 [Eh]
	 Same-Spin Energy          =      -0.2981816413795735 [Eh]
	 Opposite-Spin Energy      =      -1.0784357694519950 [Eh]
	 Correlation Energy        =      -1.3766174108315685 [Eh]
	 Total Energy              =    -274.6886701701627658 [Eh]

	 ================> DF-SCS-MP2 Energies <==================
	-----------------------------------------------------------
	 SCS Same-Spin Scale       =       0.3333333333333333 [-]
	 SCS Opposite-Spin Scale   =       1.2000000000000000 [-]
	 SCS Same-Spin Energy      =      -0.0993938804598578 [Eh]
	 SCS Opposite-Spin Energy  =      -1.2941229233423941 [Eh]
	 SCS Correlation Energy    =      -1.3935168038022518 [Eh]
	 SCS Total Energy          =    -274.7055695631334515 [Eh]
	-----------------------------------------------------------

  Dipole Moment: [D]
     X:    -0.0171      Y:    -0.0032      Z:     0.0861     Total:     0.0878

*** Psi4 exiting successfully. Buy a developer a beer!
