                               Psi4 1.3.2 release

  ==> Input File <==

--------------------------------------------------------------------------
#psi4
#
memory 32 gb

molecule  {
0 1
  C       -0.2796410    -0.2534110     0.2699600
  C        0.8273080    -1.2201790    -0.1568800
  C        0.2651040     1.0998010    -0.2107530
  C        2.1130990    -0.4802110     0.2221390
  C        1.8015910     1.0121590    -0.0461820
  C       -1.4838356    -0.5597465    -0.1881475
  C       -2.7543930     0.3665140     0.1916780
  H       -0.3152930    -0.2454590     1.3709960
  H        0.7753790    -1.3637350    -1.2449700
  H        0.7413790    -2.2073630     0.3107570
  H       -0.1666070     1.9492740     0.3275400
  H        0.0028850     1.2252210    -1.2696860
  H        2.9896260    -0.8344780    -0.3294880
  H        2.3206340    -0.6367720     1.2866620
  H        2.1525340     1.6409000     0.7779560
  H        2.3101060     1.3673950    -0.9478660
  H       -1.9261760    -1.6212110     0.0690670
  H       -1.6246980    -0.6344010    -1.3548090
  H       -2.7974460     0.4229520     1.2842010
  H       -2.5674970     1.3742840    -0.1894550
  H       -3.7390610     0.0514200    -0.1666910
units angstrom
no_reorient  #important for SAPT in psi4, default
symmetry c1  #important for SAPT in psi4, default
}

set PROPERTIES_ORIGIN ["COM"]
properties('MP2/aug-cc-pvtz', properties = ['dipole'])
--------------------------------------------------------------------------

    Molecular point group: c1
  Charge       = 0
  Multiplicity = 1
  Basis Set: AUG-CC-PVTZ
    Blend: AUG-CC-PVTZ
  Basis Set: (AUG-CC-PVTZ AUX)
    Blend: AUG-CC-PVTZ-JKFIT

    Orbital Energies [Eh]
    ---------------------

    Doubly Occupied:

       1A    -11.223357     2A    -11.213586     3A    -11.213404
       4A    -11.212916     5A    -11.212692     6A    -11.212124
       7A    -11.205803     8A     -1.144155     9A     -1.042341
      10A     -0.959725    11A     -0.937955    12A     -0.842442
      13A     -0.775232    14A     -0.749451    15A     -0.657252
      16A     -0.642179    17A     -0.599067    18A     -0.574566
      19A     -0.555635    20A     -0.552790    21A     -0.508557
      22A     -0.492037    23A     -0.478209    24A     -0.473368
      25A     -0.466259    26A     -0.450960    27A     -0.419915
      28A     -0.406335

  @DF-RHF Final Energy:  -273.27590205521017

   => Energetics <=

    Nuclear Repulsion Energy =            325.4159485508576495
    One-Electron Energy =               -1012.9390777001042352
    Two-Electron Energy =                 414.2472270940364751
    Total Energy =                       -273.2759020552101674
  Basis Set: (AUG-CC-PVTZ AUX)
    Blend: AUG-CC-PVTZ-RI
    Molecular point group: c1

    Geometry (in Angstrom), charge = 0, multiplicity = 1:

       Center              X                  Y                   Z               Mass
    ------------   -----------------  -----------------  -----------------  -----------------
         C           -0.320535312360    -0.254134312121     0.260731591879    12.000000000000
         C            0.786413687640    -1.220902312121    -0.166108408121    12.000000000000
         C            0.224209687640     1.099077687879    -0.219981408121    12.000000000000
         C            2.072204687640    -0.480934312121     0.212910591879    12.000000000000
         C            1.760696687640     1.011435687879    -0.055410408121    12.000000000000
         C           -1.524729912360    -0.560469812121    -0.197375908121    12.000000000000
         C           -2.795287312360     0.365790687879     0.182449591879    12.000000000000
         H           -0.356187312360    -0.246182312121     1.361767591879     1.007825032230
         H            0.734484687640    -1.364458312121    -1.254198408121     1.007825032230
         H            0.700484687640    -2.208086312121     0.301528591879     1.007825032230
         H           -0.207501312360     1.948550687879     0.318311591879     1.007825032230
         H           -0.038009312360     1.224497687879    -1.278914408121     1.007825032230
         H            2.948731687640    -0.835201312121    -0.338716408121     1.007825032230
         H            2.279739687640    -0.637495312121     1.277433591879     1.007825032230
         H            2.111639687640     1.640176687879     0.768727591879     1.007825032230
         H            2.269211687640     1.366671687879    -0.957094408121     1.007825032230
         H           -1.967070312360    -1.621934312121     0.059838591879     1.007825032230
         H           -1.665592312360    -0.635124312121    -1.364037408121     1.007825032230
         H           -2.838340312360     0.422228687879     1.274972591879     1.007825032230
         H           -2.608391312360     1.373560687879    -0.198683408121     1.007825032230
         H           -3.779955312360     0.050696687879    -0.175919408121     1.007825032230

  Basis Set: AUG-CC-PVTZ
    Blend: AUG-CC-PVTZ
  Basis Set: (AUG-CC-PVTZ AUX)
    Blend: AUG-CC-PVTZ-JKFIT
	 Reference Energy          =    -273.2759020552101674 [Eh]
	 Singles Energy            =      -0.0000000000000000 [Eh]
	 Same-Spin Energy          =      -0.2999556589645224 [Eh]
	 Opposite-Spin Energy      =      -1.0814890820694405 [Eh]
	 Correlation Energy        =      -1.3814447410339630 [Eh]
	 Total Energy              =    -274.6573467962441555 [Eh]

	 ================> DF-SCS-MP2 Energies <==================
	-----------------------------------------------------------
	 SCS Same-Spin Scale       =       0.3333333333333333 [-]
	 SCS Opposite-Spin Scale   =       1.2000000000000000 [-]
	 SCS Same-Spin Energy      =      -0.0999852196548408 [Eh]
	 SCS Opposite-Spin Energy  =      -1.2977868984833285 [Eh]
	 SCS Correlation Energy    =      -1.3977721181381693 [Eh]
	 SCS Total Energy          =    -274.6736741733483314 [Eh]
	-----------------------------------------------------------

  Dipole Moment: [D]
     X:     0.1437      Y:     0.0106      Z:     0.0939     Total:     0.1720

*** Psi4 exiting successfully. Buy a developer a beer!
