                               Psi4 1.3.2 release

  ==> Input File <==

--------------------------------------------------------------------------
#psi4
#
memory 32 gb

molecule  {
0 1
  C       -0.3839859    -0.3624256     0.2162083
  C        0.8273080    -1.2201790    -0.1568800
  C        0.2651040     1.0998010    -0.2107530
  C        2.1130990    -0.4802110     0.2221390
  C        1.8015910     1.0121590    -0.0461820
  C       -1.6656960    -0.6060100    -0.2573320
  C       -2.7543930     0.3665140     0.1916780
  H       -0.3152930    -0.2454590     1.3709960
  H        0.7753790    -1.3637350    -1.2449700
  H        0.7413790    -2.2073630     0.3107570
  H       -0.1666070     1.9492740     0.3275400
  H        0.0028850     1.2252210    -1.2696860
  H        2.9896260    -0.8344780    -0.3294880
  H        2.3206340    -0.6367720     1.2866620
  H        2.1525340     1.6409000     0.7779560
  H        2.3101060     1.3673950    -0.9478660
  H       -1.9261760    -1.6212110     0.0690670
  H       -1.6246980    -0.6344010    -1.3548090
  H       -2.7974460     0.4229520     1.2842010
  H       -2.5674970     1.3742840    -0.1894550
  H       -3.7390610     0.0514200    -0.1666910
units angstrom
no_reorient  #important for SAPT in psi4, default
symmetry c1  #important for SAPT in psi4, default
}

set PROPERTIES_ORIGIN ["COM"]
properties('MP2/aug-cc-pvtz', properties = ['dipole'])
--------------------------------------------------------------------------

    Molecular point group: c1
  Charge       = 0
  Multiplicity = 1
  Basis Set: AUG-CC-PVTZ
    Blend: AUG-CC-PVTZ
  Basis Set: (AUG-CC-PVTZ AUX)
    Blend: AUG-CC-PVTZ-JKFIT

    Orbital Energies [Eh]
    ---------------------

    Doubly Occupied:

       1A    -11.221189     2A    -11.214510     3A    -11.213213
       4A    -11.212662     5A    -11.212591     6A    -11.212241
       7A    -11.209681     8A     -1.123521     9A     -1.049898
      10A     -0.956222    11A     -0.934655    12A     -0.848681
      13A     -0.768602    14A     -0.742675    15A     -0.649895
      16A     -0.632554    17A     -0.610529    18A     -0.571600
      19A     -0.560004    20A     -0.552217    21A     -0.517589
      22A     -0.490514    23A     -0.483440    24A     -0.467870
      25A     -0.463292    26A     -0.449031    27A     -0.431143
      28A     -0.397002

  @DF-RHF Final Energy:  -273.29736389369646

   => Energetics <=

    Nuclear Repulsion Energy =            322.5064759844842683
    One-Electron Energy =               -1007.2136405831156480
    Two-Electron Energy =                 411.4098007049349235
    Total Energy =                       -273.2973638936964562
  Basis Set: (AUG-CC-PVTZ AUX)
    Blend: AUG-CC-PVTZ-RI
    Molecular point group: c1

    Geometry (in Angstrom), charge = 0, multiplicity = 1:

       Center              X                  Y                   Z               Mass
    ------------   -----------------  -----------------  -----------------  -----------------
         C           -0.389873797753    -0.344156498116     0.222016495280    12.000000000000
         C            0.821420102247    -1.201909898116    -0.151071804720    12.000000000000
         C            0.259216102247     1.118070101884    -0.204944804720    12.000000000000
         C            2.107211102247    -0.461941898116     0.227947195280    12.000000000000
         C            1.795703102247     1.030428101884    -0.040373804720    12.000000000000
         C           -1.671583897753    -0.587740898116    -0.251523804720    12.000000000000
         C           -2.760280897753     0.384783101884     0.197486195280    12.000000000000
         H           -0.321180897753    -0.227189898116     1.376804195280     1.007825032230
         H            0.769491102247    -1.345465898116    -1.239161804720     1.007825032230
         H            0.735491102247    -2.189093898116     0.316565195280     1.007825032230
         H           -0.172494897753     1.967543101884     0.333348195280     1.007825032230
         H           -0.003002897753     1.243490101884    -1.263877804720     1.007825032230
         H            2.983738102247    -0.816208898116    -0.323679804720     1.007825032230
         H            2.314746102247    -0.618502898116     1.292470195280     1.007825032230
         H            2.146646102247     1.659169101884     0.783764195280     1.007825032230
         H            2.304218102247     1.385664101884    -0.942057804720     1.007825032230
         H           -1.932063897753    -1.602941898116     0.074875195280     1.007825032230
         H           -1.630585897753    -0.616131898116    -1.349000804720     1.007825032230
         H           -2.803333897753     0.441221101884     1.290009195280     1.007825032230
         H           -2.573384897753     1.392553101884    -0.183646804720     1.007825032230
         H           -3.744948897753     0.069689101884    -0.160882804720     1.007825032230

  Basis Set: AUG-CC-PVTZ
    Blend: AUG-CC-PVTZ
  Basis Set: (AUG-CC-PVTZ AUX)
    Blend: AUG-CC-PVTZ-JKFIT
	 Reference Energy          =    -273.2973638936964562 [Eh]
	 Singles Energy            =      -0.0000000000000000 [Eh]
	 Same-Spin Energy          =      -0.2986274449310584 [Eh]
	 Opposite-Spin Energy      =      -1.0798518315427375 [Eh]
	 Correlation Energy        =      -1.3784792764737959 [Eh]
	 Total Energy              =    -274.6758431701702534 [Eh]

	 ================> DF-SCS-MP2 Energies <==================
	-----------------------------------------------------------
	 SCS Same-Spin Scale       =       0.3333333333333333 [-]
	 SCS Opposite-Spin Scale   =       1.2000000000000000 [-]
	 SCS Same-Spin Energy      =      -0.0995424816436861 [Eh]
	 SCS Opposite-Spin Energy  =      -1.2958221978512849 [Eh]
	 SCS Correlation Energy    =      -1.3953646794949710 [Eh]
	 SCS Total Energy          =    -274.6927285731914026 [Eh]
	-----------------------------------------------------------

  Dipole Moment: [D]
     X:    -0.0560      Y:    -0.0651      Z:     0.0108     Total:     0.0865

*** Psi4 exiting successfully. Buy a developer a beer!
