                               Psi4 1.3.2 release

  ==> Input File <==

--------------------------------------------------------------------------
#psi4
#
memory 32 gb

molecule  {
0 1
  C       -0.1631681    -0.1549885     0.3190351
  C        0.8273080    -1.2201790    -0.1568800
  C        0.2651040     1.0998010    -0.2107530
  C        2.1130990    -0.4802110     0.2221390
  C        1.8015910     1.0121590    -0.0461820
  C       -1.6656960    -0.6060100    -0.2573320
  C       -2.7543930     0.3665140     0.1916780
  H       -0.3152930    -0.2454590     1.3709960
  H        0.7753790    -1.3637350    -1.2449700
  H        0.7413790    -2.2073630     0.3107570
  H       -0.1666070     1.9492740     0.3275400
  H        0.0028850     1.2252210    -1.2696860
  H        2.9896260    -0.8344780    -0.3294880
  H        2.3206340    -0.6367720     1.2866620
  H        2.1525340     1.6409000     0.7779560
  H        2.3101060     1.3673950    -0.9478660
  H       -1.9261760    -1.6212110     0.0690670
  H       -1.6246980    -0.6344010    -1.3548090
  H       -2.7974460     0.4229520     1.2842010
  H       -2.5674970     1.3742840    -0.1894550
  H       -3.7390610     0.0514200    -0.1666910
units angstrom
no_reorient  #important for SAPT in psi4, default
symmetry c1  #important for SAPT in psi4, default
}

set PROPERTIES_ORIGIN ["COM"]
properties('MP2/aug-cc-pvtz', properties = ['dipole'])
--------------------------------------------------------------------------

    Molecular point group: c1
  Charge       = 0
  Multiplicity = 1
  Basis Set: AUG-CC-PVTZ
    Blend: AUG-CC-PVTZ
  Basis Set: (AUG-CC-PVTZ AUX)
    Blend: AUG-CC-PVTZ-JKFIT

    Orbital Energies [Eh]
    ---------------------

    Doubly Occupied:

       1A    -11.215499     2A    -11.214621     3A    -11.211687
       4A    -11.210063     5A    -11.209353     6A    -11.206744
       7A    -11.206028     8A     -1.135851     9A     -1.020713
      10A     -0.963923    11A     -0.940573    12A     -0.821501
      13A     -0.774523    14A     -0.757332    15A     -0.660436
      16A     -0.628300    17A     -0.599326    18A     -0.575297
      19A     -0.556650    20A     -0.547331    21A     -0.512828
      22A     -0.491391    23A     -0.478110    24A     -0.466268
      25A     -0.463774    26A     -0.452402    27A     -0.439034
      28A     -0.396946

  @DF-RHF Final Energy:  -273.30106981287457

   => Energetics <=

    Nuclear Repulsion Energy =            323.2218388171524452
    One-Electron Energy =               -1008.7328079618428092
    Two-Electron Energy =                 412.2098993318157341
    Total Energy =                       -273.3010698128745730
  Basis Set: (AUG-CC-PVTZ AUX)
    Blend: AUG-CC-PVTZ-RI
    Molecular point group: c1

    Geometry (in Angstrom), charge = 0, multiplicity = 1:

       Center              X                  Y                   Z               Mass
    ------------   -----------------  -----------------  -----------------  -----------------
         C           -0.196064720022    -0.162091496842     0.312266317868    12.000000000000
         C            0.794411379978    -1.227281996842    -0.163648782132    12.000000000000
         C            0.232207379978     1.092698003158    -0.217521782132    12.000000000000
         C            2.080202379978    -0.487313996842     0.215370217868    12.000000000000
         C            1.768694379978     1.005056003158    -0.052950782132    12.000000000000
         C           -1.698592620022    -0.613112996842    -0.264100782132    12.000000000000
         C           -2.787289620022     0.359411003158     0.184909217868    12.000000000000
         H           -0.348189620022    -0.252561996842     1.364227217868     1.007825032230
         H            0.742482379978    -1.370837996842    -1.251738782132     1.007825032230
         H            0.708482379978    -2.214465996842     0.303988217868     1.007825032230
         H           -0.199503620022     1.942171003158     0.320771217868     1.007825032230
         H           -0.030011620022     1.218118003158    -1.276454782132     1.007825032230
         H            2.956729379978    -0.841580996842    -0.336256782132     1.007825032230
         H            2.287737379978    -0.643874996842     1.279893217868     1.007825032230
         H            2.119637379978     1.633797003158     0.771187217868     1.007825032230
         H            2.277209379978     1.360292003158    -0.954634782132     1.007825032230
         H           -1.959072620022    -1.628313996842     0.062298217868     1.007825032230
         H           -1.657594620022    -0.641503996842    -1.361577782132     1.007825032230
         H           -2.830342620022     0.415849003158     1.277432217868     1.007825032230
         H           -2.600393620022     1.367181003158    -0.196223782132     1.007825032230
         H           -3.771957620022     0.044317003158    -0.173459782132     1.007825032230

  Basis Set: AUG-CC-PVTZ
    Blend: AUG-CC-PVTZ
  Basis Set: (AUG-CC-PVTZ AUX)
    Blend: AUG-CC-PVTZ-JKFIT
	 Reference Energy          =    -273.3010698128745730 [Eh]
	 Singles Energy            =      -0.0000000000000000 [Eh]
	 Same-Spin Energy          =      -0.2982271458695824 [Eh]
	 Opposite-Spin Energy      =      -1.0790231240620112 [Eh]
	 Correlation Energy        =      -1.3772502699315936 [Eh]
	 Total Energy              =    -274.6783200828061808 [Eh]

	 ================> DF-SCS-MP2 Energies <==================
	-----------------------------------------------------------
	 SCS Same-Spin Scale       =       0.3333333333333333 [-]
	 SCS Opposite-Spin Scale   =       1.2000000000000000 [-]
	 SCS Same-Spin Energy      =      -0.0994090486231941 [Eh]
	 SCS Opposite-Spin Energy  =      -1.2948277488744133 [Eh]
	 SCS Correlation Energy    =      -1.3942367974976075 [Eh]
	 SCS Total Energy          =    -274.6953066103721994 [Eh]
	-----------------------------------------------------------

  Dipole Moment: [D]
     X:     0.0412      Y:    -0.0251      Z:     0.0768     Total:     0.0907

*** Psi4 exiting successfully. Buy a developer a beer!
