                               Psi4 1.3.2 release

  ==> Input File <==

--------------------------------------------------------------------------
#psi4
#
memory 32 gb

molecule  {
0 1
  C       -0.3235892    -0.1697165     0.3187832
  C        0.8273080    -1.2201790    -0.1568800
  C        0.2651040     1.0998010    -0.2107530
  C        2.1130990    -0.4802110     0.2221390
  C        1.8015910     1.0121590    -0.0461820
  C       -1.6656960    -0.6060100    -0.2573320
  C       -2.7543930     0.3665140     0.1916780
  H       -0.3152930    -0.2454590     1.3709960
  H        0.7753790    -1.3637350    -1.2449700
  H        0.7413790    -2.2073630     0.3107570
  H       -0.1666070     1.9492740     0.3275400
  H        0.0028850     1.2252210    -1.2696860
  H        2.9896260    -0.8344780    -0.3294880
  H        2.3206340    -0.6367720     1.2866620
  H        2.1525340     1.6409000     0.7779560
  H        2.3101060     1.3673950    -0.9478660
  H       -1.9261760    -1.6212110     0.0690670
  H       -1.6246980    -0.6344010    -1.3548090
  H       -2.7974460     0.4229520     1.2842010
  H       -2.5674970     1.3742840    -0.1894550
  H       -3.7390610     0.0514200    -0.1666910
units angstrom
no_reorient  #important for SAPT in psi4, default
symmetry c1  #important for SAPT in psi4, default
}

set PROPERTIES_ORIGIN ["COM"]
properties('MP2/aug-cc-pvtz', properties = ['dipole'])
--------------------------------------------------------------------------

    Molecular point group: c1
  Charge       = 0
  Multiplicity = 1
  Basis Set: AUG-CC-PVTZ
    Blend: AUG-CC-PVTZ
  Basis Set: (AUG-CC-PVTZ AUX)
    Blend: AUG-CC-PVTZ-JKFIT

    Orbital Energies [Eh]
    ---------------------

    Doubly Occupied:

       1A    -11.214468     2A    -11.213846     3A    -11.212519
       4A    -11.211304     5A    -11.210103     6A    -11.209823
       7A    -11.206917     8A     -1.120791     9A     -1.034882
      10A     -0.954214    11A     -0.936607    12A     -0.831994
      13A     -0.772474    14A     -0.755583    15A     -0.648652
      16A     -0.630326    17A     -0.605693    18A     -0.567979
      19A     -0.560521    20A     -0.549034    21A     -0.512556
      22A     -0.487812    23A     -0.472419    24A     -0.466371
      25A     -0.459884    26A     -0.450401    27A     -0.446693
      28A     -0.407725

  @DF-RHF Final Energy:  -273.31581792437862

   => Energetics <=

    Nuclear Repulsion Energy =            322.4165354951006748
    One-Electron Energy =               -1007.1615242729715192
    Two-Electron Energy =                 411.4291708534922236
    Total Energy =                       -273.3158179243786208
  Basis Set: (AUG-CC-PVTZ AUX)
    Blend: AUG-CC-PVTZ-RI
    Molecular point group: c1

    Geometry (in Angstrom), charge = 0, multiplicity = 1:

       Center              X                  Y                   Z               Mass
    ------------   -----------------  -----------------  -----------------  -----------------
         C           -0.336864354108    -0.175018082003     0.312045228324    12.000000000000
         C            0.814032845892    -1.225480582003    -0.163617971676    12.000000000000
         C            0.251828845892     1.094499417997    -0.217490971676    12.000000000000
         C            2.099823845892    -0.485512582003     0.215401028324    12.000000000000
         C            1.788315845892     1.006857417997    -0.052919971676    12.000000000000
         C           -1.678971154108    -0.611311582003    -0.264069971676    12.000000000000
         C           -2.767668154108     0.361212417997     0.184940028324    12.000000000000
         H           -0.328568154108    -0.250760582003     1.364258028324     1.007825032230
         H            0.762103845892    -1.369036582003    -1.251707971676     1.007825032230
         H            0.728103845892    -2.212664582003     0.304019028324     1.007825032230
         H           -0.179882154108     1.943972417997     0.320802028324     1.007825032230
         H           -0.010390154108     1.219919417997    -1.276423971676     1.007825032230
         H            2.976350845892    -0.839779582003    -0.336225971676     1.007825032230
         H            2.307358845892    -0.642073582003     1.279924028324     1.007825032230
         H            2.139258845892     1.635598417997     0.771218028324     1.007825032230
         H            2.296830845892     1.362093417997    -0.954603971676     1.007825032230
         H           -1.939451154108    -1.626512582003     0.062329028324     1.007825032230
         H           -1.637973154108    -0.639702582003    -1.361546971676     1.007825032230
         H           -2.810721154108     0.417650417997     1.277463028324     1.007825032230
         H           -2.580772154108     1.368982417997    -0.196192971676     1.007825032230
         H           -3.752336154108     0.046118417997    -0.173428971676     1.007825032230

  Basis Set: AUG-CC-PVTZ
    Blend: AUG-CC-PVTZ
  Basis Set: (AUG-CC-PVTZ AUX)
    Blend: AUG-CC-PVTZ-JKFIT
	 Reference Energy          =    -273.3158179243786208 [Eh]
	 Singles Energy            =      -0.0000000000000000 [Eh]
	 Same-Spin Energy          =      -0.2973327479795065 [Eh]
	 Opposite-Spin Energy      =      -1.0779684030586152 [Eh]
	 Correlation Energy        =      -1.3753011510381217 [Eh]
	 Total Energy              =    -274.6911190754167365 [Eh]

	 ================> DF-SCS-MP2 Energies <==================
	-----------------------------------------------------------
	 SCS Same-Spin Scale       =       0.3333333333333333 [-]
	 SCS Opposite-Spin Scale   =       1.2000000000000000 [-]
	 SCS Same-Spin Energy      =      -0.0991109159931688 [Eh]
	 SCS Opposite-Spin Energy  =      -1.2935620836703381 [Eh]
	 SCS Correlation Energy    =      -1.3926729996635070 [Eh]
	 SCS Total Energy          =    -274.7084909240421098 [Eh]
	-----------------------------------------------------------

  Dipole Moment: [D]
     X:    -0.0143      Y:    -0.0389      Z:     0.0577     Total:     0.0710

*** Psi4 exiting successfully. Buy a developer a beer!
