                               Psi4 1.3.2 release

  ==> Input File <==

--------------------------------------------------------------------------
#psi4
#
memory 32 gb

molecule  {
0 1
  C       -0.2796410    -0.2534110     0.2699600
  C        0.8273080    -1.2201790    -0.1568800
  C        0.2651040     1.0998010    -0.2107530
  C        2.1130990    -0.4802110     0.2221390
  C        1.8015910     1.0121590    -0.0461820
  C       -1.6656960    -0.6060100    -0.2573320
  C       -2.7543930     0.3665140     0.1916780
  H       -0.3120567    -0.2461808     1.2710510
  H        0.7753790    -1.3637350    -1.2449700
  H        0.7413790    -2.2073630     0.3107570
  H       -0.1666070     1.9492740     0.3275400
  H        0.0028850     1.2252210    -1.2696860
  H        2.9896260    -0.8344780    -0.3294880
  H        2.3206340    -0.6367720     1.2866620
  H        2.1525340     1.6409000     0.7779560
  H        2.3101060     1.3673950    -0.9478660
  H       -1.9261760    -1.6212110     0.0690670
  H       -1.6246980    -0.6344010    -1.3548090
  H       -2.7974460     0.4229520     1.2842010
  H       -2.5674970     1.3742840    -0.1894550
  H       -3.7390610     0.0514200    -0.1666910
units angstrom
no_reorient  #important for SAPT in psi4, default
symmetry c1  #important for SAPT in psi4, default
}

set PROPERTIES_ORIGIN ["COM"]
properties('MP2/aug-cc-pvtz', properties = ['dipole'])
--------------------------------------------------------------------------

    Molecular point group: c1
  Charge       = 0
  Multiplicity = 1
  Basis Set: AUG-CC-PVTZ
    Blend: AUG-CC-PVTZ
  Basis Set: (AUG-CC-PVTZ AUX)
    Blend: AUG-CC-PVTZ-JKFIT

    Orbital Energies [Eh]
    ---------------------

    Doubly Occupied:

       1A    -11.212580     2A    -11.211842     3A    -11.211239
       4A    -11.209172     5A    -11.208702     6A    -11.208686
       7A    -11.201629     8A     -1.126649     9A     -1.034123
      10A     -0.955590    11A     -0.942012    12A     -0.833104
      13A     -0.774515    14A     -0.761089    15A     -0.652954
      16A     -0.629818    17A     -0.604901    18A     -0.568786
      19A     -0.561821    20A     -0.551903    21A     -0.512531
      22A     -0.484871    23A     -0.471821    24A     -0.464294
      25A     -0.456170    26A     -0.447363    27A     -0.443028
      28A     -0.434549

  @DF-RHF Final Energy:  -273.31992322704502

   => Energetics <=

    Nuclear Repulsion Energy =            323.3044416065461633
    One-Electron Energy =               -1008.8972440336111731
    Two-Electron Energy =                 412.2728792000199292
    Total Energy =                       -273.3199232270450239
  Basis Set: (AUG-CC-PVTZ AUX)
    Blend: AUG-CC-PVTZ-RI
    Molecular point group: c1

    Geometry (in Angstrom), charge = 0, multiplicity = 1:

       Center              X                  Y                   Z               Mass
    ------------   -----------------  -----------------  -----------------  -----------------
         C           -0.298324802111    -0.248468304627     0.270220383425    12.000000000000
         C            0.808624197889    -1.215236304627    -0.156619616575    12.000000000000
         C            0.246420197889     1.104743695373    -0.210492616575    12.000000000000
         C            2.094415197889    -0.475268304627     0.222399383425    12.000000000000
         C            1.782907197889     1.017101695373    -0.045921616575    12.000000000000
         C           -1.684379802111    -0.601067304627    -0.257071616575    12.000000000000
         C           -2.773076802111     0.371456695373     0.191938383425    12.000000000000
         H           -0.330740502111    -0.241238104627     1.271311383425     1.007825032230
         H            0.756695197889    -1.358792304627    -1.244709616575     1.007825032230
         H            0.722695197889    -2.202420304627     0.311017383425     1.007825032230
         H           -0.185290802111     1.954216695373     0.327800383425     1.007825032230
         H           -0.015798802111     1.230163695373    -1.269425616575     1.007825032230
         H            2.970942197889    -0.829535304627    -0.329227616575     1.007825032230
         H            2.301950197889    -0.631829304627     1.286922383425     1.007825032230
         H            2.133850197889     1.645842695373     0.778216383425     1.007825032230
         H            2.291422197889     1.372337695373    -0.947605616575     1.007825032230
         H           -1.944859802111    -1.616268304627     0.069327383425     1.007825032230
         H           -1.643381802111    -0.629458304627    -1.354548616575     1.007825032230
         H           -2.816129802111     0.427894695373     1.284461383425     1.007825032230
         H           -2.586180802111     1.379226695373    -0.189194616575     1.007825032230
         H           -3.757744802111     0.056362695373    -0.166430616575     1.007825032230

  Basis Set: AUG-CC-PVTZ
    Blend: AUG-CC-PVTZ
  Basis Set: (AUG-CC-PVTZ AUX)
    Blend: AUG-CC-PVTZ-JKFIT
	 Reference Energy          =    -273.3199232270450239 [Eh]
	 Singles Energy            =      -0.0000000000000000 [Eh]
	 Same-Spin Energy          =      -0.2970987337502384 [Eh]
	 Opposite-Spin Energy      =      -1.0767498911686659 [Eh]
	 Correlation Energy        =      -1.3738486249189044 [Eh]
	 Total Energy              =    -274.6937718519639020 [Eh]

	 ================> DF-SCS-MP2 Energies <==================
	-----------------------------------------------------------
	 SCS Same-Spin Scale       =       0.3333333333333333 [-]
	 SCS Opposite-Spin Scale   =       1.2000000000000000 [-]
	 SCS Same-Spin Energy      =      -0.0990329112500795 [Eh]
	 SCS Opposite-Spin Energy  =      -1.2920998694023991 [Eh]
	 SCS Correlation Energy    =      -1.3911327806524785 [Eh]
	 SCS Total Energy          =    -274.7110560076974934 [Eh]
	-----------------------------------------------------------

  Dipole Moment: [D]
     X:    -0.0123      Y:    -0.0464      Z:     0.1197     Total:     0.1290

*** Psi4 exiting successfully. Buy a developer a beer!
