                               Psi4 1.3.2 release

  ==> Input File <==

--------------------------------------------------------------------------
#psi4
#
memory 32 gb

molecule  {
0 1
  C       -0.2796410    -0.2534110     0.2699600
  C        0.8273080    -1.2201790    -0.1568800
  C        0.2651040     1.0998010    -0.2107530
  C        2.1130990    -0.4802110     0.2221390
  C        1.8015910     1.0121590    -0.0461820
  C       -1.6656960    -0.6060100    -0.2573320
  C       -2.7543930     0.3665140     0.1916780
  H       -0.3217655    -0.2440153     1.5708860
  H        0.7753790    -1.3637350    -1.2449700
  H        0.7413790    -2.2073630     0.3107570
  H       -0.1666070     1.9492740     0.3275400
  H        0.0028850     1.2252210    -1.2696860
  H        2.9896260    -0.8344780    -0.3294880
  H        2.3206340    -0.6367720     1.2866620
  H        2.1525340     1.6409000     0.7779560
  H        2.3101060     1.3673950    -0.9478660
  H       -1.9261760    -1.6212110     0.0690670
  H       -1.6246980    -0.6344010    -1.3548090
  H       -2.7974460     0.4229520     1.2842010
  H       -2.5674970     1.3742840    -0.1894550
  H       -3.7390610     0.0514200    -0.1666910
units angstrom
no_reorient  #important for SAPT in psi4, default
symmetry c1  #important for SAPT in psi4, default
}

set PROPERTIES_ORIGIN ["COM"]
properties('MP2/aug-cc-pvtz', properties = ['dipole'])
--------------------------------------------------------------------------

    Molecular point group: c1
  Charge       = 0
  Multiplicity = 1
  Basis Set: AUG-CC-PVTZ
    Blend: AUG-CC-PVTZ
  Basis Set: (AUG-CC-PVTZ AUX)
    Blend: AUG-CC-PVTZ-JKFIT

    Orbital Energies [Eh]
    ---------------------

    Doubly Occupied:

       1A    -11.239137     2A    -11.216643     3A    -11.213278
       4A    -11.212784     5A    -11.212579     6A    -11.211857
       7A    -11.209044     8A     -1.123602     9A     -1.034461
      10A     -0.957720    11A     -0.937473    12A     -0.835253
      13A     -0.770919    14A     -0.735040    15A     -0.650437
      16A     -0.631425    17A     -0.604307    18A     -0.570446
      19A     -0.553526    20A     -0.546669    21A     -0.514571
      22A     -0.486077    23A     -0.473607    24A     -0.465115
      25A     -0.450859    26A     -0.447743    27A     -0.438511
      28A     -0.425725

  @DF-RHF Final Energy:  -273.30655099445789

   => Energetics <=

    Nuclear Repulsion Energy =            321.8456827505966089
    One-Electron Energy =               -1005.9668516076758351
    Two-Electron Energy =                 410.8146178626213896
    Total Energy =                       -273.3065509944578935
  Basis Set: (AUG-CC-PVTZ AUX)
    Blend: AUG-CC-PVTZ-RI
    Molecular point group: c1

    Geometry (in Angstrom), charge = 0, multiplicity = 1:

       Center              X                  Y                   Z               Mass
    ------------   -----------------  -----------------  -----------------  -----------------
         C           -0.298225068990    -0.248490549608     0.267140344660    12.000000000000
         C            0.808723931010    -1.215258549608    -0.159699655340    12.000000000000
         C            0.246519931010     1.104721450392    -0.213572655340    12.000000000000
         C            2.094514931010    -0.475290549608     0.219319344660    12.000000000000
         C            1.783006931010     1.017079450392    -0.049001655340    12.000000000000
         C           -1.684280068990    -0.601089549608    -0.260151655340    12.000000000000
         C           -2.772977068990     0.371434450392     0.188858344660    12.000000000000
         H           -0.340349568990    -0.239094849608     1.568066344660     1.007825032230
         H            0.756794931010    -1.358814549608    -1.247789655340     1.007825032230
         H            0.722794931010    -2.202442549608     0.307937344660     1.007825032230
         H           -0.185191068990     1.954194450392     0.324720344660     1.007825032230
         H           -0.015699068990     1.230141450392    -1.272505655340     1.007825032230
         H            2.971041931010    -0.829557549608    -0.332307655340     1.007825032230
         H            2.302049931010    -0.631851549608     1.283842344660     1.007825032230
         H            2.133949931010     1.645820450392     0.775136344660     1.007825032230
         H            2.291521931010     1.372315450392    -0.950685655340     1.007825032230
         H           -1.944760068990    -1.616290549608     0.066247344660     1.007825032230
         H           -1.643282068990    -0.629480549608    -1.357628655340     1.007825032230
         H           -2.816030068990     0.427872450392     1.281381344660     1.007825032230
         H           -2.586081068990     1.379204450392    -0.192274655340     1.007825032230
         H           -3.757645068990     0.056340450392    -0.169510655340     1.007825032230

  Basis Set: AUG-CC-PVTZ
    Blend: AUG-CC-PVTZ
  Basis Set: (AUG-CC-PVTZ AUX)
    Blend: AUG-CC-PVTZ-JKFIT
	 Reference Energy          =    -273.3065509944578935 [Eh]
	 Singles Energy            =      -0.0000000000000000 [Eh]
	 Same-Spin Energy          =      -0.2972793899804986 [Eh]
	 Opposite-Spin Energy      =      -1.0789247767558843 [Eh]
	 Correlation Energy        =      -1.3762041667363829 [Eh]
	 Total Energy              =    -274.6827551611942795 [Eh]

	 ================> DF-SCS-MP2 Energies <==================
	-----------------------------------------------------------
	 SCS Same-Spin Scale       =       0.3333333333333333 [-]
	 SCS Opposite-Spin Scale   =       1.2000000000000000 [-]
	 SCS Same-Spin Energy      =      -0.0990931299934995 [Eh]
	 SCS Opposite-Spin Energy  =      -1.2947097321070611 [Eh]
	 SCS Correlation Energy    =      -1.3938028621005607 [Eh]
	 SCS Total Energy          =    -274.7003538565584790 [Eh]
	-----------------------------------------------------------

  Dipole Moment: [D]
     X:     0.0007      Y:    -0.0450      Z:    -0.1547     Total:     0.1611

*** Psi4 exiting successfully. Buy a developer a beer!
