                               Psi4 1.3.2 release

  ==> Input File <==

--------------------------------------------------------------------------
#psi4
#
memory 32 gb

molecule  {
0 1
  C       -0.2796410    -0.2534110     0.2699600
  C        0.8762190    -1.3112846    -0.1298711
  C        0.2651040     1.0998010    -0.2107530
  C        2.1130990    -0.4802110     0.2221390
  C        1.8015910     1.0121590    -0.0461820
  C       -1.6656960    -0.6060100    -0.2573320
  C       -2.7543930     0.3665140     0.1916780
  H       -0.3152930    -0.2454590     1.3709960
  H        0.7753790    -1.3637350    -1.2449700
  H        0.7413790    -2.2073630     0.3107570
  H       -0.1666070     1.9492740     0.3275400
  H        0.0028850     1.2252210    -1.2696860
  H        2.9896260    -0.8344780    -0.3294880
  H        2.3206340    -0.6367720     1.2866620
  H        2.1525340     1.6409000     0.7779560
  H        2.3101060     1.3673950    -0.9478660
  H       -1.9261760    -1.6212110     0.0690670
  H       -1.6246980    -0.6344010    -1.3548090
  H       -2.7974460     0.4229520     1.2842010
  H       -2.5674970     1.3742840    -0.1894550
  H       -3.7390610     0.0514200    -0.1666910
units angstrom
no_reorient  #important for SAPT in psi4, default
symmetry c1  #important for SAPT in psi4, default
}

set PROPERTIES_ORIGIN ["COM"]
properties('MP2/aug-cc-pvtz', properties = ['dipole'])
--------------------------------------------------------------------------

    Molecular point group: c1
  Charge       = 0
  Multiplicity = 1
  Basis Set: AUG-CC-PVTZ
    Blend: AUG-CC-PVTZ
  Basis Set: (AUG-CC-PVTZ AUX)
    Blend: AUG-CC-PVTZ-JKFIT

    Orbital Energies [Eh]
    ---------------------

    Doubly Occupied:

       1A    -11.218597     2A    -11.213641     3A    -11.212955
       4A    -11.212368     5A    -11.210945     6A    -11.208617
       7A    -11.208333     8A     -1.115802     9A     -1.032969
      10A     -0.959596    11A     -0.935047    12A     -0.834246
      13A     -0.774898    14A     -0.748376    15A     -0.657363
      16A     -0.626559    17A     -0.604567    18A     -0.568934
      19A     -0.554668    20A     -0.548896    21A     -0.513912
      22A     -0.494394    23A     -0.483920    24A     -0.465631
      25A     -0.449467    26A     -0.445214    27A     -0.439486
      28A     -0.415731

  @DF-RHF Final Energy:  -273.31366534093104

   => Energetics <=

    Nuclear Repulsion Energy =            321.2955871718869503
    One-Electron Energy =               -1004.9082384411764224
    Two-Electron Energy =                 410.2989859283584337
    Total Energy =                       -273.3136653409310384
  Basis Set: (AUG-CC-PVTZ AUX)
    Blend: AUG-CC-PVTZ-RI
    Molecular point group: c1

    Geometry (in Angstrom), charge = 0, multiplicity = 1:

       Center              X                  Y                   Z               Mass
    ------------   -----------------  -----------------  -----------------  -----------------
         C           -0.304273971923    -0.237332388226     0.265890184470    12.000000000000
         C            0.851586028077    -1.295205988226    -0.133940915530    12.000000000000
         C            0.240471028077     1.115879611774    -0.214822815530    12.000000000000
         C            2.088466028077    -0.464132388226     0.218069184470    12.000000000000
         C            1.776958028077     1.028237611774    -0.050251815530    12.000000000000
         C           -1.690328971923    -0.589931388226    -0.261401815530    12.000000000000
         C           -2.779025971923     0.382592611774     0.187608184470    12.000000000000
         H           -0.339925971923    -0.229380388226     1.366926184470     1.007825032230
         H            0.750746028077    -1.347656388226    -1.249039815530     1.007825032230
         H            0.716746028077    -2.191284388226     0.306687184470     1.007825032230
         H           -0.191239971923     1.965352611774     0.323470184470     1.007825032230
         H           -0.021747971923     1.241299611774    -1.273755815530     1.007825032230
         H            2.964993028077    -0.818399388226    -0.333557815530     1.007825032230
         H            2.296001028077    -0.620693388226     1.282592184470     1.007825032230
         H            2.127901028077     1.656978611774     0.773886184470     1.007825032230
         H            2.285473028077     1.383473611774    -0.951935815530     1.007825032230
         H           -1.950808971923    -1.605132388226     0.064997184470     1.007825032230
         H           -1.649330971923    -0.618322388226    -1.358878815530     1.007825032230
         H           -2.822078971923     0.439030611774     1.280131184470     1.007825032230
         H           -2.592129971923     1.390362611774    -0.193524815530     1.007825032230
         H           -3.763693971923     0.067498611774    -0.170760815530     1.007825032230

  Basis Set: AUG-CC-PVTZ
    Blend: AUG-CC-PVTZ
  Basis Set: (AUG-CC-PVTZ AUX)
    Blend: AUG-CC-PVTZ-JKFIT
	 Reference Energy          =    -273.3136653409310384 [Eh]
	 Singles Energy            =      -0.0000000000000000 [Eh]
	 Same-Spin Energy          =      -0.2969726916614123 [Eh]
	 Opposite-Spin Energy      =      -1.0777439085591749 [Eh]
	 Correlation Energy        =      -1.3747166002205873 [Eh]
	 Total Energy              =    -274.6883819411516470 [Eh]

	 ================> DF-SCS-MP2 Energies <==================
	-----------------------------------------------------------
	 SCS Same-Spin Scale       =       0.3333333333333333 [-]
	 SCS Opposite-Spin Scale   =       1.2000000000000000 [-]
	 SCS Same-Spin Energy      =      -0.0989908972204707 [Eh]
	 SCS Opposite-Spin Energy  =      -1.2932926902710098 [Eh]
	 SCS Correlation Energy    =      -1.3922835874914805 [Eh]
	 SCS Total Energy          =    -274.7059489284225151 [Eh]
	-----------------------------------------------------------

  Dipole Moment: [D]
     X:    -0.0214      Y:    -0.0369      Z:     0.0892     Total:     0.0989

*** Psi4 exiting successfully. Buy a developer a beer!
