                               Psi4 1.3.2 release

  ==> Input File <==

--------------------------------------------------------------------------
#psi4
#
memory 32 gb

molecule  {
0 1
  C       -0.2796410    -0.2534110     0.2699600
  C        0.7549780    -1.1570087    -0.1289895
  C        0.2651040     1.0998010    -0.2107530
  C        2.1130990    -0.4802110     0.2221390
  C        1.8015910     1.0121590    -0.0461820
  C       -1.6656960    -0.6060100    -0.2573320
  C       -2.7543930     0.3665140     0.1916780
  H       -0.3152930    -0.2454590     1.3709960
  H        0.7753790    -1.3637350    -1.2449700
  H        0.7413790    -2.2073630     0.3107570
  H       -0.1666070     1.9492740     0.3275400
  H        0.0028850     1.2252210    -1.2696860
  H        2.9896260    -0.8344780    -0.3294880
  H        2.3206340    -0.6367720     1.2866620
  H        2.1525340     1.6409000     0.7779560
  H        2.3101060     1.3673950    -0.9478660
  H       -1.9261760    -1.6212110     0.0690670
  H       -1.6246980    -0.6344010    -1.3548090
  H       -2.7974460     0.4229520     1.2842010
  H       -2.5674970     1.3742840    -0.1894550
  H       -3.7390610     0.0514200    -0.1666910
units angstrom
no_reorient  #important for SAPT in psi4, default
symmetry c1  #important for SAPT in psi4, default
}

set PROPERTIES_ORIGIN ["COM"]
properties('MP2/aug-cc-pvtz', properties = ['dipole'])
--------------------------------------------------------------------------

    Molecular point group: c1
  Charge       = 0
  Multiplicity = 1
  Basis Set: AUG-CC-PVTZ
    Blend: AUG-CC-PVTZ
  Basis Set: (AUG-CC-PVTZ AUX)
    Blend: AUG-CC-PVTZ-JKFIT

    Orbital Energies [Eh]
    ---------------------

    Doubly Occupied:

       1A    -11.214664     2A    -11.213750     3A    -11.212765
       4A    -11.211528     5A    -11.210967     6A    -11.210208
       7A    -11.209178     8A     -1.135827     9A     -1.034333
      10A     -0.958062    11A     -0.941841    12A     -0.833807
      13A     -0.769230    14A     -0.753988    15A     -0.653362
      16A     -0.632847    17A     -0.604441    18A     -0.571255
      19A     -0.558502    20A     -0.551524    21A     -0.514227
      22A     -0.483597    23A     -0.469803    24A     -0.467412
      25A     -0.450700    26A     -0.447351    27A     -0.438875
      28A     -0.435168

  @DF-RHF Final Energy:  -273.31425820960004

   => Energetics <=

    Nuclear Repulsion Energy =            324.1266771150942532
    One-Electron Energy =               -1010.5034453797558172
    Two-Electron Energy =                 413.0625100550615230
    Total Energy =                       -273.3142582096000410
  Basis Set: (AUG-CC-PVTZ AUX)
    Blend: AUG-CC-PVTZ-RI
    Molecular point group: c1

    Geometry (in Angstrom), charge = 0, multiplicity = 1:

       Center              X                  Y                   Z               Mass
    ------------   -----------------  -----------------  -----------------  -----------------
         C           -0.289444712251    -0.256202220893     0.265782353989    12.000000000000
         C            0.745174287749    -1.159799920893    -0.133167146011    12.000000000000
         C            0.255300287749     1.097009779107    -0.214930646011    12.000000000000
         C            2.103295287749    -0.483002220893     0.217961353989    12.000000000000
         C            1.791787287749     1.009367779107    -0.050359646011    12.000000000000
         C           -1.675499712251    -0.608801220893    -0.261509646011    12.000000000000
         C           -2.764196712251     0.363722779107     0.187500353989    12.000000000000
         H           -0.325096712251    -0.248250220893     1.366818353989     1.007825032230
         H            0.765575287749    -1.366526220893    -1.249147646011     1.007825032230
         H            0.731575287749    -2.210154220893     0.306579353989     1.007825032230
         H           -0.176410712251     1.946482779107     0.323362353989     1.007825032230
         H           -0.006918712251     1.222429779107    -1.273863646011     1.007825032230
         H            2.979822287749    -0.837269220893    -0.333665646011     1.007825032230
         H            2.310830287749    -0.639563220893     1.282484353989     1.007825032230
         H            2.142730287749     1.638108779107     0.773778353989     1.007825032230
         H            2.300302287749     1.364603779107    -0.952043646011     1.007825032230
         H           -1.935979712251    -1.624002220893     0.064889353989     1.007825032230
         H           -1.634501712251    -0.637192220893    -1.358986646011     1.007825032230
         H           -2.807249712251     0.420160779107     1.280023353989     1.007825032230
         H           -2.577300712251     1.371492779107    -0.193632646011     1.007825032230
         H           -3.748864712251     0.048628779107    -0.170868646011     1.007825032230

  Basis Set: AUG-CC-PVTZ
    Blend: AUG-CC-PVTZ
  Basis Set: (AUG-CC-PVTZ AUX)
    Blend: AUG-CC-PVTZ-JKFIT
	 Reference Energy          =    -273.3142582096000410 [Eh]
	 Singles Energy            =      -0.0000000000000000 [Eh]
	 Same-Spin Energy          =      -0.2980853893139682 [Eh]
	 Opposite-Spin Energy      =      -1.0784358741269686 [Eh]
	 Correlation Energy        =      -1.3765212634409369 [Eh]
	 Total Energy              =    -274.6907794730410046 [Eh]

	 ================> DF-SCS-MP2 Energies <==================
	-----------------------------------------------------------
	 SCS Same-Spin Scale       =       0.3333333333333333 [-]
	 SCS Opposite-Spin Scale   =       1.2000000000000000 [-]
	 SCS Same-Spin Energy      =      -0.0993617964379894 [Eh]
	 SCS Opposite-Spin Energy  =      -1.2941230489523623 [Eh]
	 SCS Correlation Energy    =      -1.3934848453903517 [Eh]
	 SCS Total Energy          =    -274.7077430549903738 [Eh]
	-----------------------------------------------------------

  Dipole Moment: [D]
     X:    -0.0124      Y:    -0.0160      Z:     0.0553     Total:     0.0589

*** Psi4 exiting successfully. Buy a developer a beer!
