                               Psi4 1.3.2 release

  ==> Input File <==

--------------------------------------------------------------------------
#psi4
#
memory 32 gb

molecule  {
0 1
  C       -0.2796410    -0.2534110     0.2699600
  C        0.9283395    -1.1281018    -0.0733592
  C        0.2651040     1.0998010    -0.2107530
  C        2.1130990    -0.4802110     0.2221390
  C        1.8015910     1.0121590    -0.0461820
  C       -1.6656960    -0.6060100    -0.2573320
  C       -2.7543930     0.3665140     0.1916780
  H       -0.3152930    -0.2454590     1.3709960
  H        0.7753790    -1.3637350    -1.2449700
  H        0.7413790    -2.2073630     0.3107570
  H       -0.1666070     1.9492740     0.3275400
  H        0.0028850     1.2252210    -1.2696860
  H        2.9896260    -0.8344780    -0.3294880
  H        2.3206340    -0.6367720     1.2866620
  H        2.1525340     1.6409000     0.7779560
  H        2.3101060     1.3673950    -0.9478660
  H       -1.9261760    -1.6212110     0.0690670
  H       -1.6246980    -0.6344010    -1.3548090
  H       -2.7974460     0.4229520     1.2842010
  H       -2.5674970     1.3742840    -0.1894550
  H       -3.7390610     0.0514200    -0.1666910
units angstrom
no_reorient  #important for SAPT in psi4, default
symmetry c1  #important for SAPT in psi4, default
}

set PROPERTIES_ORIGIN ["COM"]
properties('MP2/aug-cc-pvtz', properties = ['dipole'])
--------------------------------------------------------------------------

    Molecular point group: c1
  Charge       = 0
  Multiplicity = 1
  Basis Set: AUG-CC-PVTZ
    Blend: AUG-CC-PVTZ
  Basis Set: (AUG-CC-PVTZ AUX)
    Blend: AUG-CC-PVTZ-JKFIT

    Orbital Energies [Eh]
    ---------------------

    Doubly Occupied:

       1A    -11.218910     2A    -11.217108     3A    -11.215835
       4A    -11.213585     5A    -11.211195     6A    -11.209952
       7A    -11.205648     8A     -1.140740     9A     -1.042542
      10A     -0.965806    11A     -0.941229    12A     -0.835158
      13A     -0.766481    14A     -0.748781    15A     -0.652968
      16A     -0.640975    17A     -0.608048    18A     -0.572941
      19A     -0.559475    20A     -0.553559    21A     -0.513360
      22A     -0.491762    23A     -0.482898    24A     -0.467785
      25A     -0.450678    26A     -0.443642    27A     -0.431268
      28A     -0.418386

  @DF-RHF Final Energy:  -273.29502614564461

   => Energetics <=

    Nuclear Repulsion Energy =            324.2410730647437163
    One-Electron Energy =               -1010.6307706242070026
    Two-Electron Energy =                 413.0946714138186167
    Total Energy =                       -273.2950261456446128
  Basis Set: (AUG-CC-PVTZ AUX)
    Blend: AUG-CC-PVTZ-RI
    Molecular point group: c1

    Geometry (in Angstrom), charge = 0, multiplicity = 1:

       Center              X                  Y                   Z               Mass
    ------------   -----------------  -----------------  -----------------  -----------------
         C           -0.310648947623    -0.259737888913     0.258978086749    12.000000000000
         C            0.897331552377    -1.134428688913    -0.084341113251    12.000000000000
         C            0.234096052377     1.093474111087    -0.221734913251    12.000000000000
         C            2.082091052377    -0.486537888913     0.211157086749    12.000000000000
         C            1.770583052377     1.005832111087    -0.057163913251    12.000000000000
         C           -1.696703947623    -0.612336888913    -0.268313913251    12.000000000000
         C           -2.785400947623     0.360187111087     0.180696086749    12.000000000000
         H           -0.346300947623    -0.251785888913     1.360014086749     1.007825032230
         H            0.744371052377    -1.370061888913    -1.255951913251     1.007825032230
         H            0.710371052377    -2.213689888913     0.299775086749     1.007825032230
         H           -0.197614947623     1.942947111087     0.316558086749     1.007825032230
         H           -0.028122947623     1.218894111087    -1.280667913251     1.007825032230
         H            2.958618052377    -0.840804888913    -0.340469913251     1.007825032230
         H            2.289626052377    -0.643098888913     1.275680086749     1.007825032230
         H            2.121526052377     1.634573111087     0.766974086749     1.007825032230
         H            2.279098052377     1.361068111087    -0.958847913251     1.007825032230
         H           -1.957183947623    -1.627537888913     0.058085086749     1.007825032230
         H           -1.655705947623    -0.640727888913    -1.365790913251     1.007825032230
         H           -2.828453947623     0.416625111087     1.273219086749     1.007825032230
         H           -2.598504947623     1.367957111087    -0.200436913251     1.007825032230
         H           -3.770068947623     0.045093111087    -0.177672913251     1.007825032230

  Basis Set: AUG-CC-PVTZ
    Blend: AUG-CC-PVTZ
  Basis Set: (AUG-CC-PVTZ AUX)
    Blend: AUG-CC-PVTZ-JKFIT
	 Reference Energy          =    -273.2950261456446128 [Eh]
	 Singles Energy            =      -0.0000000000000000 [Eh]
	 Same-Spin Energy          =      -0.2990400413236428 [Eh]
	 Opposite-Spin Energy      =      -1.0796307270115322 [Eh]
	 Correlation Energy        =      -1.3786707683351751 [Eh]
	 Total Energy              =    -274.6736969139797679 [Eh]

	 ================> DF-SCS-MP2 Energies <==================
	-----------------------------------------------------------
	 SCS Same-Spin Scale       =       0.3333333333333333 [-]
	 SCS Opposite-Spin Scale   =       1.2000000000000000 [-]
	 SCS Same-Spin Energy      =      -0.0996800137745476 [Eh]
	 SCS Opposite-Spin Energy  =      -1.2955568724138387 [Eh]
	 SCS Correlation Energy    =      -1.3952368861883864 [Eh]
	 SCS Total Energy          =    -274.6902630318330125 [Eh]
	-----------------------------------------------------------

  Dipole Moment: [D]
     X:    -0.0149      Y:     0.0347      Z:     0.1122     Total:     0.1184

*** Psi4 exiting successfully. Buy a developer a beer!
