                               Psi4 1.4a3.dev225

  ==> Input File <==

--------------------------------------------------------------------------
#psi4
#
memory 32 gb

molecule  {
0 1
  C       -0.2796410    -0.2534110     0.2699600
  C        0.7911430    -1.1885938    -0.1429348
  C        0.2651040     1.0998010    -0.2107530
  C        2.1130990    -0.4802110     0.2221390
  C        1.8015910     1.0121590    -0.0461820
  C       -1.6656960    -0.6060100    -0.2573320
  C       -2.7543930     0.3665140     0.1916780
  H       -0.3152930    -0.2454590     1.3709960
  H        0.7753790    -1.3637350    -1.2449700
  H        0.7413790    -2.2073630     0.3107570
  H       -0.1666070     1.9492740     0.3275400
  H        0.0028850     1.2252210    -1.2696860
  H        2.9896260    -0.8344780    -0.3294880
  H        2.3206340    -0.6367720     1.2866620
  H        2.1525340     1.6409000     0.7779560
  H        2.3101060     1.3673950    -0.9478660
  H       -1.9261760    -1.6212110     0.0690670
  H       -1.6246980    -0.6344010    -1.3548090
  H       -2.7974460     0.4229520     1.2842010
  H       -2.5674970     1.3742840    -0.1894550
  H       -3.7390610     0.0514200    -0.1666910
units angstrom
no_reorient  #important for SAPT in psi4, default
symmetry c1  #important for SAPT in psi4, default
}

set PROPERTIES_ORIGIN ["COM"]
properties('MP2/aug-cc-pvtz', properties = ['dipole'])
--------------------------------------------------------------------------

    Molecular point group: c1
  Charge       = 0
  Multiplicity = 1
  Basis Set: AUG-CC-PVTZ
    Blend: AUG-CC-PVTZ
  Basis Set: (AUG-CC-PVTZ AUX)
    Blend: AUG-CC-PVTZ-JKFIT

    Orbital Energies [Eh]
    ---------------------

    Doubly Occupied:

       1A    -11.214160     2A    -11.212808     3A    -11.212239
       4A    -11.211587     5A    -11.211166     6A    -11.210417
       7A    -11.208948     8A     -1.129755     9A     -1.034049
      10A     -0.956023    11A     -0.941405    12A     -0.833620
      13A     -0.769668    14A     -0.753029    15A     -0.652505
      16A     -0.631483    17A     -0.604427    18A     -0.569263
      19A     -0.557358    20A     -0.552182    21A     -0.513560
      22A     -0.484102    23A     -0.469449    24A     -0.462940
      25A     -0.452332    26A     -0.446320    27A     -0.443041
      28A     -0.438422

  @DF-RHF Final Energy:  -273.32262290670502

   => Energetics <=

    Nuclear Repulsion Energy =            323.4387449758967250
    One-Electron Energy =               -1009.1702265664567904
    Two-Electron Energy =                 412.4088586838550441
    Total Energy =                       -273.3226229067050213
  Basis Set: (AUG-CC-PVTZ AUX)
    Blend: AUG-CC-PVTZ-RI
    Molecular point group: c1

    Geometry (in Angstrom), charge = 0, multiplicity = 1:

       Center              X                  Y                   Z               Mass
    ------------   -----------------  -----------------  -----------------  -----------------
         C           -0.293868134823    -0.252338976201     0.267488035028    12.000000000000
         C            0.776915865177    -1.187521776201    -0.145406764972    12.000000000000
         C            0.250876865177     1.100873023799    -0.213224964972    12.000000000000
         C            2.098871865177    -0.479138976201     0.219667035028    12.000000000000
         C            1.787363865177     1.013231023799    -0.048653964972    12.000000000000
         C           -1.679923134823    -0.604937976201    -0.259803964972    12.000000000000
         C           -2.768620134823     0.367586023799     0.189206035028    12.000000000000
         H           -0.329520134823    -0.244386976201     1.368524035028     1.007825032230
         H            0.761151865177    -1.362662976201    -1.247441964972     1.007825032230
         H            0.727151865177    -2.206290976201     0.308285035028     1.007825032230
         H           -0.180834134823     1.950346023799     0.325068035028     1.007825032230
         H           -0.011342134823     1.226293023799    -1.272157964972     1.007825032230
         H            2.975398865177    -0.833405976201    -0.331959964972     1.007825032230
         H            2.306406865177    -0.635699976201     1.284190035028     1.007825032230
         H            2.138306865177     1.641972023799     0.775484035028     1.007825032230
         H            2.295878865177     1.368467023799    -0.950337964972     1.007825032230
         H           -1.940403134823    -1.620138976201     0.066595035028     1.007825032230
         H           -1.638925134823    -0.633328976201    -1.357280964972     1.007825032230
         H           -2.811673134823     0.424024023799     1.281729035028     1.007825032230
         H           -2.581724134823     1.375356023799    -0.191926964972     1.007825032230
         H           -3.753288134823     0.052492023799    -0.169162964972     1.007825032230

  Basis Set: AUG-CC-PVTZ
    Blend: AUG-CC-PVTZ
  Basis Set: (AUG-CC-PVTZ AUX)
    Blend: AUG-CC-PVTZ-JKFIT
	 Reference Energy          =    -273.3226229067050213 [Eh]
	 Singles Energy            =      -0.0000000000000000 [Eh]
	 Same-Spin Energy          =      -0.2975038393824651 [Eh]
	 Opposite-Spin Energy      =      -1.0776641954636952 [Eh]
	 Correlation Energy        =      -1.3751680348461601 [Eh]
	 Total Energy              =    -274.6977909415512045 [Eh]

	 ================> DF-SCS-MP2 Energies <==================
	-----------------------------------------------------------
	 SCS Same-Spin Scale       =       0.3333333333333333 [-]
	 SCS Opposite-Spin Scale   =       1.2000000000000000 [-]
	 SCS Same-Spin Energy      =      -0.0991679464608217 [Eh]
	 SCS Opposite-Spin Energy  =      -1.2931970345564341 [Eh]
	 SCS Correlation Energy    =      -1.3923649810172558 [Eh]
	 SCS Total Energy          =    -274.7149878877222591 [Eh]
	-----------------------------------------------------------

  Dipole Moment: [D]
     X:    -0.0085      Y:    -0.0358      Z:     0.0515     Total:     0.0633

*** Psi4 exiting successfully. Buy a developer a beer!
