                               Psi4 1.4a3.dev225

  ==> Input File <==

--------------------------------------------------------------------------
#psi4
#
memory 32 gb

molecule  {
0 1
  C       -0.2796410    -0.2534110     0.2699600
  C        0.8273080    -1.2201790    -0.1568800
  C        0.2651040     1.0998010    -0.2107530
  C        2.1130990    -0.4802110     0.2221390
  C        1.8015910     1.0121590    -0.0461820
  C       -1.6838820    -0.6106364    -0.2642504
  C       -2.7543930     0.3665140     0.1916780
  H       -0.3152930    -0.2454590     1.3709960
  H        0.7753790    -1.3637350    -1.2449700
  H        0.7413790    -2.2073630     0.3107570
  H       -0.1666070     1.9492740     0.3275400
  H        0.0028850     1.2252210    -1.2696860
  H        2.9896260    -0.8344780    -0.3294880
  H        2.3206340    -0.6367720     1.2866620
  H        2.1525340     1.6409000     0.7779560
  H        2.3101060     1.3673950    -0.9478660
  H       -1.9261760    -1.6212110     0.0690670
  H       -1.6246980    -0.6344010    -1.3548090
  H       -2.7974460     0.4229520     1.2842010
  H       -2.5674970     1.3742840    -0.1894550
  H       -3.7390610     0.0514200    -0.1666910
units angstrom
no_reorient  #important for SAPT in psi4, default
symmetry c1  #important for SAPT in psi4, default
}

set PROPERTIES_ORIGIN ["COM"]
properties('MP2/aug-cc-pvtz', properties = ['dipole'])
--------------------------------------------------------------------------

    Molecular point group: c1
  Charge       = 0
  Multiplicity = 1
  Basis Set: AUG-CC-PVTZ
    Blend: AUG-CC-PVTZ
  Basis Set: (AUG-CC-PVTZ AUX)
    Blend: AUG-CC-PVTZ-JKFIT

    Orbital Energies [Eh]
    ---------------------

    Doubly Occupied:

       1A    -11.215531     2A    -11.213101     3A    -11.211989
       4A    -11.211340     5A    -11.209996     6A    -11.209482
       7A    -11.208439     8A     -1.123510     9A     -1.033837
      10A     -0.955742    11A     -0.939445    12A     -0.833219
      13A     -0.770548    14A     -0.751402    15A     -0.651729
      16A     -0.629030    17A     -0.605664    18A     -0.568791
      19A     -0.556574    20A     -0.552033    21A     -0.514678
      22A     -0.486363    23A     -0.472060    24A     -0.464136
      25A     -0.452092    26A     -0.444183    27A     -0.440220
      28A     -0.436750

  @DF-RHF Final Energy:  -273.32521374187792

   => Energetics <=

    Nuclear Repulsion Energy =            322.5306625281173751
    One-Electron Energy =               -1007.3879809123357063
    Two-Electron Energy =                 411.5321046423404709
    Total Energy =                       -273.3252137418779171
  Basis Set: (AUG-CC-PVTZ AUX)
    Blend: AUG-CC-PVTZ-RI
    Molecular point group: c1

    Geometry (in Angstrom), charge = 0, multiplicity = 1:

       Center              X                  Y                   Z               Mass
    ------------   -----------------  -----------------  -----------------  -----------------
         C           -0.296067186791    -0.247909853878     0.270039908917    12.000000000000
         C            0.810881813209    -1.214677853878    -0.156800091083    12.000000000000
         C            0.248677813209     1.105302146122    -0.210673091083    12.000000000000
         C            2.096672813209    -0.474709853878     0.222218908917    12.000000000000
         C            1.785164813209     1.017660146122    -0.046102091083    12.000000000000
         C           -1.700308186791    -0.605135253878    -0.264170491083    12.000000000000
         C           -2.770819186791     0.372015146122     0.191757908917    12.000000000000
         H           -0.331719186791    -0.239957853878     1.371075908917     1.007825032230
         H            0.758952813209    -1.358233853878    -1.244890091083     1.007825032230
         H            0.724952813209    -2.201861853878     0.310836908917     1.007825032230
         H           -0.183033186791     1.954775146122     0.327619908917     1.007825032230
         H           -0.013541186791     1.230722146122    -1.269606091083     1.007825032230
         H            2.973199813209    -0.828976853878    -0.329408091083     1.007825032230
         H            2.304207813209    -0.631270853878     1.286741908917     1.007825032230
         H            2.136107813209     1.646401146122     0.778035908917     1.007825032230
         H            2.293679813209     1.372896146122    -0.947786091083     1.007825032230
         H           -1.942602186791    -1.615709853878     0.069146908917     1.007825032230
         H           -1.641124186791    -0.628899853878    -1.354729091083     1.007825032230
         H           -2.813872186791     0.428453146122     1.284280908917     1.007825032230
         H           -2.583923186791     1.379785146122    -0.189375091083     1.007825032230
         H           -3.755487186791     0.056921146122    -0.166611091083     1.007825032230

  Basis Set: AUG-CC-PVTZ
    Blend: AUG-CC-PVTZ
  Basis Set: (AUG-CC-PVTZ AUX)
    Blend: AUG-CC-PVTZ-JKFIT
	 Reference Energy          =    -273.3252137418779171 [Eh]
	 Singles Energy            =      -0.0000000000000000 [Eh]
	 Same-Spin Energy          =      -0.2970902662421611 [Eh]
	 Opposite-Spin Energy      =      -1.0772361060408158 [Eh]
	 Correlation Energy        =      -1.3743263722829768 [Eh]
	 Total Energy              =    -274.6995401141608681 [Eh]

	 ================> DF-SCS-MP2 Energies <==================
	-----------------------------------------------------------
	 SCS Same-Spin Scale       =       0.3333333333333333 [-]
	 SCS Opposite-Spin Scale   =       1.2000000000000000 [-]
	 SCS Same-Spin Energy      =      -0.0990300887473870 [Eh]
	 SCS Opposite-Spin Energy  =      -1.2926833272489788 [Eh]
	 SCS Correlation Energy    =      -1.3917134159963658 [Eh]
	 SCS Total Energy          =    -274.7169271578742951 [Eh]
	-----------------------------------------------------------

  Dipole Moment: [D]
     X:    -0.0181      Y:    -0.0483      Z:     0.0487     Total:     0.0710

*** Psi4 exiting successfully. Buy a developer a beer!
