                               Psi4 1.3.2 release

  ==> Input File <==

--------------------------------------------------------------------------
#psi4
#
memory 32 gb

molecule  {
0 1
  C       -0.2796410    -0.2534110     0.2699600
  C        0.8450204    -1.2055425    -0.1432605
  C        0.2651040     1.0998010    -0.2107530
  C        2.1130990    -0.4802110     0.2221390
  C        1.8015910     1.0121590    -0.0461820
  C       -1.6656960    -0.6060100    -0.2573320
  C       -2.7543930     0.3665140     0.1916780
  H       -0.3152930    -0.2454590     1.3709960
  H        0.7753790    -1.3637350    -1.2449700
  H        0.7413790    -2.2073630     0.3107570
  H       -0.1666070     1.9492740     0.3275400
  H        0.0028850     1.2252210    -1.2696860
  H        2.9896260    -0.8344780    -0.3294880
  H        2.3206340    -0.6367720     1.2866620
  H        2.1525340     1.6409000     0.7779560
  H        2.3101060     1.3673950    -0.9478660
  H       -1.9261760    -1.6212110     0.0690670
  H       -1.6246980    -0.6344010    -1.3548090
  H       -2.7974460     0.4229520     1.2842010
  H       -2.5674970     1.3742840    -0.1894550
  H       -3.7390610     0.0514200    -0.1666910
units angstrom
no_reorient  #important for SAPT in psi4, default
symmetry c1  #important for SAPT in psi4, default
}

set PROPERTIES_ORIGIN ["COM"]
properties('MP2/aug-cc-pvtz', properties = ['dipole'])
--------------------------------------------------------------------------

    Molecular point group: c1
  Charge       = 0
  Multiplicity = 1
  Basis Set: AUG-CC-PVTZ
    Blend: AUG-CC-PVTZ
  Basis Set: (AUG-CC-PVTZ AUX)
    Blend: AUG-CC-PVTZ-JKFIT

    Orbital Energies [Eh]
    ---------------------

    Doubly Occupied:

       1A    -11.214963     2A    -11.214039     3A    -11.212146
       4A    -11.211021     5A    -11.210325     6A    -11.210045
       7A    -11.209143     8A     -1.126665     9A     -1.035065
      10A     -0.956900    11A     -0.940182    12A     -0.833772
      13A     -0.769410    14A     -0.751708    15A     -0.651976
      16A     -0.631652    17A     -0.604979    18A     -0.568270
      19A     -0.556274    20A     -0.553084    21A     -0.513026
      22A     -0.484722    23A     -0.474065    24A     -0.463752
      25A     -0.449503    26A     -0.446986    27A     -0.443308
      28A     -0.435617

  @DF-RHF Final Energy:  -273.32447618752133

   => Energetics <=

    Nuclear Repulsion Energy =            322.9930706899806978
    One-Electron Energy =               -1008.2898919821841446
    Two-Electron Energy =                 411.9723451046821765
    Total Energy =                       -273.3244761875213271
  Basis Set: (AUG-CC-PVTZ AUX)
    Blend: AUG-CC-PVTZ-RI
    Molecular point group: c1

    Geometry (in Angstrom), charge = 0, multiplicity = 1:

       Center              X                  Y                   Z               Mass
    ------------   -----------------  -----------------  -----------------  -----------------
         C           -0.300458000917    -0.250265942546     0.267527872129    12.000000000000
         C            0.824203399083    -1.202397442546    -0.145692627871    12.000000000000
         C            0.244286999083     1.102946057454    -0.213185127871    12.000000000000
         C            2.092281999083    -0.477065942546     0.219706872129    12.000000000000
         C            1.780773999083     1.015304057454    -0.048614127871    12.000000000000
         C           -1.686513000917    -0.602864942546    -0.259764127871    12.000000000000
         C           -2.775210000917     0.369659057454     0.189245872129    12.000000000000
         H           -0.336110000917    -0.242313942546     1.368563872129     1.007825032230
         H            0.754561999083    -1.360589942546    -1.247402127871     1.007825032230
         H            0.720561999083    -2.204217942546     0.308324872129     1.007825032230
         H           -0.187424000917     1.952419057454     0.325107872129     1.007825032230
         H           -0.017932000917     1.228366057454    -1.272118127871     1.007825032230
         H            2.968808999083    -0.831332942546    -0.331920127871     1.007825032230
         H            2.299816999083    -0.633626942546     1.284229872129     1.007825032230
         H            2.131716999083     1.644045057454     0.775523872129     1.007825032230
         H            2.289288999083     1.370540057454    -0.950298127871     1.007825032230
         H           -1.946993000917    -1.618065942546     0.066634872129     1.007825032230
         H           -1.645515000917    -0.631255942546    -1.357241127871     1.007825032230
         H           -2.818263000917     0.426097057454     1.281768872129     1.007825032230
         H           -2.588314000917     1.377429057454    -0.191887127871     1.007825032230
         H           -3.759878000917     0.054565057454    -0.169123127871     1.007825032230

  Basis Set: AUG-CC-PVTZ
    Blend: AUG-CC-PVTZ
  Basis Set: (AUG-CC-PVTZ AUX)
    Blend: AUG-CC-PVTZ-JKFIT
	 Reference Energy          =    -273.3244761875213271 [Eh]
	 Singles Energy            =      -0.0000000000000000 [Eh]
	 Same-Spin Energy          =      -0.2973285772672653 [Eh]
	 Opposite-Spin Energy      =      -1.0774259385149374 [Eh]
	 Correlation Energy        =      -1.3747545157822028 [Eh]
	 Total Energy              =    -274.6992307033035559 [Eh]

	 ================> DF-SCS-MP2 Energies <==================
	-----------------------------------------------------------
	 SCS Same-Spin Scale       =       0.3333333333333333 [-]
	 SCS Opposite-Spin Scale   =       1.2000000000000000 [-]
	 SCS Same-Spin Energy      =      -0.0991095257557551 [Eh]
	 SCS Opposite-Spin Energy  =      -1.2929111262179249 [Eh]
	 SCS Correlation Energy    =      -1.3920206519736800 [Eh]
	 SCS Total Energy          =    -274.7164968394949938 [Eh]
	-----------------------------------------------------------

  Dipole Moment: [D]
     X:    -0.0125      Y:    -0.0391      Z:     0.0573     Total:     0.0705

*** Psi4 exiting successfully. Buy a developer a beer!
