                               Psi4 1.3.2 release

  ==> Input File <==

--------------------------------------------------------------------------
#psi4
#
memory 32 gb

molecule  {
0 1
  C       -0.2796410    -0.2534110     0.2699600
  C        0.8273080    -1.2201790    -0.1568800
  C        0.2651040     1.0998010    -0.2107530
  C        2.0642393    -0.4906678     0.3744211
  C        1.8015910     1.0121590    -0.0461820
  C       -1.6656960    -0.6060100    -0.2573320
  C       -2.7543930     0.3665140     0.1916780
  H       -0.3152930    -0.2454590     1.3709960
  H        0.7753790    -1.3637350    -1.2449700
  H        0.7413790    -2.2073630     0.3107570
  H       -0.1666070     1.9492740     0.3275400
  H        0.0028850     1.2252210    -1.2696860
  H        2.9896260    -0.8344780    -0.3294880
  H        2.3206340    -0.6367720     1.2866620
  H        2.1525340     1.6409000     0.7779560
  H        2.3101060     1.3673950    -0.9478660
  H       -1.9261760    -1.6212110     0.0690670
  H       -1.6246980    -0.6344010    -1.3548090
  H       -2.7974460     0.4229520     1.2842010
  H       -2.5674970     1.3742840    -0.1894550
  H       -3.7390610     0.0514200    -0.1666910
units angstrom
no_reorient  #important for SAPT in psi4, default
symmetry c1  #important for SAPT in psi4, default
}

set PROPERTIES_ORIGIN ["COM"]
properties('MP2/aug-cc-pvtz', properties = ['dipole'])
--------------------------------------------------------------------------

    Molecular point group: c1
  Charge       = 0
  Multiplicity = 1
  Basis Set: AUG-CC-PVTZ
    Blend: AUG-CC-PVTZ
  Basis Set: (AUG-CC-PVTZ AUX)
    Blend: AUG-CC-PVTZ-JKFIT

    Orbital Energies [Eh]
    ---------------------

    Doubly Occupied:

       1A    -11.214611     2A    -11.214574     3A    -11.213116
       4A    -11.213078     5A    -11.211469     6A    -11.209529
       7A    -11.208540     8A     -1.125129     9A     -1.032824
      10A     -0.957770    11A     -0.938307    12A     -0.833169
      13A     -0.785829    14A     -0.749639    15A     -0.654241
      16A     -0.623163    17A     -0.605298    18A     -0.579166
      19A     -0.564753    20A     -0.543985    21A     -0.514162
      22A     -0.488230    23A     -0.478396    24A     -0.468405
      25A     -0.448370    26A     -0.442700    27A     -0.438369
      28A     -0.420237

  @DF-RHF Final Energy:  -273.29449466082292

   => Energetics <=

    Nuclear Repulsion Energy =            322.8401467184938269
    One-Electron Energy =               -1007.9151660531003927
    Two-Electron Energy =                 411.7805246737837024
    Total Energy =                       -273.2944946608229202
  Basis Set: (AUG-CC-PVTZ AUX)
    Blend: AUG-CC-PVTZ-RI
    Molecular point group: c1

    Geometry (in Angstrom), charge = 0, multiplicity = 1:

       Center              X                  Y                   Z               Mass
    ------------   -----------------  -----------------  -----------------  -----------------
         C           -0.292315417485    -0.247196724527     0.250567737337    12.000000000000
         C            0.814633582515    -1.213964724527    -0.176272262663    12.000000000000
         C            0.252429582515     1.106015275473    -0.230145262663    12.000000000000
         C            2.051564882515    -0.484453524527     0.355028837337    12.000000000000
         C            1.788916582515     1.018373275473    -0.065574262663    12.000000000000
         C           -1.678370417485    -0.599795724527    -0.276724262663    12.000000000000
         C           -2.767067417485     0.372728275473     0.172285737337    12.000000000000
         H           -0.327967417485    -0.239244724527     1.351603737337     1.007825032230
         H            0.762704582515    -1.357520724527    -1.264362262663     1.007825032230
         H            0.728704582515    -2.201148724527     0.291364737337     1.007825032230
         H           -0.179281417485     1.955488275473     0.308147737337     1.007825032230
         H           -0.009789417485     1.231435275473    -1.289078262663     1.007825032230
         H            2.976951582515    -0.828263724527    -0.348880262663     1.007825032230
         H            2.307959582515    -0.630557724527     1.267269737337     1.007825032230
         H            2.139859582515     1.647114275473     0.758563737337     1.007825032230
         H            2.297431582515     1.373609275473    -0.967258262663     1.007825032230
         H           -1.938850417485    -1.614996724527     0.049674737337     1.007825032230
         H           -1.637372417485    -0.628186724527    -1.374201262663     1.007825032230
         H           -2.810120417485     0.429166275473     1.264808737337     1.007825032230
         H           -2.580171417485     1.380498275473    -0.208847262663     1.007825032230
         H           -3.751735417485     0.057634275473    -0.186083262663     1.007825032230

  Basis Set: AUG-CC-PVTZ
    Blend: AUG-CC-PVTZ
  Basis Set: (AUG-CC-PVTZ AUX)
    Blend: AUG-CC-PVTZ-JKFIT
	 Reference Energy          =    -273.2944946608229202 [Eh]
	 Singles Energy            =      -0.0000000000000000 [Eh]
	 Same-Spin Energy          =      -0.2975847464052673 [Eh]
	 Opposite-Spin Energy      =      -1.0786498759597538 [Eh]
	 Correlation Energy        =      -1.3762346223650210 [Eh]
	 Total Energy              =    -274.6707292831879386 [Eh]

	 ================> DF-SCS-MP2 Energies <==================
	-----------------------------------------------------------
	 SCS Same-Spin Scale       =       0.3333333333333333 [-]
	 SCS Opposite-Spin Scale   =       1.2000000000000000 [-]
	 SCS Same-Spin Energy      =      -0.0991949154684224 [Eh]
	 SCS Opposite-Spin Energy  =      -1.2943798511517046 [Eh]
	 SCS Correlation Energy    =      -1.3935747666201270 [Eh]
	 SCS Total Energy          =    -274.6880694274430539 [Eh]
	-----------------------------------------------------------

  Dipole Moment: [D]
     X:    -0.0708      Y:    -0.0319      Z:     0.1214     Total:     0.1441

*** Psi4 exiting successfully. Buy a developer a beer!
