                               Psi4 1.3.2 release

  ==> Input File <==

--------------------------------------------------------------------------
#psi4
#
memory 32 gb

molecule  {
0 1
  C       -0.2796410    -0.2534110     0.2699600
  C        0.8051879    -1.1732458    -0.1696999
  C        0.2651040     1.0998010    -0.2107530
  C        2.1130990    -0.4802110     0.2221390
  C        1.8015910     1.0121590    -0.0461820
  C       -1.6656960    -0.6060100    -0.2573320
  C       -2.7543930     0.3665140     0.1916780
  H       -0.3152930    -0.2454590     1.3709960
  H        0.7753790    -1.3637350    -1.2449700
  H        0.7413790    -2.2073630     0.3107570
  H       -0.1666070     1.9492740     0.3275400
  H        0.0028850     1.2252210    -1.2696860
  H        2.9896260    -0.8344780    -0.3294880
  H        2.3206340    -0.6367720     1.2866620
  H        2.1525340     1.6409000     0.7779560
  H        2.3101060     1.3673950    -0.9478660
  H       -1.9261760    -1.6212110     0.0690670
  H       -1.6246980    -0.6344010    -1.3548090
  H       -2.7974460     0.4229520     1.2842010
  H       -2.5674970     1.3742840    -0.1894550
  H       -3.7390610     0.0514200    -0.1666910
units angstrom
no_reorient  #important for SAPT in psi4, default
symmetry c1  #important for SAPT in psi4, default
}

set PROPERTIES_ORIGIN ["COM"]
properties('MP2/aug-cc-pvtz', properties = ['dipole'])
--------------------------------------------------------------------------

    Molecular point group: c1
  Charge       = 0
  Multiplicity = 1
  Basis Set: AUG-CC-PVTZ
    Blend: AUG-CC-PVTZ
  Basis Set: (AUG-CC-PVTZ AUX)
    Blend: AUG-CC-PVTZ-JKFIT

    Orbital Energies [Eh]
    ---------------------

    Doubly Occupied:

       1A    -11.214278     2A    -11.213084     3A    -11.211912
       4A    -11.211391     5A    -11.211037     6A    -11.210048
       7A    -11.209089     8A     -1.130292     9A     -1.034619
      10A     -0.955165    11A     -0.941831    12A     -0.833790
      13A     -0.770050    14A     -0.753293    15A     -0.649980
      16A     -0.632471    17A     -0.604826    18A     -0.570814
      19A     -0.557939    20A     -0.552751    21A     -0.513176
      22A     -0.484985    23A     -0.468619    24A     -0.458799
      25A     -0.453468    26A     -0.447232    27A     -0.446049
      28A     -0.436669

  @DF-RHF Final Energy:  -273.32195493986296

   => Energetics <=

    Nuclear Repulsion Energy =            323.5356342707597150
    One-Electron Energy =               -1009.3598680018899358
    Two-Electron Energy =                 412.5022787912672584
    Total Energy =                       -273.3219549398629624
  Basis Set: (AUG-CC-PVTZ AUX)
    Blend: AUG-CC-PVTZ-RI
    Molecular point group: c1

    Geometry (in Angstrom), charge = 0, multiplicity = 1:

       Center              X                  Y                   Z               Mass
    ------------   -----------------  -----------------  -----------------  -----------------
         C           -0.295585998163    -0.254216224636     0.270761734668    12.000000000000
         C            0.789242901837    -1.174051024636    -0.168898165332    12.000000000000
         C            0.249159001837     1.098995775364    -0.209951265332    12.000000000000
         C            2.097154001837    -0.481016224636     0.222940734668    12.000000000000
         C            1.785646001837     1.011353775364    -0.045380265332    12.000000000000
         C           -1.681640998163    -0.606815224636    -0.256530265332    12.000000000000
         C           -2.770337998163     0.365708775364     0.192479734668    12.000000000000
         H           -0.331237998163    -0.246264224636     1.371797734668     1.007825032230
         H            0.759434001837    -1.364540224636    -1.244168265332     1.007825032230
         H            0.725434001837    -2.208168224636     0.311558734668     1.007825032230
         H           -0.182551998163     1.948468775364     0.328341734668     1.007825032230
         H           -0.013059998163     1.224415775364    -1.268884265332     1.007825032230
         H            2.973681001837    -0.835283224636    -0.328686265332     1.007825032230
         H            2.304689001837    -0.637577224636     1.287463734668     1.007825032230
         H            2.136589001837     1.640094775364     0.778757734668     1.007825032230
         H            2.294161001837     1.366589775364    -0.947064265332     1.007825032230
         H           -1.942120998163    -1.622016224636     0.069868734668     1.007825032230
         H           -1.640642998163    -0.635206224636    -1.354007265332     1.007825032230
         H           -2.813390998163     0.422146775364     1.285002734668     1.007825032230
         H           -2.583441998163     1.373478775364    -0.188653265332     1.007825032230
         H           -3.755005998163     0.050614775364    -0.165889265332     1.007825032230

  Basis Set: AUG-CC-PVTZ
    Blend: AUG-CC-PVTZ
  Basis Set: (AUG-CC-PVTZ AUX)
    Blend: AUG-CC-PVTZ-JKFIT
	 Reference Energy          =    -273.3219549398629624 [Eh]
	 Singles Energy            =      -0.0000000000000000 [Eh]
	 Same-Spin Energy          =      -0.2975401080181803 [Eh]
	 Opposite-Spin Energy      =      -1.0776721343733022 [Eh]
	 Correlation Energy        =      -1.3752122423914825 [Eh]
	 Total Energy              =    -274.6971671822544181 [Eh]

	 ================> DF-SCS-MP2 Energies <==================
	-----------------------------------------------------------
	 SCS Same-Spin Scale       =       0.3333333333333333 [-]
	 SCS Opposite-Spin Scale   =       1.2000000000000000 [-]
	 SCS Same-Spin Energy      =      -0.0991800360060601 [Eh]
	 SCS Opposite-Spin Energy  =      -1.2932065612479626 [Eh]
	 SCS Correlation Energy    =      -1.3923865972540228 [Eh]
	 SCS Total Energy          =    -274.7143415371169795 [Eh]
	-----------------------------------------------------------

  Dipole Moment: [D]
     X:    -0.0088      Y:    -0.0263      Z:     0.0303     Total:     0.0411

*** Psi4 exiting successfully. Buy a developer a beer!
