                               Psi4 1.3.2 release

  ==> Input File <==

--------------------------------------------------------------------------
#psi4
#
memory 32 gb

molecule  {
0 1
  C       -0.2796410    -0.2534110     0.2699600
  C        0.8273080    -1.2201790    -0.1568800
  C        0.2651040     1.0998010    -0.2107530
  C        2.1378725    -0.4777404     0.1182055
  C        1.8015910     1.0121590    -0.0461820
  C       -1.6656960    -0.6060100    -0.2573320
  C       -2.7543930     0.3665140     0.1916780
  H       -0.3152930    -0.2454590     1.3709960
  H        0.7753790    -1.3637350    -1.2449700
  H        0.7413790    -2.2073630     0.3107570
  H       -0.1666070     1.9492740     0.3275400
  H        0.0028850     1.2252210    -1.2696860
  H        2.9896260    -0.8344780    -0.3294880
  H        2.3206340    -0.6367720     1.2866620
  H        2.1525340     1.6409000     0.7779560
  H        2.3101060     1.3673950    -0.9478660
  H       -1.9261760    -1.6212110     0.0690670
  H       -1.6246980    -0.6344010    -1.3548090
  H       -2.7974460     0.4229520     1.2842010
  H       -2.5674970     1.3742840    -0.1894550
  H       -3.7390610     0.0514200    -0.1666910
units angstrom
no_reorient  #important for SAPT in psi4, default
symmetry c1  #important for SAPT in psi4, default
}

set PROPERTIES_ORIGIN ["COM"]
properties('MP2/aug-cc-pvtz', properties = ['dipole'])
--------------------------------------------------------------------------

    Molecular point group: c1
  Charge       = 0
  Multiplicity = 1
  Basis Set: AUG-CC-PVTZ
    Blend: AUG-CC-PVTZ
  Basis Set: (AUG-CC-PVTZ AUX)
    Blend: AUG-CC-PVTZ-JKFIT

    Orbital Energies [Eh]
    ---------------------

    Doubly Occupied:

       1A    -11.215961     2A    -11.214524     3A    -11.214364
       4A    -11.212673     5A    -11.211286     6A    -11.210707
       7A    -11.209282     8A     -1.125207     9A     -1.035171
      10A     -0.956571    11A     -0.941841    12A     -0.834767
      13A     -0.770295    14A     -0.753399    15A     -0.652214
      16A     -0.635604    17A     -0.603803    18A     -0.567328
      19A     -0.557842    20A     -0.550281    21A     -0.513162
      22A     -0.487782    23A     -0.478007    24A     -0.472685
      25A     -0.448964    26A     -0.446017    27A     -0.437979
      28A     -0.424140

  @DF-RHF Final Energy:  -273.31333448736996

   => Energetics <=

    Nuclear Repulsion Energy =            322.6968888375237157
    One-Electron Energy =               -1007.6567362740232738
    Two-Electron Energy =                 411.6465129491296011
    Total Energy =                       -273.3133344873699571
  Basis Set: (AUG-CC-PVTZ AUX)
    Blend: AUG-CC-PVTZ-RI
    Molecular point group: c1

    Geometry (in Angstrom), charge = 0, multiplicity = 1:

       Center              X                  Y                   Z               Mass
    ------------   -----------------  -----------------  -----------------  -----------------
         C           -0.301321659955    -0.248777903926     0.281906044218    12.000000000000
         C            0.805627340045    -1.215545903926    -0.144933955782    12.000000000000
         C            0.243423340045     1.104434096074    -0.198806955782    12.000000000000
         C            2.116191840045    -0.473107303926     0.130151544218    12.000000000000
         C            1.779910340045     1.016792096074    -0.034235955782    12.000000000000
         C           -1.687376659955    -0.601376903926    -0.245385955782    12.000000000000
         C           -2.776073659955     0.371147096074     0.203624044218    12.000000000000
         H           -0.336973659955    -0.240825903926     1.382942044218     1.007825032230
         H            0.753698340045    -1.359101903926    -1.233023955782     1.007825032230
         H            0.719698340045    -2.202729903926     0.322703044218     1.007825032230
         H           -0.188287659955     1.953907096074     0.339486044218     1.007825032230
         H           -0.018795659955     1.229854096074    -1.257739955782     1.007825032230
         H            2.967945340045    -0.829844903926    -0.317541955782     1.007825032230
         H            2.298953340045    -0.632138903926     1.298608044218     1.007825032230
         H            2.130853340045     1.645533096074     0.789902044218     1.007825032230
         H            2.288425340045     1.372028096074    -0.935919955782     1.007825032230
         H           -1.947856659955    -1.616577903926     0.081013044218     1.007825032230
         H           -1.646378659955    -0.629767903926    -1.342862955782     1.007825032230
         H           -2.819126659955     0.427585096074     1.296147044218     1.007825032230
         H           -2.589177659955     1.378917096074    -0.177508955782     1.007825032230
         H           -3.760741659955     0.056053096074    -0.154744955782     1.007825032230

  Basis Set: AUG-CC-PVTZ
    Blend: AUG-CC-PVTZ
  Basis Set: (AUG-CC-PVTZ AUX)
    Blend: AUG-CC-PVTZ-JKFIT
	 Reference Energy          =    -273.3133344873699571 [Eh]
	 Singles Energy            =      -0.0000000000000000 [Eh]
	 Same-Spin Energy          =      -0.2973515335284200 [Eh]
	 Opposite-Spin Energy      =      -1.0779476431468611 [Eh]
	 Correlation Energy        =      -1.3752991766752811 [Eh]
	 Total Energy              =    -274.6886336640452555 [Eh]

	 ================> DF-SCS-MP2 Energies <==================
	-----------------------------------------------------------
	 SCS Same-Spin Scale       =       0.3333333333333333 [-]
	 SCS Opposite-Spin Scale   =       1.2000000000000000 [-]
	 SCS Same-Spin Energy      =      -0.0991171778428067 [Eh]
	 SCS Opposite-Spin Energy  =      -1.2935371717762332 [Eh]
	 SCS Correlation Energy    =      -1.3926543496190398 [Eh]
	 SCS Total Energy          =    -274.7059888369889791 [Eh]
	-----------------------------------------------------------

  Dipole Moment: [D]
     X:    -0.0291      Y:    -0.0322      Z:    -0.0332     Total:     0.0546

*** Psi4 exiting successfully. Buy a developer a beer!
