                               Psi4 1.3.2 release

  ==> Input File <==

--------------------------------------------------------------------------
#psi4
#
memory 32 gb

molecule  {
0 1
  C       -0.2715090    -0.2556582     0.2953030
  C        0.8273080    -1.2201790    -0.1568800
  C        0.2651040     1.0998010    -0.2107530
  C        2.1130990    -0.4802110     0.2221390
  C        1.8015910     1.0121590    -0.0461820
  C       -1.6656960    -0.6060100    -0.2573320
  C       -2.7543930     0.3665140     0.1916780
  H       -0.3152930    -0.2454590     1.3709960
  H        0.7753790    -1.3637350    -1.2449700
  H        0.7413790    -2.2073630     0.3107570
  H       -0.1666070     1.9492740     0.3275400
  H        0.0028850     1.2252210    -1.2696860
  H        2.9896260    -0.8344780    -0.3294880
  H        2.3206340    -0.6367720     1.2866620
  H        2.1525340     1.6409000     0.7779560
  H        2.3101060     1.3673950    -0.9478660
  H       -1.9261760    -1.6212110     0.0690670
  H       -1.6246980    -0.6344010    -1.3548090
  H       -2.7974460     0.4229520     1.2842010
  H       -2.5674970     1.3742840    -0.1894550
  H       -3.7390610     0.0514200    -0.1666910
units angstrom
no_reorient  #important for SAPT in psi4, default
symmetry c1  #important for SAPT in psi4, default
}

set PROPERTIES_ORIGIN ["COM"]
properties('MP2/aug-cc-pvtz', properties = ['dipole'])
--------------------------------------------------------------------------

    Molecular point group: c1
  Charge       = 0
  Multiplicity = 1
  Basis Set: AUG-CC-PVTZ
    Blend: AUG-CC-PVTZ
  Basis Set: (AUG-CC-PVTZ AUX)
    Blend: AUG-CC-PVTZ-JKFIT

    Orbital Energies [Eh]
    ---------------------

    Doubly Occupied:

       1A    -11.214124     2A    -11.213531     3A    -11.211683
       4A    -11.211098     5A    -11.210160     6A    -11.209483
       7A    -11.208394     8A     -1.123692     9A     -1.032163
      10A     -0.955651    11A     -0.938905    12A     -0.831724
      13A     -0.770895    14A     -0.754858    15A     -0.651286
      16A     -0.629081    17A     -0.603812    18A     -0.569541
      19A     -0.557988    20A     -0.551362    21A     -0.511540
      22A     -0.484894    23A     -0.472040    24A     -0.463922
      25A     -0.456310    26A     -0.446919    27A     -0.439096
      28A     -0.434051

  @DF-RHF Final Energy:  -273.32491657768293

   => Energetics <=

    Nuclear Repulsion Energy =            322.6186794093424623
    One-Electron Energy =               -1007.5707814938083402
    Two-Electron Energy =                 411.6271855067829506
    Total Energy =                       -273.3249165776829273
  Basis Set: (AUG-CC-PVTZ AUX)
    Blend: AUG-CC-PVTZ-RI
    Molecular point group: c1

    Geometry (in Angstrom), charge = 0, multiplicity = 1:

       Center              X                  Y                   Z               Mass
    ------------   -----------------  -----------------  -----------------  -----------------
         C           -0.291154200623    -0.250448059187     0.291436944449    12.000000000000
         C            0.807662799377    -1.214968859187    -0.160746055551    12.000000000000
         C            0.245458799377     1.105011140813    -0.214619055551    12.000000000000
         C            2.093453799377    -0.475000859187     0.218272944449    12.000000000000
         C            1.781945799377     1.017369140813    -0.050048055551    12.000000000000
         C           -1.685341200623    -0.600799859187    -0.261198055551    12.000000000000
         C           -2.774038200623     0.371724140813     0.187811944449    12.000000000000
         H           -0.334938200623    -0.240248859187     1.367129944449     1.007825032230
         H            0.755733799377    -1.358524859187    -1.248836055551     1.007825032230
         H            0.721733799377    -2.202152859187     0.306890944449     1.007825032230
         H           -0.186252200623     1.954484140813     0.323673944449     1.007825032230
         H           -0.016760200623     1.230431140813    -1.273552055551     1.007825032230
         H            2.969980799377    -0.829267859187    -0.333354055551     1.007825032230
         H            2.300988799377    -0.631561859187     1.282795944449     1.007825032230
         H            2.132888799377     1.646110140813     0.774089944449     1.007825032230
         H            2.290460799377     1.372605140813    -0.951732055551     1.007825032230
         H           -1.945821200623    -1.616000859187     0.065200944449     1.007825032230
         H           -1.644343200623    -0.629190859187    -1.358675055551     1.007825032230
         H           -2.817091200623     0.428162140813     1.280334944449     1.007825032230
         H           -2.587142200623     1.379494140813    -0.193321055551     1.007825032230
         H           -3.758706200623     0.056630140813    -0.170557055551     1.007825032230

  Basis Set: AUG-CC-PVTZ
    Blend: AUG-CC-PVTZ
  Basis Set: (AUG-CC-PVTZ AUX)
    Blend: AUG-CC-PVTZ-JKFIT
	 Reference Energy          =    -273.3249165776829273 [Eh]
	 Singles Energy            =      -0.0000000000000000 [Eh]
	 Same-Spin Energy          =      -0.2970351206262895 [Eh]
	 Opposite-Spin Energy      =      -1.0771976404881940 [Eh]
	 Correlation Energy        =      -1.3742327611144836 [Eh]
	 Total Energy              =    -274.6991493387973833 [Eh]

	 ================> DF-SCS-MP2 Energies <==================
	-----------------------------------------------------------
	 SCS Same-Spin Scale       =       0.3333333333333333 [-]
	 SCS Opposite-Spin Scale   =       1.2000000000000000 [-]
	 SCS Same-Spin Energy      =      -0.0990117068754298 [Eh]
	 SCS Opposite-Spin Energy  =      -1.2926371685858327 [Eh]
	 SCS Correlation Energy    =      -1.3916488754612626 [Eh]
	 SCS Total Energy          =    -274.7165654531441987 [Eh]
	-----------------------------------------------------------

  Dipole Moment: [D]
     X:    -0.0098      Y:    -0.0494      Z:     0.0618     Total:     0.0797

*** Psi4 exiting successfully. Buy a developer a beer!
