                               Psi4 1.3.2 release

  ==> Input File <==

--------------------------------------------------------------------------
#psi4
#
memory 32 gb

molecule  {
0 1
  C       -0.2796410    -0.2534110     0.2699600
  C        0.8273080    -1.2201790    -0.1568800
  C        0.2651040     1.0998010    -0.2107530
  C        2.1130990    -0.4802110     0.2221390
  C        1.8015910     1.0121590    -0.0461820
  C       -1.6656960    -0.6060100    -0.2573320
  C       -2.7543930     0.3665140     0.1916780
  H       -0.3152930    -0.2454590     1.3709960
  H        0.7753790    -1.3637350    -1.2449700
  H        0.7413790    -2.2073630     0.3107570
  H       -0.1666070     1.9492740     0.3275400
  H        0.0028850     1.2252210    -1.2696860
  H        3.0212534    -0.8525554    -0.2623321
  H        2.3206340    -0.6367720     1.2866620
  H        2.1525340     1.6409000     0.7779560
  H        2.3101060     1.3673950    -0.9478660
  H       -1.9261760    -1.6212110     0.0690670
  H       -1.6246980    -0.6344010    -1.3548090
  H       -2.7974460     0.4229520     1.2842010
  H       -2.5674970     1.3742840    -0.1894550
  H       -3.7390610     0.0514200    -0.1666910
units angstrom
no_reorient  #important for SAPT in psi4, default
symmetry c1  #important for SAPT in psi4, default
}

set PROPERTIES_ORIGIN ["COM"]
properties('MP2/aug-cc-pvtz', properties = ['dipole'])
--------------------------------------------------------------------------

    Molecular point group: c1
  Charge       = 0
  Multiplicity = 1
  Basis Set: AUG-CC-PVTZ
    Blend: AUG-CC-PVTZ
  Basis Set: (AUG-CC-PVTZ AUX)
    Blend: AUG-CC-PVTZ-JKFIT

    Orbital Energies [Eh]
    ---------------------

    Doubly Occupied:

       1A    -11.215196     2A    -11.213733     3A    -11.212514
       4A    -11.211475     5A    -11.210478     6A    -11.210103
       7A    -11.208887     8A     -1.124647     9A     -1.033852
      10A     -0.956142    11A     -0.939578    12A     -0.833779
      13A     -0.772671    14A     -0.751494    15A     -0.652170
      16A     -0.629585    17A     -0.603734    18A     -0.568877
      19A     -0.555541    20A     -0.552318    21A     -0.512961
      22A     -0.485155    23A     -0.473104    24A     -0.466028
      25A     -0.450220    26A     -0.445872    27A     -0.443128
      28A     -0.435414

  @DF-RHF Final Energy:  -273.32487404695758

   => Energetics <=

    Nuclear Repulsion Energy =            322.7097045940985254
    One-Electron Energy =               -1007.7318411097444368
    Two-Electron Energy =                 411.6972624686883364
    Total Energy =                       -273.3248740469575750
  Basis Set: (AUG-CC-PVTZ AUX)
    Blend: AUG-CC-PVTZ-RI
    Molecular point group: c1

    Geometry (in Angstrom), charge = 0, multiplicity = 1:

       Center              X                  Y                   Z               Mass
    ------------   -----------------  -----------------  -----------------  -----------------
         C           -0.298616448145    -0.248290020168     0.268503848499    12.000000000000
         C            0.808332551855    -1.215058020168    -0.158336151501    12.000000000000
         C            0.246128551855     1.104921979832    -0.212209151501    12.000000000000
         C            2.094123551855    -0.475090020168     0.220682848499    12.000000000000
         C            1.782615551855     1.017279979832    -0.047638151501    12.000000000000
         C           -1.684671448145    -0.600889020168    -0.258788151501    12.000000000000
         C           -2.773368448145     0.371634979832     0.190221848499    12.000000000000
         H           -0.334268448145    -0.240338020168     1.369539848499     1.007825032230
         H            0.756403551855    -1.358614020168    -1.246426151501     1.007825032230
         H            0.722403551855    -2.202242020168     0.309300848499     1.007825032230
         H           -0.185582448145     1.954394979832     0.326083848499     1.007825032230
         H           -0.016090448145     1.230341979832    -1.271142151501     1.007825032230
         H            3.002277951855    -0.847434420168    -0.263788251501     1.007825032230
         H            2.301658551855    -0.631651020168     1.285205848499     1.007825032230
         H            2.133558551855     1.646020979832     0.776499848499     1.007825032230
         H            2.291130551855     1.372515979832    -0.949322151501     1.007825032230
         H           -1.945151448145    -1.616090020168     0.067610848499     1.007825032230
         H           -1.643673448145    -0.629280020168    -1.356265151501     1.007825032230
         H           -2.816421448145     0.428072979832     1.282744848499     1.007825032230
         H           -2.586472448145     1.379404979832    -0.190911151501     1.007825032230
         H           -3.758036448145     0.056540979832    -0.168147151501     1.007825032230

  Basis Set: AUG-CC-PVTZ
    Blend: AUG-CC-PVTZ
  Basis Set: (AUG-CC-PVTZ AUX)
    Blend: AUG-CC-PVTZ-JKFIT
	 Reference Energy          =    -273.3248740469575750 [Eh]
	 Singles Energy            =      -0.0000000000000000 [Eh]
	 Same-Spin Energy          =      -0.2971651497893421 [Eh]
	 Opposite-Spin Energy      =      -1.0772289980447760 [Eh]
	 Correlation Energy        =      -1.3743941478341182 [Eh]
	 Total Energy              =    -274.6992681947916708 [Eh]

	 ================> DF-SCS-MP2 Energies <==================
	-----------------------------------------------------------
	 SCS Same-Spin Scale       =       0.3333333333333333 [-]
	 SCS Opposite-Spin Scale   =       1.2000000000000000 [-]
	 SCS Same-Spin Energy      =      -0.0990550499297807 [Eh]
	 SCS Opposite-Spin Energy  =      -1.2926747976537312 [Eh]
	 SCS Correlation Energy    =      -1.3917298475835118 [Eh]
	 SCS Total Energy          =    -274.7166038945410946 [Eh]
	-----------------------------------------------------------

  Dipole Moment: [D]
     X:    -0.0065      Y:    -0.0491      Z:     0.0658     Total:     0.0824

*** Psi4 exiting successfully. Buy a developer a beer!
