                               Psi4 1.3.2 release

  ==> Input File <==

--------------------------------------------------------------------------
#psi4
#
memory 32 gb

molecule  {
0 1
  C       -0.2796410    -0.2534110     0.2699600
  C        0.9719680    -1.3465197    -0.2126610
  C        0.2651040     1.0998010    -0.2107530
  C        2.1130990    -0.4802110     0.2221390
  C        1.8015910     1.0121590    -0.0461820
  C       -1.6656960    -0.6060100    -0.2573320
  C       -2.7543930     0.3665140     0.1916780
  H       -0.3152930    -0.2454590     1.3709960
  H        0.7753790    -1.3637350    -1.2449700
  H        0.7413790    -2.2073630     0.3107570
  H       -0.1666070     1.9492740     0.3275400
  H        0.0028850     1.2252210    -1.2696860
  H        2.9896260    -0.8344780    -0.3294880
  H        2.3206340    -0.6367720     1.2866620
  H        2.1525340     1.6409000     0.7779560
  H        2.3101060     1.3673950    -0.9478660
  H       -1.9261760    -1.6212110     0.0690670
  H       -1.6246980    -0.6344010    -1.3548090
  H       -2.7974460     0.4229520     1.2842010
  H       -2.5674970     1.3742840    -0.1894550
  H       -3.7390610     0.0514200    -0.1666910
units angstrom
no_reorient  #important for SAPT in psi4, default
symmetry c1  #important for SAPT in psi4, default
}

set PROPERTIES_ORIGIN ["COM"]
properties('MP2/aug-cc-pvtz', properties = ['dipole'])
--------------------------------------------------------------------------

    Molecular point group: c1
  Charge       = 0
  Multiplicity = 1
  Basis Set: AUG-CC-PVTZ
    Blend: AUG-CC-PVTZ
  Basis Set: (AUG-CC-PVTZ AUX)
    Blend: AUG-CC-PVTZ-JKFIT

    Orbital Energies [Eh]
    ---------------------

    Doubly Occupied:

       1A    -11.221315     2A    -11.213856     3A    -11.212810
       4A    -11.212126     5A    -11.210293     6A    -11.209216
       7A    -11.208339     8A     -1.111159     9A     -1.034030
      10A     -0.962734    11A     -0.929818    12A     -0.834879
      13A     -0.777646    14A     -0.745463    15A     -0.653672
      16A     -0.624168    17A     -0.605718    18A     -0.578317
      19A     -0.555454    20A     -0.549278    21A     -0.512357
      22A     -0.493142    23A     -0.490932    24A     -0.465989
      25A     -0.464406    26A     -0.444482    27A     -0.438693
      28A     -0.383068

  @DF-RHF Final Energy:  -273.29733825110782

   => Energetics <=

    Nuclear Repulsion Energy =            320.1906885005338381
    One-Electron Energy =               -1002.6893362335889606
    Two-Electron Energy =                 409.2013094819473054
    Total Energy =                       -273.2973382511078171
  Basis Set: (AUG-CC-PVTZ AUX)
    Blend: AUG-CC-PVTZ-RI
    Molecular point group: c1

    Geometry (in Angstrom), charge = 0, multiplicity = 1:

       Center              X                  Y                   Z               Mass
    ------------   -----------------  -----------------  -----------------  -----------------
         C           -0.315985247683    -0.233022703817     0.276016403532    12.000000000000
         C            0.935623752317    -1.326131403817    -0.206604596468    12.000000000000
         C            0.228759752317     1.120189296183    -0.204696596468    12.000000000000
         C            2.076754752317    -0.459822703817     0.228195403532    12.000000000000
         C            1.765246752317     1.032547296183    -0.040125596468    12.000000000000
         C           -1.702040247683    -0.585621703817    -0.251275596468    12.000000000000
         C           -2.790737247683     0.386902296183     0.197734403532    12.000000000000
         H           -0.351637247683    -0.225070703817     1.377052403532     1.007825032230
         H            0.739034752317    -1.343346703817    -1.238913596468     1.007825032230
         H            0.705034752317    -2.186974703817     0.316813403532     1.007825032230
         H           -0.202951247683     1.969662296183     0.333596403532     1.007825032230
         H           -0.033459247683     1.245609296183    -1.263629596468     1.007825032230
         H            2.953281752317    -0.814089703817    -0.323431596468     1.007825032230
         H            2.284289752317    -0.616383703817     1.292718403532     1.007825032230
         H            2.116189752317     1.661288296183     0.784012403532     1.007825032230
         H            2.273761752317     1.387783296183    -0.941809596468     1.007825032230
         H           -1.962520247683    -1.600822703817     0.075123403532     1.007825032230
         H           -1.661042247683    -0.614012703817    -1.348752596468     1.007825032230
         H           -2.833790247683     0.443340296183     1.290257403532     1.007825032230
         H           -2.603841247683     1.394672296183    -0.183398596468     1.007825032230
         H           -3.775405247683     0.071808296183    -0.160634596468     1.007825032230

  Basis Set: AUG-CC-PVTZ
    Blend: AUG-CC-PVTZ
  Basis Set: (AUG-CC-PVTZ AUX)
    Blend: AUG-CC-PVTZ-JKFIT
	 Reference Energy          =    -273.2973382511078171 [Eh]
	 Singles Energy            =      -0.0000000000000000 [Eh]
	 Same-Spin Energy          =      -0.2977843435580126 [Eh]
	 Opposite-Spin Energy      =      -1.0794939466040190 [Eh]
	 Correlation Energy        =      -1.3772782901620317 [Eh]
	 Total Energy              =    -274.6746165412698701 [Eh]

	 ================> DF-SCS-MP2 Energies <==================
	-----------------------------------------------------------
	 SCS Same-Spin Scale       =       0.3333333333333333 [-]
	 SCS Opposite-Spin Scale   =       1.2000000000000000 [-]
	 SCS Same-Spin Energy      =      -0.0992614478526709 [Eh]
	 SCS Opposite-Spin Energy  =      -1.2953927359248227 [Eh]
	 SCS Correlation Energy    =      -1.3946541837774937 [Eh]
	 SCS Total Energy          =    -274.6919924348853215 [Eh]
	-----------------------------------------------------------

  Dipole Moment: [D]
     X:    -0.0637      Y:    -0.0026      Z:     0.0682     Total:     0.0934

*** Psi4 exiting successfully. Buy a developer a beer!
