                               Psi4 1.3.2 release

  ==> Input File <==

--------------------------------------------------------------------------
#psi4
#
memory 32 gb

molecule  {
0 1
  C       -0.2796410    -0.2534110     0.2699600
  C        0.8530917    -1.2462348    -0.0009390
  C        0.2651040     1.0998010    -0.2107530
  C        2.1130990    -0.4802110     0.2221390
  C        1.8015910     1.0121590    -0.0461820
  C       -1.6656960    -0.6060100    -0.2573320
  C       -2.7543930     0.3665140     0.1916780
  H       -0.3152930    -0.2454590     1.3709960
  H        0.7753790    -1.3637350    -1.2449700
  H        0.7413790    -2.2073630     0.3107570
  H       -0.1666070     1.9492740     0.3275400
  H        0.0028850     1.2252210    -1.2696860
  H        2.9896260    -0.8344780    -0.3294880
  H        2.3206340    -0.6367720     1.2866620
  H        2.1525340     1.6409000     0.7779560
  H        2.3101060     1.3673950    -0.9478660
  H       -1.9261760    -1.6212110     0.0690670
  H       -1.6246980    -0.6344010    -1.3548090
  H       -2.7974460     0.4229520     1.2842010
  H       -2.5674970     1.3742840    -0.1894550
  H       -3.7390610     0.0514200    -0.1666910
units angstrom
no_reorient  #important for SAPT in psi4, default
symmetry c1  #important for SAPT in psi4, default
}

set PROPERTIES_ORIGIN ["COM"]
properties('MP2/aug-cc-pvtz', properties = ['dipole'])
--------------------------------------------------------------------------

    Molecular point group: c1
  Charge       = 0
  Multiplicity = 1
  Basis Set: AUG-CC-PVTZ
    Blend: AUG-CC-PVTZ
  Basis Set: (AUG-CC-PVTZ AUX)
    Blend: AUG-CC-PVTZ-JKFIT

    Orbital Energies [Eh]
    ---------------------

    Doubly Occupied:

       1A    -11.217439     2A    -11.216693     3A    -11.215049
       4A    -11.214596     5A    -11.212239     6A    -11.212064
       7A    -11.209656     8A     -1.127209     9A     -1.036099
      10A     -0.962867    11A     -0.941226    12A     -0.834793
      13A     -0.771830    14A     -0.752688    15A     -0.660997
      16A     -0.633644    17A     -0.605218    18A     -0.562157
      19A     -0.556116    20A     -0.548602    21A     -0.517020
      22A     -0.498217    23A     -0.482660    24A     -0.467607
      25A     -0.452863    26A     -0.442837    27A     -0.439865
      28A     -0.409977

  @DF-RHF Final Energy:  -273.30048928211869

   => Energetics <=

    Nuclear Repulsion Energy =            322.6957475396180826
    One-Electron Energy =               -1007.5880140004786654
    Two-Electron Energy =                 411.5917771787418928
    Total Energy =                       -273.3004892821186900
  Basis Set: (AUG-CC-PVTZ AUX)
    Blend: AUG-CC-PVTZ-RI
    Molecular point group: c1

    Geometry (in Angstrom), charge = 0, multiplicity = 1:

       Center              X                  Y                   Z               Mass
    ------------   -----------------  -----------------  -----------------  -----------------
         C           -0.301445219792    -0.245288775718     0.250120209040    12.000000000000
         C            0.831287480208    -1.238112575718    -0.020778790960    12.000000000000
         C            0.243299780208     1.107923224282    -0.230592790960    12.000000000000
         C            2.091294780208    -0.472088775718     0.202299209040    12.000000000000
         C            1.779786780208     1.020281224282    -0.066021790960    12.000000000000
         C           -1.687500219792    -0.597887775718    -0.277171790960    12.000000000000
         C           -2.776197219792     0.374636224282     0.171838209040    12.000000000000
         H           -0.337097219792    -0.237336775718     1.351156209040     1.007825032230
         H            0.753574780208    -1.355612775718    -1.264809790960     1.007825032230
         H            0.719574780208    -2.199240775718     0.290917209040     1.007825032230
         H           -0.188411219792     1.957396224282     0.307700209040     1.007825032230
         H           -0.018919219792     1.233343224282    -1.289525790960     1.007825032230
         H            2.967821780208    -0.826355775718    -0.349327790960     1.007825032230
         H            2.298829780208    -0.628649775718     1.266822209040     1.007825032230
         H            2.130729780208     1.649022224282     0.758116209040     1.007825032230
         H            2.288301780208     1.375517224282    -0.967705790960     1.007825032230
         H           -1.947980219792    -1.613088775718     0.049227209040     1.007825032230
         H           -1.646502219792    -0.626278775718    -1.374648790960     1.007825032230
         H           -2.819250219792     0.431074224282     1.264361209040     1.007825032230
         H           -2.589301219792     1.382406224282    -0.209294790960     1.007825032230
         H           -3.760865219792     0.059542224282    -0.186530790960     1.007825032230

  Basis Set: AUG-CC-PVTZ
    Blend: AUG-CC-PVTZ
  Basis Set: (AUG-CC-PVTZ AUX)
    Blend: AUG-CC-PVTZ-JKFIT
	 Reference Energy          =    -273.3004892821186900 [Eh]
	 Singles Energy            =      -0.0000000000000000 [Eh]
	 Same-Spin Energy          =      -0.2977578034119189 [Eh]
	 Opposite-Spin Energy      =      -1.0787417367341767 [Eh]
	 Correlation Energy        =      -1.3764995401460955 [Eh]
	 Total Energy              =    -274.6769888222647751 [Eh]

	 ================> DF-SCS-MP2 Energies <==================
	-----------------------------------------------------------
	 SCS Same-Spin Scale       =       0.3333333333333333 [-]
	 SCS Opposite-Spin Scale   =       1.2000000000000000 [-]
	 SCS Same-Spin Energy      =      -0.0992526011373063 [Eh]
	 SCS Opposite-Spin Energy  =      -1.2944900840810121 [Eh]
	 SCS Correlation Energy    =      -1.3937426852183183 [Eh]
	 SCS Total Energy          =    -274.6942319673370321 [Eh]
	-----------------------------------------------------------

  Dipole Moment: [D]
     X:    -0.0146      Y:    -0.0051      Z:     0.2007     Total:     0.2013

*** Psi4 exiting successfully. Buy a developer a beer!
