                               Psi4 1.4a3.dev225

  ==> Input File <==

--------------------------------------------------------------------------
#psi4
#
memory 32 gb

molecule  {
0 1
  C       -0.2796410    -0.2534110     0.2699600
  C        0.8634730    -1.2517642    -0.1708252
  C        0.2651040     1.0998010    -0.2107530
  C        2.1130990    -0.4802110     0.2221390
  C        1.8015910     1.0121590    -0.0461820
  C       -1.6656960    -0.6060100    -0.2573320
  C       -2.7543930     0.3665140     0.1916780
  H       -0.3152930    -0.2454590     1.3709960
  H        0.7753790    -1.3637350    -1.2449700
  H        0.7413790    -2.2073630     0.3107570
  H       -0.1666070     1.9492740     0.3275400
  H        0.0028850     1.2252210    -1.2696860
  H        2.9896260    -0.8344780    -0.3294880
  H        2.3206340    -0.6367720     1.2866620
  H        2.1525340     1.6409000     0.7779560
  H        2.3101060     1.3673950    -0.9478660
  H       -1.9261760    -1.6212110     0.0690670
  H       -1.6246980    -0.6344010    -1.3548090
  H       -2.7974460     0.4229520     1.2842010
  H       -2.5674970     1.3742840    -0.1894550
  H       -3.7390610     0.0514200    -0.1666910
units angstrom
no_reorient  #important for SAPT in psi4, default
symmetry c1  #important for SAPT in psi4, default
}

set PROPERTIES_ORIGIN ["COM"]
properties('MP2/aug-cc-pvtz', properties = ['dipole'])
--------------------------------------------------------------------------

    Molecular point group: c1
  Charge       = 0
  Multiplicity = 1
  Basis Set: AUG-CC-PVTZ
    Blend: AUG-CC-PVTZ
  Basis Set: (AUG-CC-PVTZ AUX)
    Blend: AUG-CC-PVTZ-JKFIT

    Orbital Energies [Eh]
    ---------------------

    Doubly Occupied:

       1A    -11.216741     2A    -11.213288     3A    -11.212371
       4A    -11.211245     5A    -11.209989     6A    -11.208599
       7A    -11.208571     8A     -1.120389     9A     -1.033797
      10A     -0.957220    11A     -0.936941    12A     -0.833776
      13A     -0.772532    14A     -0.749688    15A     -0.651960
      16A     -0.628692    17A     -0.604683    18A     -0.570491
      19A     -0.555779    20A     -0.551689    21A     -0.512664
      22A     -0.486566    23A     -0.477154    24A     -0.465210
      25A     -0.456280    26A     -0.445432    27A     -0.440424
      28A     -0.425158

  @DF-RHF Final Energy:  -273.32359998006825

   => Energetics <=

    Nuclear Repulsion Energy =            322.1151380929342736
    One-Electron Energy =               -1006.5628189353807329
    Two-Electron Energy =                 411.1240808623782641
    Total Energy =                       -273.3235999800682521
  Basis Set: (AUG-CC-PVTZ AUX)
    Blend: AUG-CC-PVTZ-RI
    Molecular point group: c1

    Geometry (in Angstrom), charge = 0, multiplicity = 1:

       Center              X                  Y                   Z               Mass
    ------------   -----------------  -----------------  -----------------  -----------------
         C           -0.302714979967    -0.244612462355     0.270899372645    12.000000000000
         C            0.840399020033    -1.242965662355    -0.169885827355    12.000000000000
         C            0.242030020033     1.108599537645    -0.209813627355    12.000000000000
         C            2.090025020033    -0.471412462355     0.223078372645    12.000000000000
         C            1.778517020033     1.020957537645    -0.045242627355    12.000000000000
         C           -1.688769979967    -0.597211462355    -0.256392627355    12.000000000000
         C           -2.777466979967     0.375312537645     0.192617372645    12.000000000000
         H           -0.338366979967    -0.236660462355     1.371935372645     1.007825032230
         H            0.752305020033    -1.354936462355    -1.244030627355     1.007825032230
         H            0.718305020033    -2.198564462355     0.311696372645     1.007825032230
         H           -0.189680979967     1.958072537645     0.328479372645     1.007825032230
         H           -0.020188979967     1.234019537645    -1.268746627355     1.007825032230
         H            2.966552020033    -0.825679462355    -0.328548627355     1.007825032230
         H            2.297560020033    -0.627973462355     1.287601372645     1.007825032230
         H            2.129460020033     1.649698537645     0.778895372645     1.007825032230
         H            2.287032020033     1.376193537645    -0.946926627355     1.007825032230
         H           -1.949249979967    -1.612412462355     0.070006372645     1.007825032230
         H           -1.647771979967    -0.625602462355    -1.353869627355     1.007825032230
         H           -2.820519979967     0.431750537645     1.285140372645     1.007825032230
         H           -2.590570979967     1.383082537645    -0.188515627355     1.007825032230
         H           -3.762134979967     0.060218537645    -0.165751627355     1.007825032230

  Basis Set: AUG-CC-PVTZ
    Blend: AUG-CC-PVTZ
  Basis Set: (AUG-CC-PVTZ AUX)
    Blend: AUG-CC-PVTZ-JKFIT
	 Reference Energy          =    -273.3235999800682521 [Eh]
	 Singles Energy            =      -0.0000000000000000 [Eh]
	 Same-Spin Energy          =      -0.2970261364126393 [Eh]
	 Opposite-Spin Energy      =      -1.0773108599008434 [Eh]
	 Correlation Energy        =      -1.3743369963134826 [Eh]
	 Total Energy              =    -274.6979369763817544 [Eh]

	 ================> DF-SCS-MP2 Energies <==================
	-----------------------------------------------------------
	 SCS Same-Spin Scale       =       0.3333333333333333 [-]
	 SCS Opposite-Spin Scale   =       1.2000000000000000 [-]
	 SCS Same-Spin Energy      =      -0.0990087121375464 [Eh]
	 SCS Opposite-Spin Energy  =      -1.2927730318810120 [Eh]
	 SCS Correlation Energy    =      -1.3917817440185585 [Eh]
	 SCS Total Energy          =    -274.7153817240867966 [Eh]
	-----------------------------------------------------------

  Dipole Moment: [D]
     X:    -0.0154      Y:    -0.0487      Z:     0.0511     Total:     0.0723

*** Psi4 exiting successfully. Buy a developer a beer!
