                               Psi4 1.3.2 release

  ==> Input File <==

--------------------------------------------------------------------------
#psi4
#
memory 32 gb

molecule  {
0 1
  C       -0.2796410    -0.2534110     0.2699600
  C        0.8273080    -1.2201790    -0.1568800
  C        0.2651040     1.0998010    -0.2107530
  C        2.1130990    -0.4802110     0.2221390
  C        1.8015910     1.0121590    -0.0461820
  C       -1.6656960    -0.6060100    -0.2573320
  C       -2.7543930     0.3665140     0.1916780
  H       -0.3152930    -0.2454590     1.3709960
  H        0.7753790    -1.3637350    -1.2449700
  H        0.7413790    -2.2073630     0.3107570
  H       -0.1666070     1.9492740     0.3275400
  H        0.0028850     1.2252210    -1.2696860
  H        2.9896260    -0.8344780    -0.3294880
  H        2.3206340    -0.6367720     1.2866620
  H        2.1525340     1.6409000     0.7779560
  H        2.3101060     1.3673950    -0.9478660
  H       -1.9261760    -1.6212110     0.0690670
  H       -1.6246980    -0.6344010    -1.3548090
  H       -2.7974460     0.4229520     1.2842010
  H       -2.5674970     1.3742840    -0.1894550
  H       -3.7390610     0.0514200    -0.1666910
units angstrom
no_reorient  #important for SAPT in psi4, default
symmetry c1  #important for SAPT in psi4, default
}

set PROPERTIES_ORIGIN ["COM"]
properties('MP2/aug-cc-pvtz', properties = ['dipole'])
--------------------------------------------------------------------------

    Molecular point group: c1
  Charge       = 0
  Multiplicity = 1
  Basis Set: AUG-CC-PVTZ
    Blend: AUG-CC-PVTZ
  Basis Set: (AUG-CC-PVTZ AUX)
    Blend: AUG-CC-PVTZ-JKFIT

    Orbital Energies [Eh]
    ---------------------

    Doubly Occupied:

       1A    -11.214937     2A    -11.213579     3A    -11.212085
       4A    -11.211432     5A    -11.210139     6A    -11.209631
       7A    -11.208757     8A     -1.124664     9A     -1.033876
      10A     -0.956017    11A     -0.939512    12A     -0.833622
      13A     -0.770912    14A     -0.751442    15A     -0.652035
      16A     -0.630111    17A     -0.604510    18A     -0.569112
      19A     -0.556415    20A     -0.552236    21A     -0.513042
      22A     -0.485096    23A     -0.472183    24A     -0.464263
      25A     -0.451999    26A     -0.445937    27A     -0.442718
      28A     -0.435446

  @DF-RHF Final Energy:  -273.32545608308317

   => Energetics <=

    Nuclear Repulsion Energy =            322.7699065081963568
    One-Electron Energy =               -1007.8593081211793105
    Two-Electron Energy =                 411.7639455298998428
    Total Energy =                       -273.3254560830831679
  Basis Set: (AUG-CC-PVTZ AUX)
    Blend: AUG-CC-PVTZ-RI
    Molecular point group: c1

    Geometry (in Angstrom), charge = 0, multiplicity = 1:

       Center              X                  Y                   Z               Mass
    ------------   -----------------  -----------------  -----------------  -----------------
         C           -0.298291557395    -0.248475719278     0.269193703837    12.000000000000
         C            0.808657442605    -1.215243719278    -0.157646296163    12.000000000000
         C            0.246453442605     1.104736280722    -0.211519296163    12.000000000000
         C            2.094448442605    -0.475275719278     0.221372703837    12.000000000000
         C            1.782940442605     1.017094280722    -0.046948296163    12.000000000000
         C           -1.684346557395    -0.601074719278    -0.258098296163    12.000000000000
         C           -2.773043557395     0.371449280722     0.190911703837    12.000000000000
         H           -0.333943557395    -0.240523719278     1.370229703837     1.007825032230
         H            0.756728442605    -1.358799719278    -1.245736296163     1.007825032230
         H            0.722728442605    -2.202427719278     0.309990703837     1.007825032230
         H           -0.185257557395     1.954209280722     0.326773703837     1.007825032230
         H           -0.015765557395     1.230156280722    -1.270452296163     1.007825032230
         H            2.970975442605    -0.829542719278    -0.330254296163     1.007825032230
         H            2.301983442605    -0.631836719278     1.285895703837     1.007825032230
         H            2.133883442605     1.645835280722     0.777189703837     1.007825032230
         H            2.291455442605     1.372330280722    -0.948632296163     1.007825032230
         H           -1.944826557395    -1.616275719278     0.068300703837     1.007825032230
         H           -1.643348557395    -0.629465719278    -1.355575296163     1.007825032230
         H           -2.816096557395     0.427887280722     1.283434703837     1.007825032230
         H           -2.586147557395     1.379219280722    -0.190221296163     1.007825032230
         H           -3.757711557395     0.056355280722    -0.167457296163     1.007825032230

  Basis Set: AUG-CC-PVTZ
    Blend: AUG-CC-PVTZ
  Basis Set: (AUG-CC-PVTZ AUX)
    Blend: AUG-CC-PVTZ-JKFIT
	 Reference Energy          =    -273.3254560830831679 [Eh]
	 Singles Energy            =      -0.0000000000000000 [Eh]
	 Same-Spin Energy          =      -0.2971564973783806 [Eh]
	 Opposite-Spin Energy      =      -1.0772955066554100 [Eh]
	 Correlation Energy        =      -1.3744520040337906 [Eh]
	 Total Energy              =    -274.6999080871169667 [Eh]

	 ================> DF-SCS-MP2 Energies <==================
	-----------------------------------------------------------
	 SCS Same-Spin Scale       =       0.3333333333333333 [-]
	 SCS Opposite-Spin Scale   =       1.2000000000000000 [-]
	 SCS Same-Spin Energy      =      -0.0990521657927935 [Eh]
	 SCS Opposite-Spin Energy  =      -1.2927546079864920 [Eh]
	 SCS Correlation Energy    =      -1.3918067737792856 [Eh]
	 SCS Total Energy          =    -274.7172628568624759 [Eh]
	-----------------------------------------------------------

  Dipole Moment: [D]
     X:    -0.0097      Y:    -0.0465      Z:     0.0502     Total:     0.0691

*** Psi4 exiting successfully. Buy a developer a beer!
