                               Psi4 1.3.2 release

  ==> Input File <==

--------------------------------------------------------------------------
#psi4
#
memory 32 gb

molecule  {
0 1
  C       -0.2874358    -0.2514583     0.2444870
  C        0.8273080    -1.2201790    -0.1568800
  C        0.2651040     1.0998010    -0.2107530
  C        2.1130990    -0.4802110     0.2221390
  C        1.8015910     1.0121590    -0.0461820
  C       -1.6656960    -0.6060100    -0.2573320
  C       -2.7543930     0.3665140     0.1916780
  H       -0.3152930    -0.2454590     1.3709960
  H        0.7753790    -1.3637350    -1.2449700
  H        0.7413790    -2.2073630     0.3107570
  H       -0.1666070     1.9492740     0.3275400
  H        0.0028850     1.2252210    -1.2696860
  H        2.9896260    -0.8344780    -0.3294880
  H        2.3206340    -0.6367720     1.2866620
  H        2.1525340     1.6409000     0.7779560
  H        2.3101060     1.3673950    -0.9478660
  H       -1.9261760    -1.6212110     0.0690670
  H       -1.6246980    -0.6344010    -1.3548090
  H       -2.7974460     0.4229520     1.2842010
  H       -2.5674970     1.3742840    -0.1894550
  H       -3.7390610     0.0514200    -0.1666910
units angstrom
no_reorient  #important for SAPT in psi4, default
symmetry c1  #important for SAPT in psi4, default
}

set PROPERTIES_ORIGIN ["COM"]
properties('MP2/aug-cc-pvtz', properties = ['dipole'])
--------------------------------------------------------------------------

    Molecular point group: c1
  Charge       = 0
  Multiplicity = 1
  Basis Set: AUG-CC-PVTZ
    Blend: AUG-CC-PVTZ
  Basis Set: (AUG-CC-PVTZ AUX)
    Blend: AUG-CC-PVTZ-JKFIT

    Orbital Energies [Eh]
    ---------------------

    Doubly Occupied:

       1A    -11.216173     2A    -11.213450     3A    -11.212525
       4A    -11.211792     5A    -11.210219     6A    -11.209885
       7A    -11.209138     8A     -1.125714     9A     -1.035636
      10A     -0.956448    11A     -0.940170    12A     -0.835597
      13A     -0.771306    14A     -0.747948    15A     -0.652858
      16A     -0.631247    17A     -0.605171    18A     -0.568770
      19A     -0.555162    20A     -0.552890    21A     -0.514612
      22A     -0.485319    23A     -0.472375    24A     -0.464706
      25A     -0.450549    26A     -0.450410    27A     -0.437845
      28A     -0.436306

  @DF-RHF Final Energy:  -273.32441247818952

   => Energetics <=

    Nuclear Repulsion Energy =            322.9162010313544897
    One-Electron Energy =               -1008.1327865322936077
    Two-Electron Energy =                 411.8921730227496028
    Total Energy =                       -273.3244124781895152
  Basis Set: (AUG-CC-PVTZ AUX)
    Blend: AUG-CC-PVTZ-RI
    Molecular point group: c1

    Geometry (in Angstrom), charge = 0, multiplicity = 1:

       Center              X                  Y                   Z               Mass
    ------------   -----------------  -----------------  -----------------  -----------------
         C           -0.305132957858    -0.246761858411     0.246836363817    12.000000000000
         C            0.809610842142    -1.215482558411    -0.154530636183    12.000000000000
         C            0.247406842142     1.104497441589    -0.208403636183    12.000000000000
         C            2.095401842142    -0.475514558411     0.224488363817    12.000000000000
         C            1.783893842142     1.016855441589    -0.043832636183    12.000000000000
         C           -1.683393157858    -0.601313558411    -0.254982636183    12.000000000000
         C           -2.772090157858     0.371210441589     0.194027363817    12.000000000000
         H           -0.332990157858    -0.240762558411     1.373345363817     1.007825032230
         H            0.757681842142    -1.359038558411    -1.242620636183     1.007825032230
         H            0.723681842142    -2.202666558411     0.313106363817     1.007825032230
         H           -0.184304157858     1.953970441589     0.329889363817     1.007825032230
         H           -0.014812157858     1.229917441589    -1.267336636183     1.007825032230
         H            2.971928842142    -0.829781558411    -0.327138636183     1.007825032230
         H            2.302936842142    -0.632075558411     1.289011363817     1.007825032230
         H            2.134836842142     1.645596441589     0.780305363817     1.007825032230
         H            2.292408842142     1.372091441589    -0.945516636183     1.007825032230
         H           -1.943873157858    -1.616514558411     0.071416363817     1.007825032230
         H           -1.642395157858    -0.629704558411    -1.352459636183     1.007825032230
         H           -2.815143157858     0.427648441589     1.286550363817     1.007825032230
         H           -2.585194157858     1.378980441589    -0.187105636183     1.007825032230
         H           -3.756758157858     0.056116441589    -0.164341636183     1.007825032230

  Basis Set: AUG-CC-PVTZ
    Blend: AUG-CC-PVTZ
  Basis Set: (AUG-CC-PVTZ AUX)
    Blend: AUG-CC-PVTZ-JKFIT
	 Reference Energy          =    -273.3244124781895152 [Eh]
	 Singles Energy            =      -0.0000000000000000 [Eh]
	 Same-Spin Energy          =      -0.2973130923806210 [Eh]
	 Opposite-Spin Energy      =      -1.0774819894410732 [Eh]
	 Correlation Energy        =      -1.3747950818216941 [Eh]
	 Total Energy              =    -274.6992075600111889 [Eh]

	 ================> DF-SCS-MP2 Energies <==================
	-----------------------------------------------------------
	 SCS Same-Spin Scale       =       0.3333333333333333 [-]
	 SCS Opposite-Spin Scale   =       1.2000000000000000 [-]
	 SCS Same-Spin Energy      =      -0.0991043641268737 [Eh]
	 SCS Opposite-Spin Energy  =      -1.2929783873292877 [Eh]
	 SCS Correlation Energy    =      -1.3920827514561613 [Eh]
	 SCS Total Energy          =    -274.7164952296456590 [Eh]
	-----------------------------------------------------------

  Dipole Moment: [D]
     X:    -0.0094      Y:    -0.0436      Z:     0.0361     Total:     0.0574

*** Psi4 exiting successfully. Buy a developer a beer!
