                               Psi4 1.3.2 release

  ==> Input File <==

--------------------------------------------------------------------------
#psi4
#
memory 32 gb

molecule  {
0 1
  C       -0.2796410    -0.2534110     0.2699600
  C        0.8555104    -1.2495026    -0.1915371
  C        0.2651040     1.0998010    -0.2107530
  C        2.1130990    -0.4802110     0.2221390
  C        1.8015910     1.0121590    -0.0461820
  C       -1.6656960    -0.6060100    -0.2573320
  C       -2.7543930     0.3665140     0.1916780
  H       -0.3152930    -0.2454590     1.3709960
  H        0.7753790    -1.3637350    -1.2449700
  H        0.7413790    -2.2073630     0.3107570
  H       -0.1666070     1.9492740     0.3275400
  H        0.0028850     1.2252210    -1.2696860
  H        2.9896260    -0.8344780    -0.3294880
  H        2.3206340    -0.6367720     1.2866620
  H        2.1525340     1.6409000     0.7779560
  H        2.3101060     1.3673950    -0.9478660
  H       -1.9261760    -1.6212110     0.0690670
  H       -1.6246980    -0.6344010    -1.3548090
  H       -2.7974460     0.4229520     1.2842010
  H       -2.5674970     1.3742840    -0.1894550
  H       -3.7390610     0.0514200    -0.1666910
units angstrom
no_reorient  #important for SAPT in psi4, default
symmetry c1  #important for SAPT in psi4, default
}

set PROPERTIES_ORIGIN ["COM"]
properties('MP2/aug-cc-pvtz', properties = ['dipole'])
--------------------------------------------------------------------------

    Molecular point group: c1
  Charge       = 0
  Multiplicity = 1
  Basis Set: AUG-CC-PVTZ
    Blend: AUG-CC-PVTZ
  Basis Set: (AUG-CC-PVTZ AUX)
    Blend: AUG-CC-PVTZ-JKFIT

    Orbital Energies [Eh]
    ---------------------

    Doubly Occupied:

       1A    -11.216714     2A    -11.213085     3A    -11.212184
       4A    -11.211553     5A    -11.209859     6A    -11.208448
       7A    -11.208105     8A     -1.119983     9A     -1.033376
      10A     -0.956331    11A     -0.936912    12A     -0.833801
      13A     -0.773734    14A     -0.749531    15A     -0.650668
      16A     -0.628374    17A     -0.604537    18A     -0.572359
      19A     -0.556202    20A     -0.551530    21A     -0.512486
      22A     -0.487444    23A     -0.472955    24A     -0.465056
      25A     -0.459030    26A     -0.445353    27A     -0.440590
      28A     -0.424639

  @DF-RHF Final Energy:  -273.32315207975091

   => Energetics <=

    Nuclear Repulsion Energy =            322.0973615141233495
    One-Electron Energy =               -1006.5313473809085281
    Two-Electron Energy =                 411.1108337870342666
    Total Energy =                       -273.3231520797509120
  Basis Set: (AUG-CC-PVTZ AUX)
    Blend: AUG-CC-PVTZ-RI
    Molecular point group: c1

    Geometry (in Angstrom), charge = 0, multiplicity = 1:

       Center              X                  Y                   Z               Mass
    ------------   -----------------  -----------------  -----------------  -----------------
         C           -0.301741056434    -0.244889083743     0.273432691765    12.000000000000
         C            0.833410343566    -1.240980683743    -0.188064408235    12.000000000000
         C            0.243003943566     1.108322916257    -0.207280308235    12.000000000000
         C            2.090998943566    -0.471689083743     0.225611691765    12.000000000000
         C            1.779490943566     1.020680916257    -0.042709308235    12.000000000000
         C           -1.687796056434    -0.597488083743    -0.253859308235    12.000000000000
         C           -2.776493056434     0.375035916257     0.195150691765    12.000000000000
         H           -0.337393056434    -0.236937083743     1.374468691765     1.007825032230
         H            0.753278943566    -1.355213083743    -1.241497308235     1.007825032230
         H            0.719278943566    -2.198841083743     0.314229691765     1.007825032230
         H           -0.188707056434     1.957795916257     0.331012691765     1.007825032230
         H           -0.019215056434     1.233742916257    -1.266213308235     1.007825032230
         H            2.967525943566    -0.825956083743    -0.326015308235     1.007825032230
         H            2.298533943566    -0.628250083743     1.290134691765     1.007825032230
         H            2.130433943566     1.649421916257     0.781428691765     1.007825032230
         H            2.288005943566     1.375916916257    -0.944393308235     1.007825032230
         H           -1.948276056434    -1.612689083743     0.072539691765     1.007825032230
         H           -1.646798056434    -0.625879083743    -1.351336308235     1.007825032230
         H           -2.819546056434     0.431473916257     1.287673691765     1.007825032230
         H           -2.589597056434     1.382805916257    -0.185982308235     1.007825032230
         H           -3.761161056434     0.059941916257    -0.163218308235     1.007825032230

  Basis Set: AUG-CC-PVTZ
    Blend: AUG-CC-PVTZ
  Basis Set: (AUG-CC-PVTZ AUX)
    Blend: AUG-CC-PVTZ-JKFIT
	 Reference Energy          =    -273.3231520797509120 [Eh]
	 Singles Energy            =      -0.0000000000000000 [Eh]
	 Same-Spin Energy          =      -0.2969830688331926 [Eh]
	 Opposite-Spin Energy      =      -1.0772942449355432 [Eh]
	 Correlation Energy        =      -1.3742773137687356 [Eh]
	 Total Energy              =    -274.6974293935196556 [Eh]

	 ================> DF-SCS-MP2 Energies <==================
	-----------------------------------------------------------
	 SCS Same-Spin Scale       =       0.3333333333333333 [-]
	 SCS Opposite-Spin Scale   =       1.2000000000000000 [-]
	 SCS Same-Spin Energy      =      -0.0989943562777309 [Eh]
	 SCS Opposite-Spin Energy  =      -1.2927530939226517 [Eh]
	 SCS Correlation Energy    =      -1.3917474502003826 [Eh]
	 SCS Total Energy          =    -274.7148995299513103 [Eh]
	-----------------------------------------------------------

  Dipole Moment: [D]
     X:    -0.0133      Y:    -0.0492      Z:     0.0390     Total:     0.0642

*** Psi4 exiting successfully. Buy a developer a beer!
