                               Psi4 1.4a3.dev225

  ==> Input File <==

--------------------------------------------------------------------------
#psi4
#
memory 32 gb

molecule  {
0 1
  C       -0.2796410    -0.2534110     0.2699600
  C        0.8273080    -1.2201790    -0.1568800
  C        0.2651040     1.0998010    -0.2107530
  C        2.1130990    -0.4802110     0.2221390
  C        1.8015910     1.0121590    -0.0461820
  C       -1.6656960    -0.6060100    -0.2573320
  C       -2.7543930     0.3665140     0.1916780
  H       -0.3146457    -0.2456034     1.3510070
  H        0.7753790    -1.3637350    -1.2449700
  H        0.7413790    -2.2073630     0.3107570
  H       -0.1666070     1.9492740     0.3275400
  H        0.0028850     1.2252210    -1.2696860
  H        2.9896260    -0.8344780    -0.3294880
  H        2.3206340    -0.6367720     1.2866620
  H        2.1525340     1.6409000     0.7779560
  H        2.3101060     1.3673950    -0.9478660
  H       -1.9261760    -1.6212110     0.0690670
  H       -1.6246980    -0.6344010    -1.3548090
  H       -2.7974460     0.4229520     1.2842010
  H       -2.5674970     1.3742840    -0.1894550
  H       -3.7390610     0.0514200    -0.1666910
units angstrom
no_reorient  #important for SAPT in psi4, default
symmetry c1  #important for SAPT in psi4, default
}

set PROPERTIES_ORIGIN ["COM"]
properties('MP2/aug-cc-pvtz', properties = ['dipole'])
--------------------------------------------------------------------------

    Molecular point group: c1
  Charge       = 0
  Multiplicity = 1
  Basis Set: AUG-CC-PVTZ
    Blend: AUG-CC-PVTZ
  Basis Set: (AUG-CC-PVTZ AUX)
    Blend: AUG-CC-PVTZ-JKFIT

    Orbital Energies [Eh]
    ---------------------

    Doubly Occupied:

       1A    -11.213495     2A    -11.212231     3A    -11.212019
       4A    -11.211386     5A    -11.209901     6A    -11.209398
       7A    -11.208743     8A     -1.124970     9A     -1.033894
      10A     -0.955906    11A     -0.939919    12A     -0.833502
      13A     -0.771211    14A     -0.753520    15A     -0.652219
      16A     -0.630035    17A     -0.604575    18A     -0.569026
      19A     -0.557480    20A     -0.552172    21A     -0.512927
      22A     -0.485037    23A     -0.472091    24A     -0.464233
      25A     -0.452621    26A     -0.446244    27A     -0.443087
      28A     -0.435251

  @DF-RHF Final Energy:  -273.32551107607139

   => Energetics <=

    Nuclear Repulsion Energy =            322.8722782326290144
    One-Electron Energy =               -1008.0613937817565784
    Two-Electron Energy =                 411.8636044730561707
    Total Energy =                       -273.3255110760713933
  Basis Set: (AUG-CC-PVTZ AUX)
    Blend: AUG-CC-PVTZ-RI
    Molecular point group: c1

    Geometry (in Angstrom), charge = 0, multiplicity = 1:

       Center              X                  Y                   Z               Mass
    ------------   -----------------  -----------------  -----------------  -----------------
         C           -0.298298206749    -0.248474235937     0.269399039754    12.000000000000
         C            0.808650793251    -1.215242235937    -0.157440960246    12.000000000000
         C            0.246446793251     1.104737764063    -0.211313960246    12.000000000000
         C            2.094441793251    -0.475274235937     0.221578039754    12.000000000000
         C            1.782933793251     1.017095764063    -0.046742960246    12.000000000000
         C           -1.684353206749    -0.601073235937    -0.257892960246    12.000000000000
         C           -2.773050206749     0.371450764063     0.191117039754    12.000000000000
         H           -0.333302906749    -0.240666635937     1.350446039754     1.007825032230
         H            0.756721793251    -1.358798235937    -1.245530960246     1.007825032230
         H            0.722721793251    -2.202426235937     0.310196039754     1.007825032230
         H           -0.185264206749     1.954210764063     0.326979039754     1.007825032230
         H           -0.015772206749     1.230157764063    -1.270246960246     1.007825032230
         H            2.970968793251    -0.829541235937    -0.330048960246     1.007825032230
         H            2.301976793251    -0.631835235937     1.286101039754     1.007825032230
         H            2.133876793251     1.645836764063     0.777395039754     1.007825032230
         H            2.291448793251     1.372331764063    -0.948426960246     1.007825032230
         H           -1.944833206749    -1.616274235937     0.068506039754     1.007825032230
         H           -1.643355206749    -0.629464235937    -1.355369960246     1.007825032230
         H           -2.816103206749     0.427888764063     1.283640039754     1.007825032230
         H           -2.586154206749     1.379220764063    -0.190015960246     1.007825032230
         H           -3.757718206749     0.056356764063    -0.167251960246     1.007825032230

  Basis Set: AUG-CC-PVTZ
    Blend: AUG-CC-PVTZ
  Basis Set: (AUG-CC-PVTZ AUX)
    Blend: AUG-CC-PVTZ-JKFIT
	 Reference Energy          =    -273.3255110760713933 [Eh]
	 Singles Energy            =      -0.0000000000000000 [Eh]
	 Same-Spin Energy          =      -0.2971429713971092 [Eh]
	 Opposite-Spin Energy      =      -1.0771641116223374 [Eh]
	 Correlation Energy        =      -1.3743070830194466 [Eh]
	 Total Energy              =    -274.6998181590908530 [Eh]

	 ================> DF-SCS-MP2 Energies <==================
	-----------------------------------------------------------
	 SCS Same-Spin Scale       =       0.3333333333333333 [-]
	 SCS Opposite-Spin Scale   =       1.2000000000000000 [-]
	 SCS Same-Spin Energy      =      -0.0990476571323697 [Eh]
	 SCS Opposite-Spin Energy  =      -1.2925969339468049 [Eh]
	 SCS Correlation Energy    =      -1.3916445910791746 [Eh]
	 SCS Total Energy          =    -274.7171556671505641 [Eh]
	-----------------------------------------------------------

  Dipole Moment: [D]
     X:    -0.0104      Y:    -0.0465      Z:     0.0659     Total:     0.0813

*** Psi4 exiting successfully. Buy a developer a beer!
