                               Psi4 1.3.2 release

  ==> Input File <==

--------------------------------------------------------------------------
#psi4
#
memory 32 gb

molecule  {
0 1
  C       -0.2796410    -0.2534110     0.2699600
  C        0.8218220    -1.2147971    -0.1824610
  C        0.2651040     1.0998010    -0.2107530
  C        2.1130990    -0.4802110     0.2221390
  C        1.8015910     1.0121590    -0.0461820
  C       -1.6656960    -0.6060100    -0.2573320
  C       -2.7543930     0.3665140     0.1916780
  H       -0.3152930    -0.2454590     1.3709960
  H        0.7753790    -1.3637350    -1.2449700
  H        0.7413790    -2.2073630     0.3107570
  H       -0.1666070     1.9492740     0.3275400
  H        0.0028850     1.2252210    -1.2696860
  H        2.9896260    -0.8344780    -0.3294880
  H        2.3206340    -0.6367720     1.2866620
  H        2.1525340     1.6409000     0.7779560
  H        2.3101060     1.3673950    -0.9478660
  H       -1.9261760    -1.6212110     0.0690670
  H       -1.6246980    -0.6344010    -1.3548090
  H       -2.7974460     0.4229520     1.2842010
  H       -2.5674970     1.3742840    -0.1894550
  H       -3.7390610     0.0514200    -0.1666910
units angstrom
no_reorient  #important for SAPT in psi4, default
symmetry c1  #important for SAPT in psi4, default
}

set PROPERTIES_ORIGIN ["COM"]
properties('MP2/aug-cc-pvtz', properties = ['dipole'])
--------------------------------------------------------------------------

    Molecular point group: c1
  Charge       = 0
  Multiplicity = 1
  Basis Set: AUG-CC-PVTZ
    Blend: AUG-CC-PVTZ
  Basis Set: (AUG-CC-PVTZ AUX)
    Blend: AUG-CC-PVTZ-JKFIT

    Orbital Energies [Eh]
    ---------------------

    Doubly Occupied:

       1A    -11.214927     2A    -11.213405     3A    -11.212048
       4A    -11.211450     5A    -11.209944     6A    -11.209220
       7A    -11.208635     8A     -1.124454     9A     -1.033583
      10A     -0.955213    11A     -0.939336    12A     -0.833648
      13A     -0.772139    14A     -0.751441    15A     -0.650257
      16A     -0.630017    17A     -0.604464    18A     -0.571032
      19A     -0.557064    20A     -0.552122    21A     -0.512845
      22A     -0.485970    23A     -0.468527    24A     -0.462686
      25A     -0.456750    26A     -0.445777    27A     -0.442878
      28A     -0.433719

  @DF-RHF Final Energy:  -273.32469856751123

   => Energetics <=

    Nuclear Repulsion Energy =            322.7774112127372064
    One-Electron Energy =               -1007.8771156768797255
    Two-Electron Energy =                 411.7750058966312849
    Total Energy =                       -273.3246985675112342
  Basis Set: (AUG-CC-PVTZ AUX)
    Blend: AUG-CC-PVTZ-RI
    Molecular point group: c1

    Geometry (in Angstrom), charge = 0, multiplicity = 1:

       Center              X                  Y                   Z               Mass
    ------------   -----------------  -----------------  -----------------  -----------------
         C           -0.297620552384    -0.249133991584     0.272322573540    12.000000000000
         C            0.803842447616    -1.210520091584    -0.180098426460    12.000000000000
         C            0.247124447616     1.104078008416    -0.208390426460    12.000000000000
         C            2.095119447616    -0.475933991584     0.224501573540    12.000000000000
         C            1.783611447616     1.016436008416    -0.043819426460    12.000000000000
         C           -1.683675552384    -0.601732991584    -0.254969426460    12.000000000000
         C           -2.772372552384     0.370791008416     0.194040573540    12.000000000000
         H           -0.333272552384    -0.241181991584     1.373358573540     1.007825032230
         H            0.757399447616    -1.359457991584    -1.242607426460     1.007825032230
         H            0.723399447616    -2.203085991584     0.313119573540     1.007825032230
         H           -0.184586552384     1.953551008416     0.329902573540     1.007825032230
         H           -0.015094552384     1.229498008416    -1.267323426460     1.007825032230
         H            2.971646447616    -0.830200991584    -0.327125426460     1.007825032230
         H            2.302654447616    -0.632494991584     1.289024573540     1.007825032230
         H            2.134554447616     1.645177008416     0.780318573540     1.007825032230
         H            2.292126447616     1.371672008416    -0.945503426460     1.007825032230
         H           -1.944155552384    -1.616933991584     0.071429573540     1.007825032230
         H           -1.642677552384    -0.630123991584    -1.352446426460     1.007825032230
         H           -2.815425552384     0.427229008416     1.286563573540     1.007825032230
         H           -2.585476552384     1.378561008416    -0.187092426460     1.007825032230
         H           -3.757040552384     0.055697008416    -0.164328426460     1.007825032230

  Basis Set: AUG-CC-PVTZ
    Blend: AUG-CC-PVTZ
  Basis Set: (AUG-CC-PVTZ AUX)
    Blend: AUG-CC-PVTZ-JKFIT
	 Reference Energy          =    -273.3246985675112342 [Eh]
	 Singles Energy            =      -0.0000000000000000 [Eh]
	 Same-Spin Energy          =      -0.2971430184495963 [Eh]
	 Opposite-Spin Energy      =      -1.0773106170827762 [Eh]
	 Correlation Energy        =      -1.3744536355323724 [Eh]
	 Total Energy              =    -274.6991522030435817 [Eh]

	 ================> DF-SCS-MP2 Energies <==================
	-----------------------------------------------------------
	 SCS Same-Spin Scale       =       0.3333333333333333 [-]
	 SCS Opposite-Spin Scale   =       1.2000000000000000 [-]
	 SCS Same-Spin Energy      =      -0.0990476728165321 [Eh]
	 SCS Opposite-Spin Energy  =      -1.2927727404993314 [Eh]
	 SCS Correlation Energy    =      -1.3918204133158636 [Eh]
	 SCS Total Energy          =    -274.7165189808271180 [Eh]
	-----------------------------------------------------------

  Dipole Moment: [D]
     X:    -0.0080      Y:    -0.0447      Z:     0.0335     Total:     0.0565

*** Psi4 exiting successfully. Buy a developer a beer!
