                               Psi4 1.3.2 release

  ==> Input File <==

--------------------------------------------------------------------------
#psi4
#
memory 32 gb

molecule  {
0 1
  C       -0.2897572    -0.1587257     0.2225019
  C        0.8273080    -1.2201790    -0.1568800
  C        0.2651040     1.0998010    -0.2107530
  C        2.1130990    -0.4802110     0.2221390
  C        1.8015910     1.0121590    -0.0461820
  C       -1.6656960    -0.6060100    -0.2573320
  C       -2.7543930     0.3665140     0.1916780
  H       -0.3152930    -0.2454590     1.3709960
  H        0.7753790    -1.3637350    -1.2449700
  H        0.7413790    -2.2073630     0.3107570
  H       -0.1666070     1.9492740     0.3275400
  H        0.0028850     1.2252210    -1.2696860
  H        2.9896260    -0.8344780    -0.3294880
  H        2.3206340    -0.6367720     1.2866620
  H        2.1525340     1.6409000     0.7779560
  H        2.3101060     1.3673950    -0.9478660
  H       -1.9261760    -1.6212110     0.0690670
  H       -1.6246980    -0.6344010    -1.3548090
  H       -2.7974460     0.4229520     1.2842010
  H       -2.5674970     1.3742840    -0.1894550
  H       -3.7390610     0.0514200    -0.1666910
units angstrom
no_reorient  #important for SAPT in psi4, default
symmetry c1  #important for SAPT in psi4, default
}

set PROPERTIES_ORIGIN ["COM"]
properties('MP2/aug-cc-pvtz', properties = ['dipole'])
--------------------------------------------------------------------------

    Molecular point group: c1
  Charge       = 0
  Multiplicity = 1
  Basis Set: AUG-CC-PVTZ
    Blend: AUG-CC-PVTZ
  Basis Set: (AUG-CC-PVTZ AUX)
    Blend: AUG-CC-PVTZ-JKFIT

    Orbital Energies [Eh]
    ---------------------

    Doubly Occupied:

       1A    -11.218028     2A    -11.214900     3A    -11.213766
       4A    -11.211474     5A    -11.210832     6A    -11.207942
       7A    -11.207910     8A     -1.129804     9A     -1.034964
      10A     -0.960753    11A     -0.939610    12A     -0.834685
      13A     -0.773462    14A     -0.743990    15A     -0.655292
      16A     -0.633952    17A     -0.605054    18A     -0.568667
      19A     -0.553404    20A     -0.551565    21A     -0.518460
      22A     -0.487445    23A     -0.476919    24A     -0.467349
      25A     -0.459585    26A     -0.450937    27A     -0.433315
      28A     -0.417327

  @DF-RHF Final Energy:  -273.31355998550066

   => Energetics <=

    Nuclear Repulsion Energy =            323.2692611703330385
    One-Electron Energy =               -1008.8028641897001307
    Two-Electron Energy =                 412.2200430338664319
    Total Energy =                       -273.3135599855006603
  Basis Set: (AUG-CC-PVTZ AUX)
    Blend: AUG-CC-PVTZ-RI
    Molecular point group: c1

    Geometry (in Angstrom), charge = 0, multiplicity = 1:

       Center              X                  Y                   Z               Mass
    ------------   -----------------  -----------------  -----------------  -----------------
         C           -0.307170422197    -0.165371591496     0.227540310895    12.000000000000
         C            0.809894777803    -1.226824891496    -0.151841589105    12.000000000000
         C            0.247690777803     1.093155108504    -0.205714589105    12.000000000000
         C            2.095685777803    -0.486856891496     0.227177410895    12.000000000000
         C            1.784177777803     1.005513108504    -0.041143589105    12.000000000000
         C           -1.683109222197    -0.612655891496    -0.252293589105    12.000000000000
         C           -2.771806222197     0.359868108504     0.196716410895    12.000000000000
         H           -0.332706222197    -0.252104891496     1.376034410895     1.007825032230
         H            0.757965777803    -1.370380891496    -1.239931589105     1.007825032230
         H            0.723965777803    -2.214008891496     0.315795410895     1.007825032230
         H           -0.184020222197     1.942628108504     0.332578410895     1.007825032230
         H           -0.014528222197     1.218575108504    -1.264647589105     1.007825032230
         H            2.972212777803    -0.841123891496    -0.324449589105     1.007825032230
         H            2.303220777803    -0.643417891496     1.291700410895     1.007825032230
         H            2.135120777803     1.634254108504     0.782994410895     1.007825032230
         H            2.292692777803     1.360749108504    -0.942827589105     1.007825032230
         H           -1.943589222197    -1.627856891496     0.074105410895     1.007825032230
         H           -1.642111222197    -0.641046891496    -1.349770589105     1.007825032230
         H           -2.814859222197     0.416306108504     1.289239410895     1.007825032230
         H           -2.584910222197     1.367638108504    -0.184416589105     1.007825032230
         H           -3.756474222197     0.044774108504    -0.161652589105     1.007825032230

  Basis Set: AUG-CC-PVTZ
    Blend: AUG-CC-PVTZ
  Basis Set: (AUG-CC-PVTZ AUX)
    Blend: AUG-CC-PVTZ-JKFIT
	 Reference Energy          =    -273.3135599855006603 [Eh]
	 Singles Energy            =      -0.0000000000000000 [Eh]
	 Same-Spin Energy          =      -0.2979283242968285 [Eh]
	 Opposite-Spin Energy      =      -1.0784320103770497 [Eh]
	 Correlation Energy        =      -1.3763603346738782 [Eh]
	 Total Energy              =    -274.6899203201745649 [Eh]

	 ================> DF-SCS-MP2 Energies <==================
	-----------------------------------------------------------
	 SCS Same-Spin Scale       =       0.3333333333333333 [-]
	 SCS Opposite-Spin Scale   =       1.2000000000000000 [-]
	 SCS Same-Spin Energy      =      -0.0993094414322762 [Eh]
	 SCS Opposite-Spin Energy  =      -1.2941184124524596 [Eh]
	 SCS Correlation Energy    =      -1.3934278538847358 [Eh]
	 SCS Total Energy          =    -274.7069878393854196 [Eh]
	-----------------------------------------------------------

  Dipole Moment: [D]
     X:     0.0052      Y:    -0.0261      Z:     0.0141     Total:     0.0301

*** Psi4 exiting successfully. Buy a developer a beer!
