                               Psi4 1.4a3.dev225

  ==> Input File <==

--------------------------------------------------------------------------
#psi4
#
memory 32 gb

molecule  {
0 1
  C       -0.2796410    -0.2534110     0.2699600
  C        0.8128420    -1.2075449    -0.1513019
  C        0.2651040     1.0998010    -0.2107530
  C        2.1130990    -0.4802110     0.2221390
  C        1.8015910     1.0121590    -0.0461820
  C       -1.6656960    -0.6060100    -0.2573320
  C       -2.7543930     0.3665140     0.1916780
  H       -0.3152930    -0.2454590     1.3709960
  H        0.7753790    -1.3637350    -1.2449700
  H        0.7413790    -2.2073630     0.3107570
  H       -0.1666070     1.9492740     0.3275400
  H        0.0028850     1.2252210    -1.2696860
  H        2.9896260    -0.8344780    -0.3294880
  H        2.3206340    -0.6367720     1.2866620
  H        2.1525340     1.6409000     0.7779560
  H        2.3101060     1.3673950    -0.9478660
  H       -1.9261760    -1.6212110     0.0690670
  H       -1.6246980    -0.6344010    -1.3548090
  H       -2.7974460     0.4229520     1.2842010
  H       -2.5674970     1.3742840    -0.1894550
  H       -3.7390610     0.0514200    -0.1666910
units angstrom
no_reorient  #important for SAPT in psi4, default
symmetry c1  #important for SAPT in psi4, default
}

set PROPERTIES_ORIGIN ["COM"]
properties('MP2/aug-cc-pvtz', properties = ['dipole'])
--------------------------------------------------------------------------

    Molecular point group: c1
  Charge       = 0
  Multiplicity = 1
  Basis Set: AUG-CC-PVTZ
    Blend: AUG-CC-PVTZ
  Basis Set: (AUG-CC-PVTZ AUX)
    Blend: AUG-CC-PVTZ-JKFIT

    Orbital Energies [Eh]
    ---------------------

    Doubly Occupied:

       1A    -11.214277     2A    -11.213608     3A    -11.212061
       4A    -11.211523     5A    -11.210247     6A    -11.210202
       7A    -11.208829     8A     -1.126594     9A     -1.033933
      10A     -0.955821    11A     -0.940401    12A     -0.833601
      13A     -0.770349    14A     -0.752118    15A     -0.652175
      16A     -0.630664    17A     -0.604466    18A     -0.568960
      19A     -0.556760    20A     -0.552296    21A     -0.513232
      22A     -0.484640    23A     -0.470730    24A     -0.463537
      25A     -0.451156    26A     -0.445904    27A     -0.444158
      28A     -0.437411

  @DF-RHF Final Energy:  -273.32493084640964

   => Energetics <=

    Nuclear Repulsion Energy =            323.0354807686306344
    One-Electron Energy =               -1008.3815144402561828
    Two-Electron Energy =                 412.0211028252158485
    Total Energy =                       -273.3249308464096430
  Basis Set: (AUG-CC-PVTZ AUX)
    Blend: AUG-CC-PVTZ-RI
    Molecular point group: c1

    Geometry (in Angstrom), charge = 0, multiplicity = 1:

       Center              X                  Y                   Z               Mass
    ------------   -----------------  -----------------  -----------------  -----------------
         C           -0.296522188366    -0.250021024493     0.268511433867    12.000000000000
         C            0.795960811634    -1.204154924493    -0.152750466133    12.000000000000
         C            0.248222811634     1.103190975507    -0.212201566133    12.000000000000
         C            2.096217811634    -0.476821024493     0.220690433867    12.000000000000
         C            1.784709811634     1.015548975507    -0.047630566133    12.000000000000
         C           -1.682577188366    -0.602620024493    -0.258780566133    12.000000000000
         C           -2.771274188366     0.369903975507     0.190229433867    12.000000000000
         H           -0.332174188366    -0.242069024493     1.369547433867     1.007825032230
         H            0.758497811634    -1.360345024493    -1.246418566133     1.007825032230
         H            0.724497811634    -2.203973024493     0.309308433867     1.007825032230
         H           -0.183488188366     1.952663975507     0.326091433867     1.007825032230
         H           -0.013996188366     1.228610975507    -1.271134566133     1.007825032230
         H            2.972744811634    -0.831088024493    -0.330936566133     1.007825032230
         H            2.303752811634    -0.633382024493     1.285213433867     1.007825032230
         H            2.135652811634     1.644289975507     0.776507433867     1.007825032230
         H            2.293224811634     1.370784975507    -0.949314566133     1.007825032230
         H           -1.943057188366    -1.617821024493     0.067618433867     1.007825032230
         H           -1.641579188366    -0.631011024493    -1.356257566133     1.007825032230
         H           -2.814327188366     0.426341975507     1.282752433867     1.007825032230
         H           -2.584378188366     1.377673975507    -0.190903566133     1.007825032230
         H           -3.755942188366     0.054809975507    -0.168139566133     1.007825032230

  Basis Set: AUG-CC-PVTZ
    Blend: AUG-CC-PVTZ
  Basis Set: (AUG-CC-PVTZ AUX)
    Blend: AUG-CC-PVTZ-JKFIT
	 Reference Energy          =    -273.3249308464096430 [Eh]
	 Singles Energy            =      -0.0000000000000000 [Eh]
	 Same-Spin Energy          =      -0.2972684705588647 [Eh]
	 Opposite-Spin Energy      =      -1.0773958612776298 [Eh]
	 Correlation Energy        =      -1.3746643318364944 [Eh]
	 Total Energy              =    -274.6995951782461134 [Eh]

	 ================> DF-SCS-MP2 Energies <==================
	-----------------------------------------------------------
	 SCS Same-Spin Scale       =       0.3333333333333333 [-]
	 SCS Opposite-Spin Scale   =       1.2000000000000000 [-]
	 SCS Same-Spin Energy      =      -0.0990894901862882 [Eh]
	 SCS Opposite-Spin Energy  =      -1.2928750335331556 [Eh]
	 SCS Correlation Energy    =      -1.3919645237194438 [Eh]
	 SCS Total Energy          =    -274.7168953701290661 [Eh]
	-----------------------------------------------------------

  Dipole Moment: [D]
     X:    -0.0087      Y:    -0.0433      Z:     0.0504     Total:     0.0670

*** Psi4 exiting successfully. Buy a developer a beer!
