                               Psi4 1.3.2 release

  ==> Input File <==

--------------------------------------------------------------------------
#psi4
#
memory 32 gb

molecule  {
0 1
  C       -0.2796410    -0.2534110     0.2699600
  C        0.7756352    -1.1588640    -0.0862232
  C        0.2651040     1.0998010    -0.2107530
  C        2.1130990    -0.4802110     0.2221390
  C        1.8015910     1.0121590    -0.0461820
  C       -1.6656960    -0.6060100    -0.2573320
  C       -2.7543930     0.3665140     0.1916780
  H       -0.3152930    -0.2454590     1.3709960
  H        0.7753790    -1.3637350    -1.2449700
  H        0.7413790    -2.2073630     0.3107570
  H       -0.1666070     1.9492740     0.3275400
  H        0.0028850     1.2252210    -1.2696860
  H        2.9896260    -0.8344780    -0.3294880
  H        2.3206340    -0.6367720     1.2866620
  H        2.1525340     1.6409000     0.7779560
  H        2.3101060     1.3673950    -0.9478660
  H       -1.9261760    -1.6212110     0.0690670
  H       -1.6246980    -0.6344010    -1.3548090
  H       -2.7974460     0.4229520     1.2842010
  H       -2.5674970     1.3742840    -0.1894550
  H       -3.7390610     0.0514200    -0.1666910
units angstrom
no_reorient  #important for SAPT in psi4, default
symmetry c1  #important for SAPT in psi4, default
}

set PROPERTIES_ORIGIN ["COM"]
properties('MP2/aug-cc-pvtz', properties = ['dipole'])
--------------------------------------------------------------------------

    Molecular point group: c1
  Charge       = 0
  Multiplicity = 1
  Basis Set: AUG-CC-PVTZ
    Blend: AUG-CC-PVTZ
  Basis Set: (AUG-CC-PVTZ AUX)
    Blend: AUG-CC-PVTZ-JKFIT

    Orbital Energies [Eh]
    ---------------------

    Doubly Occupied:

       1A    -11.215220     2A    -11.215098     3A    -11.212406
       4A    -11.211883     5A    -11.211317     6A    -11.210705
       7A    -11.209565     8A     -1.136582     9A     -1.035367
      10A     -0.958493    11A     -0.943820    12A     -0.834124
      13A     -0.769088    14A     -0.752412    15A     -0.655543
      16A     -0.633996    17A     -0.604711    18A     -0.569509
      19A     -0.557445    20A     -0.551785    21A     -0.514480
      22A     -0.483141    23A     -0.472473    24A     -0.467402
      25A     -0.454087    26A     -0.446864    27A     -0.440446
      28A     -0.429709

  @DF-RHF Final Energy:  -273.31273256273153

   => Energetics <=

    Nuclear Repulsion Energy =            324.1581438124968031
    One-Electron Energy =               -1010.5464154855933430
    Two-Electron Energy =                 413.0755391103650709
    Total Energy =                       -273.3127325627315258
  Basis Set: (AUG-CC-PVTZ AUX)
    Blend: AUG-CC-PVTZ-RI
    Molecular point group: c1

    Geometry (in Angstrom), charge = 0, multiplicity = 1:

       Center              X                  Y                   Z               Mass
    ------------   -----------------  -----------------  -----------------  -----------------
         C           -0.291971340891    -0.255975294973     0.260551511552    12.000000000000
         C            0.763304859109    -1.161428294973    -0.095631688448    12.000000000000
         C            0.252773659109     1.097236705027    -0.220161488448    12.000000000000
         C            2.100768659109    -0.482775294973     0.212730511552    12.000000000000
         C            1.789260659109     1.009594705027    -0.055590488448    12.000000000000
         C           -1.678026340891    -0.608574294973    -0.266740488448    12.000000000000
         C           -2.766723340891     0.363949705027     0.182269511552    12.000000000000
         H           -0.327623340891    -0.248023294973     1.361587511552     1.007825032230
         H            0.763048659109    -1.366299294973    -1.254378488448     1.007825032230
         H            0.729048659109    -2.209927294973     0.301348511552     1.007825032230
         H           -0.178937340891     1.946709705027     0.318131511552     1.007825032230
         H           -0.009445340891     1.222656705027    -1.279094488448     1.007825032230
         H            2.977295659109    -0.837042294973    -0.338896488448     1.007825032230
         H            2.308303659109    -0.639336294973     1.277253511552     1.007825032230
         H            2.140203659109     1.638335705027     0.768547511552     1.007825032230
         H            2.297775659109     1.364830705027    -0.957274488448     1.007825032230
         H           -1.938506340891    -1.623775294973     0.059658511552     1.007825032230
         H           -1.637028340891    -0.636965294973    -1.364217488448     1.007825032230
         H           -2.809776340891     0.420387705027     1.274792511552     1.007825032230
         H           -2.579827340891     1.371719705027    -0.198863488448     1.007825032230
         H           -3.751391340891     0.048855705027    -0.176099488448     1.007825032230

  Basis Set: AUG-CC-PVTZ
    Blend: AUG-CC-PVTZ
  Basis Set: (AUG-CC-PVTZ AUX)
    Blend: AUG-CC-PVTZ-JKFIT
	 Reference Energy          =    -273.3127325627315258 [Eh]
	 Singles Energy            =      -0.0000000000000000 [Eh]
	 Same-Spin Energy          =      -0.2981403521925645 [Eh]
	 Opposite-Spin Energy      =      -1.0785140741271564 [Eh]
	 Correlation Energy        =      -1.3766544263197209 [Eh]
	 Total Energy              =    -274.6893869890512292 [Eh]

	 ================> DF-SCS-MP2 Energies <==================
	-----------------------------------------------------------
	 SCS Same-Spin Scale       =       0.3333333333333333 [-]
	 SCS Opposite-Spin Scale   =       1.2000000000000000 [-]
	 SCS Same-Spin Energy      =      -0.0993801173975215 [Eh]
	 SCS Opposite-Spin Energy  =      -1.2942168889525876 [Eh]
	 SCS Correlation Energy    =      -1.3935970063501091 [Eh]
	 SCS Total Energy          =    -274.7063295690816176 [Eh]
	-----------------------------------------------------------

  Dipole Moment: [D]
     X:    -0.0150      Y:    -0.0130      Z:     0.0935     Total:     0.0956

*** Psi4 exiting successfully. Buy a developer a beer!
