                               Psi4 1.3.2 release

  ==> Input File <==

--------------------------------------------------------------------------
#psi4
#
memory 32 gb

molecule  {
0 1
  C       -0.2762775    -0.3498141     0.3148492
  C        0.8273080    -1.2201790    -0.1568800
  C        0.2651040     1.0998010    -0.2107530
  C        2.1130990    -0.4802110     0.2221390
  C        1.8015910     1.0121590    -0.0461820
  C       -1.6656960    -0.6060100    -0.2573320
  C       -2.7543930     0.3665140     0.1916780
  H       -0.3152930    -0.2454590     1.3709960
  H        0.7753790    -1.3637350    -1.2449700
  H        0.7413790    -2.2073630     0.3107570
  H       -0.1666070     1.9492740     0.3275400
  H        0.0028850     1.2252210    -1.2696860
  H        2.9896260    -0.8344780    -0.3294880
  H        2.3206340    -0.6367720     1.2866620
  H        2.1525340     1.6409000     0.7779560
  H        2.3101060     1.3673950    -0.9478660
  H       -1.9261760    -1.6212110     0.0690670
  H       -1.6246980    -0.6344010    -1.3548090
  H       -2.7974460     0.4229520     1.2842010
  H       -2.5674970     1.3742840    -0.1894550
  H       -3.7390610     0.0514200    -0.1666910
units angstrom
no_reorient  #important for SAPT in psi4, default
symmetry c1  #important for SAPT in psi4, default
}

set PROPERTIES_ORIGIN ["COM"]
properties('MP2/aug-cc-pvtz', properties = ['dipole'])
--------------------------------------------------------------------------

    Molecular point group: c1
  Charge       = 0
  Multiplicity = 1
  Basis Set: AUG-CC-PVTZ
    Blend: AUG-CC-PVTZ
  Basis Set: (AUG-CC-PVTZ AUX)
    Blend: AUG-CC-PVTZ-JKFIT

    Orbital Energies [Eh]
    ---------------------

    Doubly Occupied:

       1A    -11.214758     2A    -11.213830     3A    -11.212252
       4A    -11.211511     5A    -11.210339     6A    -11.209879
       7A    -11.208913     8A     -1.122033     9A     -1.033518
      10A     -0.959185    11A     -0.933966    12A     -0.833872
      13A     -0.769456    14A     -0.757839    15A     -0.648709
      16A     -0.627968    17A     -0.603849    18A     -0.571562
      19A     -0.561778    20A     -0.551925    21A     -0.510475
      22A     -0.485732    23A     -0.471531    24A     -0.465402
      25A     -0.461637    26A     -0.450190    27A     -0.447469
      28A     -0.408995

  @DF-RHF Final Energy:  -273.31614764036817

   => Energetics <=

    Nuclear Repulsion Energy =            322.2241087390833059
    One-Electron Energy =               -1006.7633652299773530
    Two-Electron Energy =                 411.2231088505259322
    Total Energy =                       -273.3161476403681718
  Basis Set: (AUG-CC-PVTZ AUX)
    Blend: AUG-CC-PVTZ-RI
    Molecular point group: c1

    Geometry (in Angstrom), charge = 0, multiplicity = 1:

       Center              X                  Y                   Z               Mass
    ------------   -----------------  -----------------  -----------------  -----------------
         C           -0.295339454653    -0.333087539074     0.308592404721    12.000000000000
         C            0.808246045347    -1.203452439074    -0.163136795279    12.000000000000
         C            0.246042045347     1.116527560926    -0.217009795279    12.000000000000
         C            2.094037045347    -0.463484439074     0.215882204721    12.000000000000
         C            1.782529045347     1.028885560926    -0.052438795279    12.000000000000
         C           -1.684757954653    -0.589283439074    -0.263588795279    12.000000000000
         C           -2.773454954653     0.383240560926     0.185421204721    12.000000000000
         H           -0.334354954653    -0.228732439074     1.364739204721     1.007825032230
         H            0.756317045347    -1.347008439074    -1.251226795279     1.007825032230
         H            0.722317045347    -2.190636439074     0.304500204721     1.007825032230
         H           -0.185668954653     1.966000560926     0.321283204721     1.007825032230
         H           -0.016176954653     1.241947560926    -1.275942795279     1.007825032230
         H            2.970564045347    -0.817751439074    -0.335744795279     1.007825032230
         H            2.301572045347    -0.620045439074     1.280405204721     1.007825032230
         H            2.133472045347     1.657626560926     0.771699204721     1.007825032230
         H            2.291044045347     1.384121560926    -0.954122795279     1.007825032230
         H           -1.945237954653    -1.604484439074     0.062810204721     1.007825032230
         H           -1.643759954653    -0.617674439074    -1.361065795279     1.007825032230
         H           -2.816507954653     0.439678560926     1.277944204721     1.007825032230
         H           -2.586558954653     1.391010560926    -0.195711795279     1.007825032230
         H           -3.758122954653     0.068146560926    -0.172947795279     1.007825032230

  Basis Set: AUG-CC-PVTZ
    Blend: AUG-CC-PVTZ
  Basis Set: (AUG-CC-PVTZ AUX)
    Blend: AUG-CC-PVTZ-JKFIT
	 Reference Energy          =    -273.3161476403681718 [Eh]
	 Singles Energy            =      -0.0000000000000000 [Eh]
	 Same-Spin Energy          =      -0.2973504175282932 [Eh]
	 Opposite-Spin Energy      =      -1.0779137804937395 [Eh]
	 Correlation Energy        =      -1.3752641980220326 [Eh]
	 Total Energy              =    -274.6914118383901950 [Eh]

	 ================> DF-SCS-MP2 Energies <==================
	-----------------------------------------------------------
	 SCS Same-Spin Scale       =       0.3333333333333333 [-]
	 SCS Opposite-Spin Scale   =       1.2000000000000000 [-]
	 SCS Same-Spin Energy      =      -0.0991168058427644 [Eh]
	 SCS Opposite-Spin Energy  =      -1.2934965365924873 [Eh]
	 SCS Correlation Energy    =      -1.3926133424352516 [Eh]
	 SCS Total Energy          =    -274.7087609828034260 [Eh]
	-----------------------------------------------------------

  Dipole Moment: [D]
     X:    -0.0268      Y:    -0.0687      Z:     0.0720     Total:     0.1030

*** Psi4 exiting successfully. Buy a developer a beer!
