                               Psi4 1.3.2 release

  ==> Input File <==

--------------------------------------------------------------------------
#psi4
#
memory 32 gb

molecule  {
0 1
  C       -0.2796410    -0.2534110     0.2699600
  C        0.8273080    -1.2201790    -0.1568800
  C        0.2651040     1.0998010    -0.2107530
  C        2.0820612    -0.4862867     0.3242260
  C        1.8015910     1.0121590    -0.0461820
  C       -1.6656960    -0.6060100    -0.2573320
  C       -2.7543930     0.3665140     0.1916780
  H       -0.3152930    -0.2454590     1.3709960
  H        0.7753790    -1.3637350    -1.2449700
  H        0.7413790    -2.2073630     0.3107570
  H       -0.1666070     1.9492740     0.3275400
  H        0.0028850     1.2252210    -1.2696860
  H        2.9896260    -0.8344780    -0.3294880
  H        2.3206340    -0.6367720     1.2866620
  H        2.1525340     1.6409000     0.7779560
  H        2.3101060     1.3673950    -0.9478660
  H       -1.9261760    -1.6212110     0.0690670
  H       -1.6246980    -0.6344010    -1.3548090
  H       -2.7974460     0.4229520     1.2842010
  H       -2.5674970     1.3742840    -0.1894550
  H       -3.7390610     0.0514200    -0.1666910
units angstrom
no_reorient  #important for SAPT in psi4, default
symmetry c1  #important for SAPT in psi4, default
}

set PROPERTIES_ORIGIN ["COM"]
properties('MP2/aug-cc-pvtz', properties = ['dipole'])
--------------------------------------------------------------------------

    Molecular point group: c1
  Charge       = 0
  Multiplicity = 1
  Basis Set: AUG-CC-PVTZ
    Blend: AUG-CC-PVTZ
  Basis Set: (AUG-CC-PVTZ AUX)
    Blend: AUG-CC-PVTZ-JKFIT

    Orbital Energies [Eh]
    ---------------------

    Doubly Occupied:

       1A    -11.214535     2A    -11.213254     3A    -11.213153
       4A    -11.211812     5A    -11.210379     6A    -11.209585
       7A    -11.208534     8A     -1.124799     9A     -1.033038
      10A     -0.956824    11A     -0.938338    12A     -0.833086
      13A     -0.779257    14A     -0.749925    15A     -0.653420
      16A     -0.624608    17A     -0.605340    18A     -0.575306
      19A     -0.561885    20A     -0.546757    21A     -0.513608
      22A     -0.486186    23A     -0.472540    24A     -0.469323
      25A     -0.449164    26A     -0.445089    27A     -0.440890
      28A     -0.427918

  @DF-RHF Final Energy:  -273.31203279216822

   => Energetics <=

    Nuclear Repulsion Energy =            322.8193090433513817
    One-Electron Energy =               -1007.9255778275094144
    Two-Electron Energy =                 411.7942359919898081
    Total Energy =                       -273.3120327921682247
  Basis Set: (AUG-CC-PVTZ AUX)
    Blend: AUG-CC-PVTZ-RI
    Molecular point group: c1

    Geometry (in Angstrom), charge = 0, multiplicity = 1:

       Center              X                  Y                   Z               Mass
    ------------   -----------------  -----------------  -----------------  -----------------
         C           -0.294495254198    -0.247732586732     0.256707213027    12.000000000000
         C            0.812453745802    -1.214500586732    -0.170132786973    12.000000000000
         C            0.250249745802     1.105479413268    -0.224005786973    12.000000000000
         C            2.067206945802    -0.480608286732     0.310973213027    12.000000000000
         C            1.786736745802     1.017837413268    -0.059434786973    12.000000000000
         C           -1.680550254198    -0.600331586732    -0.270584786973    12.000000000000
         C           -2.769247254198     0.372192413268     0.178425213027    12.000000000000
         H           -0.330147254198    -0.239780586732     1.357743213027     1.007825032230
         H            0.760524745802    -1.358056586732    -1.258222786973     1.007825032230
         H            0.726524745802    -2.201684586732     0.297504213027     1.007825032230
         H           -0.181461254198     1.954952413268     0.314287213027     1.007825032230
         H           -0.011969254198     1.230899413268    -1.282938786973     1.007825032230
         H            2.974771745802    -0.828799586732    -0.342740786973     1.007825032230
         H            2.305779745802    -0.631093586732     1.273409213027     1.007825032230
         H            2.137679745802     1.646578413268     0.764703213027     1.007825032230
         H            2.295251745802     1.373073413268    -0.961118786973     1.007825032230
         H           -1.941030254198    -1.615532586732     0.055814213027     1.007825032230
         H           -1.639552254198    -0.628722586732    -1.368061786973     1.007825032230
         H           -2.812300254198     0.428630413268     1.270948213027     1.007825032230
         H           -2.582351254198     1.379962413268    -0.202707786973     1.007825032230
         H           -3.753915254198     0.057098413268    -0.179943786973     1.007825032230

  Basis Set: AUG-CC-PVTZ
    Blend: AUG-CC-PVTZ
  Basis Set: (AUG-CC-PVTZ AUX)
    Blend: AUG-CC-PVTZ-JKFIT
	 Reference Energy          =    -273.3120327921682247 [Eh]
	 Singles Energy            =      -0.0000000000000000 [Eh]
	 Same-Spin Energy          =      -0.2973398112213972 [Eh]
	 Opposite-Spin Energy      =      -1.0778522906186896 [Eh]
	 Correlation Energy        =      -1.3751921018400868 [Eh]
	 Total Energy              =    -274.6872248940082955 [Eh]

	 ================> DF-SCS-MP2 Energies <==================
	-----------------------------------------------------------
	 SCS Same-Spin Scale       =       0.3333333333333333 [-]
	 SCS Opposite-Spin Scale   =       1.2000000000000000 [-]
	 SCS Same-Spin Energy      =      -0.0991132704071324 [Eh]
	 SCS Opposite-Spin Energy  =      -1.2934227487424275 [Eh]
	 SCS Correlation Energy    =      -1.3925360191495599 [Eh]
	 SCS Total Energy          =    -274.7045688113178130 [Eh]
	-----------------------------------------------------------

  Dipole Moment: [D]
     X:    -0.0385      Y:    -0.0412      Z:     0.1050     Total:     0.1192

*** Psi4 exiting successfully. Buy a developer a beer!
