                               Psi4 1.3.2 release

  ==> Input File <==

--------------------------------------------------------------------------
#psi4
#
memory 32 gb

molecule  {
0 1
  C       -0.2796410    -0.2534110     0.2699600
  C        0.8273080    -1.2201790    -0.1568800
  C        0.2651040     1.0998010    -0.2107530
  C        2.1130990    -0.4802110     0.2221390
  C        1.8015910     1.0121590    -0.0461820
  C       -1.8475564    -0.6522735    -0.3265165
  C       -2.7543930     0.3665140     0.1916780
  H       -0.3152930    -0.2454590     1.3709960
  H        0.7753790    -1.3637350    -1.2449700
  H        0.7413790    -2.2073630     0.3107570
  H       -0.1666070     1.9492740     0.3275400
  H        0.0028850     1.2252210    -1.2696860
  H        2.9896260    -0.8344780    -0.3294880
  H        2.3206340    -0.6367720     1.2866620
  H        2.1525340     1.6409000     0.7779560
  H        2.3101060     1.3673950    -0.9478660
  H       -1.9261760    -1.6212110     0.0690670
  H       -1.6246980    -0.6344010    -1.3548090
  H       -2.7974460     0.4229520     1.2842010
  H       -2.5674970     1.3742840    -0.1894550
  H       -3.7390610     0.0514200    -0.1666910
units angstrom
no_reorient  #important for SAPT in psi4, default
symmetry c1  #important for SAPT in psi4, default
}

set PROPERTIES_ORIGIN ["COM"]
properties('MP2/aug-cc-pvtz', properties = ['dipole'])
--------------------------------------------------------------------------

    Molecular point group: c1
  Charge       = 0
  Multiplicity = 1
  Basis Set: AUG-CC-PVTZ
    Blend: AUG-CC-PVTZ
  Basis Set: (AUG-CC-PVTZ AUX)
    Blend: AUG-CC-PVTZ-JKFIT

    Orbital Energies [Eh]
    ---------------------

    Doubly Occupied:

       1A    -11.219095     2A    -11.213566     3A    -11.211300
       4A    -11.210616     5A    -11.209198     6A    -11.208462
       7A    -11.207442     8A     -1.116376     9A     -1.038081
      10A     -0.953782    11A     -0.938106    12A     -0.832143
      13A     -0.767833    14A     -0.750078    15A     -0.650095
      16A     -0.621877    17A     -0.617266    18A     -0.566601
      19A     -0.561048    20A     -0.549864    21A     -0.533327
      22A     -0.496980    23A     -0.471147    24A     -0.463264
      25A     -0.452964    26A     -0.446782    27A     -0.444020
      28A     -0.386357

  @DF-RHF Final Energy:  -273.29597231893143

   => Energetics <=

    Nuclear Repulsion Energy =            320.4819805686025802
    One-Electron Energy =               -1003.2805661359464011
    Two-Electron Energy =                 409.5026132484123877
    Total Energy =                       -273.2959723189314332
  Basis Set: (AUG-CC-PVTZ AUX)
    Blend: AUG-CC-PVTZ-RI
    Molecular point group: c1

    Geometry (in Angstrom), charge = 0, multiplicity = 1:

       Center              X                  Y                   Z               Mass
    ------------   -----------------  -----------------  -----------------  -----------------
         C           -0.276047802430    -0.242817126435     0.277655815794    12.000000000000
         C            0.830901197570    -1.209585126435    -0.149184184206    12.000000000000
         C            0.268697197570     1.110394873565    -0.203057184206    12.000000000000
         C            2.116692197570    -0.469617126435     0.229834815794    12.000000000000
         C            1.805184197570     1.022752873565    -0.038486184206    12.000000000000
         C           -1.843963202430    -0.641679626435    -0.318820684206    12.000000000000
         C           -2.750799802430     0.377107873565     0.199373815794    12.000000000000
         H           -0.311699802430    -0.234865126435     1.378691815794     1.007825032230
         H            0.778972197570    -1.353141126435    -1.237274184206     1.007825032230
         H            0.744972197570    -2.196769126435     0.318452815794     1.007825032230
         H           -0.163013802430     1.959867873565     0.335235815794     1.007825032230
         H            0.006478197570     1.235814873565    -1.261990184206     1.007825032230
         H            2.993219197570    -0.823884126435    -0.321792184206     1.007825032230
         H            2.324227197570    -0.626178126435     1.294357815794     1.007825032230
         H            2.156127197570     1.651493873565     0.785651815794     1.007825032230
         H            2.313699197570     1.377988873565    -0.940170184206     1.007825032230
         H           -1.922582802430    -1.610617126435     0.076762815794     1.007825032230
         H           -1.621104802430    -0.623807126435    -1.347113184206     1.007825032230
         H           -2.793852802430     0.433545873565     1.291896815794     1.007825032230
         H           -2.563903802430     1.384877873565    -0.181759184206     1.007825032230
         H           -3.735467802430     0.062013873565    -0.158995184206     1.007825032230

  Basis Set: AUG-CC-PVTZ
    Blend: AUG-CC-PVTZ
  Basis Set: (AUG-CC-PVTZ AUX)
    Blend: AUG-CC-PVTZ-JKFIT
	 Reference Energy          =    -273.2959723189314332 [Eh]
	 Singles Energy            =      -0.0000000000000000 [Eh]
	 Same-Spin Energy          =      -0.2979166738565097 [Eh]
	 Opposite-Spin Energy      =      -1.0792826697620479 [Eh]
	 Correlation Energy        =      -1.3771993436185577 [Eh]
	 Total Energy              =    -274.6731716625499757 [Eh]

	 ================> DF-SCS-MP2 Energies <==================
	-----------------------------------------------------------
	 SCS Same-Spin Scale       =       0.3333333333333333 [-]
	 SCS Opposite-Spin Scale   =       1.2000000000000000 [-]
	 SCS Same-Spin Energy      =      -0.0993055579521699 [Eh]
	 SCS Opposite-Spin Energy  =      -1.2951392037144573 [Eh]
	 SCS Correlation Energy    =      -1.3944447616666271 [Eh]
	 SCS Total Energy          =    -274.6904170805980812 [Eh]
	-----------------------------------------------------------

  Dipole Moment: [D]
     X:    -0.0581      Y:    -0.0397      Z:     0.0536     Total:     0.0885

*** Psi4 exiting successfully. Buy a developer a beer!
