                               Psi4 1.3.2 release

  ==> Input File <==

--------------------------------------------------------------------------
#psi4
#
memory 32 gb

molecule  {
0 1
  C       -0.2796410    -0.2534110     0.2699600
  C        0.8273080    -1.2201790    -0.1568800
  C        0.2651040     1.0998010    -0.2107530
  C        2.1198849    -0.4792546     0.1963091
  C        1.8015910     1.0121590    -0.0461820
  C       -1.6656960    -0.6060100    -0.2573320
  C       -2.7543930     0.3665140     0.1916780
  H       -0.3152930    -0.2454590     1.3709960
  H        0.7753790    -1.3637350    -1.2449700
  H        0.7413790    -2.2073630     0.3107570
  H       -0.1666070     1.9492740     0.3275400
  H        0.0028850     1.2252210    -1.2696860
  H        2.9896260    -0.8344780    -0.3294880
  H        2.3206340    -0.6367720     1.2866620
  H        2.1525340     1.6409000     0.7779560
  H        2.3101060     1.3673950    -0.9478660
  H       -1.9261760    -1.6212110     0.0690670
  H       -1.6246980    -0.6344010    -1.3548090
  H       -2.7974460     0.4229520     1.2842010
  H       -2.5674970     1.3742840    -0.1894550
  H       -3.7390610     0.0514200    -0.1666910
units angstrom
no_reorient  #important for SAPT in psi4, default
symmetry c1  #important for SAPT in psi4, default
}

set PROPERTIES_ORIGIN ["COM"]
properties('MP2/aug-cc-pvtz', properties = ['dipole'])
--------------------------------------------------------------------------

    Molecular point group: c1
  Charge       = 0
  Multiplicity = 1
  Basis Set: AUG-CC-PVTZ
    Blend: AUG-CC-PVTZ
  Basis Set: (AUG-CC-PVTZ AUX)
    Blend: AUG-CC-PVTZ-JKFIT

    Orbital Energies [Eh]
    ---------------------

    Doubly Occupied:

       1A    -11.215137     2A    -11.213743     3A    -11.212247
       4A    -11.211694     5A    -11.210369     6A    -11.209736
       7A    -11.208861     8A     -1.124739     9A     -1.034161
      10A     -0.956031    11A     -0.940002    12A     -0.833860
      13A     -0.769993    14A     -0.751955    15A     -0.651848
      16A     -0.631642    17A     -0.604291    18A     -0.568159
      19A     -0.555589    20A     -0.553032    21A     -0.513010
      22A     -0.485273    23A     -0.473212    24A     -0.467005
      25A     -0.448873    26A     -0.446298    27A     -0.441207
      28A     -0.436039

  @DF-RHF Final Energy:  -273.32464630026146

   => Energetics <=

    Nuclear Repulsion Energy =            322.7545793118626420
    One-Electron Energy =               -1007.8224406513297708
    Two-Electron Energy =                 411.7432150392056087
    Total Energy =                       -273.3246463002614632
  Basis Set: (AUG-CC-PVTZ AUX)
    Blend: AUG-CC-PVTZ-RI
    Molecular point group: c1

    Geometry (in Angstrom), charge = 0, multiplicity = 1:

       Center              X                  Y                   Z               Mass
    ------------   -----------------  -----------------  -----------------  -----------------
         C           -0.299121556102    -0.248592698715     0.272353017059    12.000000000000
         C            0.807827443898    -1.215360698715    -0.154486982941    12.000000000000
         C            0.245623443898     1.104619301285    -0.208359982941    12.000000000000
         C            2.100404343898    -0.474436298715     0.198702117059    12.000000000000
         C            1.782110443898     1.016977301285    -0.043788982941    12.000000000000
         C           -1.685176556102    -0.601191698715    -0.254938982941    12.000000000000
         C           -2.773873556102     0.371332301285     0.194071017059    12.000000000000
         H           -0.334773556102    -0.240640698715     1.373389017059     1.007825032230
         H            0.755898443898    -1.358916698715    -1.242576982941     1.007825032230
         H            0.721898443898    -2.202544698715     0.313150017059     1.007825032230
         H           -0.186087556102     1.954092301285     0.329933017059     1.007825032230
         H           -0.016595556102     1.230039301285    -1.267292982941     1.007825032230
         H            2.970145443898    -0.829659698715    -0.327094982941     1.007825032230
         H            2.301153443898    -0.631953698715     1.289055017059     1.007825032230
         H            2.133053443898     1.645718301285     0.780349017059     1.007825032230
         H            2.290625443898     1.372213301285    -0.945472982941     1.007825032230
         H           -1.945656556102    -1.616392698715     0.071460017059     1.007825032230
         H           -1.644178556102    -0.629582698715    -1.352415982941     1.007825032230
         H           -2.816926556102     0.427770301285     1.286594017059     1.007825032230
         H           -2.586977556102     1.379102301285    -0.187061982941     1.007825032230
         H           -3.758541556102     0.056238301285    -0.164297982941     1.007825032230

  Basis Set: AUG-CC-PVTZ
    Blend: AUG-CC-PVTZ
  Basis Set: (AUG-CC-PVTZ AUX)
    Blend: AUG-CC-PVTZ-JKFIT
	 Reference Energy          =    -273.3246463002614632 [Eh]
	 Singles Energy            =      -0.0000000000000000 [Eh]
	 Same-Spin Energy          =      -0.2971710458188953 [Eh]
	 Opposite-Spin Energy      =      -1.0773522626156251 [Eh]
	 Correlation Energy        =      -1.3745233084345203 [Eh]
	 Total Energy              =    -274.6991696086959678 [Eh]

	 ================> DF-SCS-MP2 Energies <==================
	-----------------------------------------------------------
	 SCS Same-Spin Scale       =       0.3333333333333333 [-]
	 SCS Opposite-Spin Scale   =       1.2000000000000000 [-]
	 SCS Same-Spin Energy      =      -0.0990570152729651 [Eh]
	 SCS Opposite-Spin Energy  =      -1.2928227151387501 [Eh]
	 SCS Correlation Energy    =      -1.3918797304117152 [Eh]
	 SCS Total Energy          =    -274.7165260306731511 [Eh]
	-----------------------------------------------------------

  Dipole Moment: [D]
     X:    -0.0102      Y:    -0.0448      Z:     0.0319     Total:     0.0559

*** Psi4 exiting successfully. Buy a developer a beer!
