                               Psi4 1.3.2 release

  ==> Input File <==

--------------------------------------------------------------------------
#psi4
#
memory 32 gb

molecule  {
0 1
  C       -0.2796410    -0.2534110     0.2699600
  C        0.8801736    -1.1362455    -0.1965184
  C        0.2651040     1.0998010    -0.2107530
  C        2.1130990    -0.4802110     0.2221390
  C        1.8015910     1.0121590    -0.0461820
  C       -1.6656960    -0.6060100    -0.2573320
  C       -2.7543930     0.3665140     0.1916780
  H       -0.3152930    -0.2454590     1.3709960
  H        0.7753790    -1.3637350    -1.2449700
  H        0.7413790    -2.2073630     0.3107570
  H       -0.1666070     1.9492740     0.3275400
  H        0.0028850     1.2252210    -1.2696860
  H        2.9896260    -0.8344780    -0.3294880
  H        2.3206340    -0.6367720     1.2866620
  H        2.1525340     1.6409000     0.7779560
  H        2.3101060     1.3673950    -0.9478660
  H       -1.9261760    -1.6212110     0.0690670
  H       -1.6246980    -0.6344010    -1.3548090
  H       -2.7974460     0.4229520     1.2842010
  H       -2.5674970     1.3742840    -0.1894550
  H       -3.7390610     0.0514200    -0.1666910
units angstrom
no_reorient  #important for SAPT in psi4, default
symmetry c1  #important for SAPT in psi4, default
}

set PROPERTIES_ORIGIN ["COM"]
properties('MP2/aug-cc-pvtz', properties = ['dipole'])
--------------------------------------------------------------------------

    Molecular point group: c1
  Charge       = 0
  Multiplicity = 1
  Basis Set: AUG-CC-PVTZ
    Blend: AUG-CC-PVTZ
  Basis Set: (AUG-CC-PVTZ AUX)
    Blend: AUG-CC-PVTZ-JKFIT

    Orbital Energies [Eh]
    ---------------------

    Doubly Occupied:

       1A    -11.215441     2A    -11.214834     3A    -11.213549
       4A    -11.211752     5A    -11.209974     6A    -11.209379
       7A    -11.209006     8A     -1.133266     9A     -1.038081
      10A     -0.957552    11A     -0.941313    12A     -0.834501
      13A     -0.769300    14A     -0.753339    15A     -0.646261
      16A     -0.636872    17A     -0.606970    18A     -0.571906
      19A     -0.559113    20A     -0.556053    21A     -0.512618
      22A     -0.487644    23A     -0.474699    24A     -0.461985
      25A     -0.450748    26A     -0.446896    27A     -0.442472
      28A     -0.426747

  @DF-RHF Final Energy:  -273.31266380643530

   => Energetics <=

    Nuclear Repulsion Energy =            323.7740661461543255
    One-Electron Energy =               -1009.7889164838350098
    Two-Electron Energy =                 412.7021865312453315
    Total Energy =                       -273.3126638064352960
  Basis Set: (AUG-CC-PVTZ AUX)
    Blend: AUG-CC-PVTZ-RI
    Molecular point group: c1

    Geometry (in Angstrom), charge = 0, multiplicity = 1:

       Center              X                  Y                   Z               Mass
    ------------   -----------------  -----------------  -----------------  -----------------
         C           -0.304757667953    -0.258741814631     0.274041965783    12.000000000000
         C            0.855056932047    -1.141576314631    -0.192436434217    12.000000000000
         C            0.239987332047     1.094470185369    -0.206671034217    12.000000000000
         C            2.087982332047    -0.485541814631     0.226220965783    12.000000000000
         C            1.776474332047     1.006828185369    -0.042100034217    12.000000000000
         C           -1.690812667953    -0.611340814631    -0.253250034217    12.000000000000
         C           -2.779509667953     0.361183185369     0.195759965783    12.000000000000
         H           -0.340409667953    -0.250789814631     1.375077965783     1.007825032230
         H            0.750262332047    -1.369065814631    -1.240888034217     1.007825032230
         H            0.716262332047    -2.212693814631     0.314838965783     1.007825032230
         H           -0.191723667953     1.943943185369     0.331621965783     1.007825032230
         H           -0.022231667953     1.219890185369    -1.265604034217     1.007825032230
         H            2.964509332047    -0.839808814631    -0.325406034217     1.007825032230
         H            2.295517332047    -0.642102814631     1.290743965783     1.007825032230
         H            2.127417332047     1.635569185369     0.782037965783     1.007825032230
         H            2.284989332047     1.362064185369    -0.943784034217     1.007825032230
         H           -1.951292667953    -1.626541814631     0.073148965783     1.007825032230
         H           -1.649814667953    -0.639731814631    -1.350727034217     1.007825032230
         H           -2.822562667953     0.417621185369     1.288282965783     1.007825032230
         H           -2.592613667953     1.368953185369    -0.185373034217     1.007825032230
         H           -3.764177667953     0.046089185369    -0.162609034217     1.007825032230

  Basis Set: AUG-CC-PVTZ
    Blend: AUG-CC-PVTZ
  Basis Set: (AUG-CC-PVTZ AUX)
    Blend: AUG-CC-PVTZ-JKFIT
	 Reference Energy          =    -273.3126638064352960 [Eh]
	 Singles Energy            =      -0.0000000000000000 [Eh]
	 Same-Spin Energy          =      -0.2980182676726833 [Eh]
	 Opposite-Spin Energy      =      -1.0782688020243358 [Eh]
	 Correlation Energy        =      -1.3762870696970191 [Eh]
	 Total Energy              =    -274.6889508761323100 [Eh]

	 ================> DF-SCS-MP2 Energies <==================
	-----------------------------------------------------------
	 SCS Same-Spin Scale       =       0.3333333333333333 [-]
	 SCS Opposite-Spin Scale   =       1.2000000000000000 [-]
	 SCS Same-Spin Energy      =      -0.0993394225575611 [Eh]
	 SCS Opposite-Spin Energy  =      -1.2939225624292030 [Eh]
	 SCS Correlation Energy    =      -1.3932619849867640 [Eh]
	 SCS Total Energy          =    -274.7059257914220325 [Eh]
	-----------------------------------------------------------

  Dipole Moment: [D]
     X:    -0.0114      Y:     0.0141      Z:     0.0082     Total:     0.0199

*** Psi4 exiting successfully. Buy a developer a beer!
