                               Psi4 1.3.2 release

  ==> Input File <==

--------------------------------------------------------------------------
#psi4
#
memory 32 gb

molecule  {
0 1
  C       -0.2796410    -0.2534110     0.2699600
  C        0.6826480    -1.0938383    -0.1010990
  C        0.2651040     1.0998010    -0.2107530
  C        2.1130990    -0.4802110     0.2221390
  C        1.8015910     1.0121590    -0.0461820
  C       -1.6656960    -0.6060100    -0.2573320
  C       -2.7543930     0.3665140     0.1916780
  H       -0.3152930    -0.2454590     1.3709960
  H        0.7753790    -1.3637350    -1.2449700
  H        0.7413790    -2.2073630     0.3107570
  H       -0.1666070     1.9492740     0.3275400
  H        0.0028850     1.2252210    -1.2696860
  H        2.9896260    -0.8344780    -0.3294880
  H        2.3206340    -0.6367720     1.2866620
  H        2.1525340     1.6409000     0.7779560
  H        2.3101060     1.3673950    -0.9478660
  H       -1.9261760    -1.6212110     0.0690670
  H       -1.6246980    -0.6344010    -1.3548090
  H       -2.7974460     0.4229520     1.2842010
  H       -2.5674970     1.3742840    -0.1894550
  H       -3.7390610     0.0514200    -0.1666910
units angstrom
no_reorient  #important for SAPT in psi4, default
symmetry c1  #important for SAPT in psi4, default
}

set PROPERTIES_ORIGIN ["COM"]
properties('MP2/aug-cc-pvtz', properties = ['dipole'])
--------------------------------------------------------------------------

    Molecular point group: c1
  Charge       = 0
  Multiplicity = 1
  Basis Set: AUG-CC-PVTZ
    Blend: AUG-CC-PVTZ
  Basis Set: (AUG-CC-PVTZ AUX)
    Blend: AUG-CC-PVTZ-JKFIT

    Orbital Energies [Eh]
    ---------------------

    Doubly Occupied:

       1A    -11.219351     2A    -11.216239     3A    -11.214849
       4A    -11.212852     5A    -11.211195     6A    -11.209818
       7A    -11.205152     8A     -1.151680     9A     -1.035340
      10A     -0.967404    11A     -0.939193    12A     -0.834933
      13A     -0.771974    14A     -0.752601    15A     -0.656127
      16A     -0.635841    17A     -0.604812    18A     -0.579717
      19A     -0.561441    20A     -0.549569    21A     -0.516064
      22A     -0.486547    23A     -0.482076    24A     -0.468701
      25A     -0.450377    26A     -0.447969    27A     -0.424165
      28A     -0.417667

  @DF-RHF Final Energy:  -273.27702237400746

   => Energetics <=

    Nuclear Repulsion Energy =            325.5818397162424844
    One-Electron Energy =               -1013.2704156429954310
    Two-Electron Energy =                 414.4115535527454881
    Total Energy =                       -273.2770223740074584
  Basis Set: (AUG-CC-PVTZ AUX)
    Blend: AUG-CC-PVTZ-RI
    Molecular point group: c1

    Geometry (in Angstrom), charge = 0, multiplicity = 1:

       Center              X                  Y                   Z               Mass
    ------------   -----------------  -----------------  -----------------  -----------------
         C           -0.280597867107    -0.263928734739     0.262371004141    12.000000000000
         C            0.681691132893    -1.104356034739    -0.108687995859    12.000000000000
         C            0.264147132893     1.089283265261    -0.218341995859    12.000000000000
         C            2.112142132893    -0.490728734739     0.214550004141    12.000000000000
         C            1.800634132893     1.001641265261    -0.053770995859    12.000000000000
         C           -1.666652867107    -0.616527734739    -0.264920995859    12.000000000000
         C           -2.755349867107     0.355996265261     0.184089004141    12.000000000000
         H           -0.316249867107    -0.255976734739     1.363407004141     1.007825032230
         H            0.774422132893    -1.374252734739    -1.252558995859     1.007825032230
         H            0.740422132893    -2.217880734739     0.303168004141     1.007825032230
         H           -0.167563867107     1.938756265261     0.319951004141     1.007825032230
         H            0.001928132893     1.214703265261    -1.277274995859     1.007825032230
         H            2.988669132893    -0.844995734739    -0.337076995859     1.007825032230
         H            2.319677132893    -0.647289734739     1.279073004141     1.007825032230
         H            2.151577132893     1.630382265261     0.770367004141     1.007825032230
         H            2.309149132893     1.356877265261    -0.955454995859     1.007825032230
         H           -1.927132867107    -1.631728734739     0.061478004141     1.007825032230
         H           -1.625654867107    -0.644918734739    -1.362397995859     1.007825032230
         H           -2.798402867107     0.412434265261     1.276612004141     1.007825032230
         H           -2.568453867107     1.363766265261    -0.197043995859     1.007825032230
         H           -3.740017867107     0.040902265261    -0.174279995859     1.007825032230

  Basis Set: AUG-CC-PVTZ
    Blend: AUG-CC-PVTZ
  Basis Set: (AUG-CC-PVTZ AUX)
    Blend: AUG-CC-PVTZ-JKFIT
	 Reference Energy          =    -273.2770223740074584 [Eh]
	 Singles Energy            =      -0.0000000000000000 [Eh]
	 Same-Spin Energy          =      -0.3000294692069397 [Eh]
	 Opposite-Spin Energy      =      -1.0812654303396543 [Eh]
	 Correlation Energy        =      -1.3812948995465939 [Eh]
	 Total Energy              =    -274.6583172735540757 [Eh]

	 ================> DF-SCS-MP2 Energies <==================
	-----------------------------------------------------------
	 SCS Same-Spin Scale       =       0.3333333333333333 [-]
	 SCS Opposite-Spin Scale   =       1.2000000000000000 [-]
	 SCS Same-Spin Energy      =      -0.1000098230689799 [Eh]
	 SCS Opposite-Spin Energy  =      -1.2975185164075851 [Eh]
	 SCS Correlation Energy    =      -1.3975283394765650 [Eh]
	 SCS Total Energy          =    -274.6745507134839954 [Eh]
	-----------------------------------------------------------

  Dipole Moment: [D]
     X:    -0.0408      Y:     0.0562      Z:     0.0718     Total:     0.0999

*** Psi4 exiting successfully. Buy a developer a beer!
