                               Psi4 1.3.2 release

  ==> Input File <==

--------------------------------------------------------------------------
#psi4
#
memory 32 gb

molecule  {
0 1
  C       -0.2796410    -0.2534110     0.2699600
  C        0.8412155    -1.2349558    -0.1742689
  C        0.2651040     1.0998010    -0.2107530
  C        2.1130990    -0.4802110     0.2221390
  C        1.8015910     1.0121590    -0.0461820
  C       -1.6656960    -0.6060100    -0.2573320
  C       -2.7543930     0.3665140     0.1916780
  H       -0.3152930    -0.2454590     1.3709960
  H        0.7753790    -1.3637350    -1.2449700
  H        0.7413790    -2.2073630     0.3107570
  H       -0.1666070     1.9492740     0.3275400
  H        0.0028850     1.2252210    -1.2696860
  H        2.9896260    -0.8344780    -0.3294880
  H        2.3206340    -0.6367720     1.2866620
  H        2.1525340     1.6409000     0.7779560
  H        2.3101060     1.3673950    -0.9478660
  H       -1.9261760    -1.6212110     0.0690670
  H       -1.6246980    -0.6344010    -1.3548090
  H       -2.7974460     0.4229520     1.2842010
  H       -2.5674970     1.3742840    -0.1894550
  H       -3.7390610     0.0514200    -0.1666910
units angstrom
no_reorient  #important for SAPT in psi4, default
symmetry c1  #important for SAPT in psi4, default
}

set PROPERTIES_ORIGIN ["COM"]
properties('MP2/aug-cc-pvtz', properties = ['dipole'])
--------------------------------------------------------------------------

    Molecular point group: c1
  Charge       = 0
  Multiplicity = 1
  Basis Set: AUG-CC-PVTZ
    Blend: AUG-CC-PVTZ
  Basis Set: (AUG-CC-PVTZ AUX)
    Blend: AUG-CC-PVTZ-JKFIT

    Orbital Energies [Eh]
    ---------------------

    Doubly Occupied:

       1A    -11.215822     2A    -11.213326     3A    -11.212117
       4A    -11.211454     5A    -11.209983     6A    -11.208778
       7A    -11.208595     8A     -1.122228     9A     -1.033607
      10A     -0.956090    11A     -0.938208    12A     -0.833678
      13A     -0.772251    14A     -0.750517    15A     -0.651311
      16A     -0.629230    17A     -0.604514    18A     -0.570502
      19A     -0.556283    20A     -0.551931    21A     -0.512752
      22A     -0.486150    23A     -0.472535    24A     -0.464706
      25A     -0.455736    26A     -0.445615    27A     -0.441352
      28A     -0.430613

  @DF-RHF Final Energy:  -273.32497795485654

   => Energetics <=

    Nuclear Repulsion Energy =            322.4319079868183167
    One-Electron Energy =               -1007.1940021972264958
    Two-Electron Energy =                 411.4371162555515866
    Total Energy =                       -273.3249779548565357
  Basis Set: (AUG-CC-PVTZ AUX)
    Blend: AUG-CC-PVTZ-RI
    Molecular point group: c1

    Geometry (in Angstrom), charge = 0, multiplicity = 1:

       Center              X                  Y                   Z               Mass
    ------------   -----------------  -----------------  -----------------  -----------------
         C           -0.299992615031    -0.246668335601     0.271320579345    12.000000000000
         C            0.820863884969    -1.228213135601    -0.172908320655    12.000000000000
         C            0.244752384969     1.106543664399    -0.209392420655    12.000000000000
         C            2.092747384969    -0.473468335601     0.223499579345    12.000000000000
         C            1.781239384969     1.018901664399    -0.044821420655    12.000000000000
         C           -1.686047615031    -0.599267335601    -0.255971420655    12.000000000000
         C           -2.774744615031     0.373256664399     0.193038579345    12.000000000000
         H           -0.335644615031    -0.238716335601     1.372356579345     1.007825032230
         H            0.755027384969    -1.356992335601    -1.243609420655     1.007825032230
         H            0.721027384969    -2.200620335601     0.312117579345     1.007825032230
         H           -0.186958615031     1.956016664399     0.328900579345     1.007825032230
         H           -0.017466615031     1.231963664399    -1.268325420655     1.007825032230
         H            2.969274384969    -0.827735335601    -0.328127420655     1.007825032230
         H            2.300282384969    -0.630029335601     1.288022579345     1.007825032230
         H            2.132182384969     1.647642664399     0.779316579345     1.007825032230
         H            2.289754384969     1.374137664399    -0.946505420655     1.007825032230
         H           -1.946527615031    -1.614468335601     0.070427579345     1.007825032230
         H           -1.645049615031    -0.627658335601    -1.353448420655     1.007825032230
         H           -2.817797615031     0.429694664399     1.285561579345     1.007825032230
         H           -2.587848615031     1.381026664399    -0.188094420655     1.007825032230
         H           -3.759412615031     0.058162664399    -0.165330420655     1.007825032230

  Basis Set: AUG-CC-PVTZ
    Blend: AUG-CC-PVTZ
  Basis Set: (AUG-CC-PVTZ AUX)
    Blend: AUG-CC-PVTZ-JKFIT
	 Reference Energy          =    -273.3249779548565357 [Eh]
	 Singles Energy            =      -0.0000000000000000 [Eh]
	 Same-Spin Energy          =      -0.2970438083979983 [Eh]
	 Opposite-Spin Energy      =      -1.0772446641796360 [Eh]
	 Correlation Energy        =      -1.3742884725776343 [Eh]
	 Total Energy              =    -274.6992664274341678 [Eh]

	 ================> DF-SCS-MP2 Energies <==================
	-----------------------------------------------------------
	 SCS Same-Spin Scale       =       0.3333333333333333 [-]
	 SCS Opposite-Spin Scale   =       1.2000000000000000 [-]
	 SCS Same-Spin Energy      =      -0.0990146027993327 [Eh]
	 SCS Opposite-Spin Energy  =      -1.2926935970155633 [Eh]
	 SCS Correlation Energy    =      -1.3917081998148961 [Eh]
	 SCS Total Energy          =    -274.7166861546714358 [Eh]
	-----------------------------------------------------------

  Dipole Moment: [D]
     X:    -0.0110      Y:    -0.0490      Z:     0.0438     Total:     0.0666

*** Psi4 exiting successfully. Buy a developer a beer!
