                               Psi4 1.3.2 release

  ==> Input File <==

--------------------------------------------------------------------------
#psi4
#
memory 32 gb

molecule  {
0 1
  C       -0.2796410    -0.2534110     0.2699600
  C        0.7908771    -1.2485642    -0.1837248
  C        0.2651040     1.0998010    -0.2107530
  C        2.1130990    -0.4802110     0.2221390
  C        1.8015910     1.0121590    -0.0461820
  C       -1.6656960    -0.6060100    -0.2573320
  C       -2.7543930     0.3665140     0.1916780
  H       -0.3152930    -0.2454590     1.3709960
  H        0.7753790    -1.3637350    -1.2449700
  H        0.7413790    -2.2073630     0.3107570
  H       -0.1666070     1.9492740     0.3275400
  H        0.0028850     1.2252210    -1.2696860
  H        2.9896260    -0.8344780    -0.3294880
  H        2.3206340    -0.6367720     1.2866620
  H        2.1525340     1.6409000     0.7779560
  H        2.3101060     1.3673950    -0.9478660
  H       -1.9261760    -1.6212110     0.0690670
  H       -1.6246980    -0.6344010    -1.3548090
  H       -2.7974460     0.4229520     1.2842010
  H       -2.5674970     1.3742840    -0.1894550
  H       -3.7390610     0.0514200    -0.1666910
units angstrom
no_reorient  #important for SAPT in psi4, default
symmetry c1  #important for SAPT in psi4, default
}

set PROPERTIES_ORIGIN ["COM"]
properties('MP2/aug-cc-pvtz', properties = ['dipole'])
--------------------------------------------------------------------------

    Molecular point group: c1
  Charge       = 0
  Multiplicity = 1
  Basis Set: AUG-CC-PVTZ
    Blend: AUG-CC-PVTZ
  Basis Set: (AUG-CC-PVTZ AUX)
    Blend: AUG-CC-PVTZ-JKFIT

    Orbital Energies [Eh]
    ---------------------

    Doubly Occupied:

       1A    -11.215184     2A    -11.213270     3A    -11.212692
       4A    -11.211686     5A    -11.210381     6A    -11.208062
       7A    -11.208017     8A     -1.121312     9A     -1.031791
      10A     -0.955155    11A     -0.937732    12A     -0.833462
      13A     -0.774120    14A     -0.750684    15A     -0.652386
      16A     -0.627311    17A     -0.603694    18A     -0.572443
      19A     -0.556585    20A     -0.550780    21A     -0.513144
      22A     -0.486754    23A     -0.470793    24A     -0.464830
      25A     -0.456638    26A     -0.445901    27A     -0.439750
      28A     -0.429776

  @DF-RHF Final Energy:  -273.32320368378095

   => Energetics <=

    Nuclear Repulsion Energy =            322.3474764111130071
    One-Electron Energy =               -1007.0326924242972382
    Two-Electron Energy =                 411.3620123294032851
    Total Energy =                       -273.3232036837809460
  Basis Set: (AUG-CC-PVTZ AUX)
    Blend: AUG-CC-PVTZ-RI
    Molecular point group: c1

    Geometry (in Angstrom), charge = 0, multiplicity = 1:

       Center              X                  Y                   Z               Mass
    ------------   -----------------  -----------------  -----------------  -----------------
         C           -0.293835611995    -0.245003861559     0.272477151763    12.000000000000
         C            0.776682488005    -1.240157061559    -0.181207648237    12.000000000000
         C            0.250909388005     1.108208138441    -0.208235848237    12.000000000000
         C            2.098904388005    -0.471803861559     0.224656151763    12.000000000000
         C            1.787396388005     1.020566138441    -0.043664848237    12.000000000000
         C           -1.679890611995    -0.597602861559    -0.254814848237    12.000000000000
         C           -2.768587611995     0.374921138441     0.194195151763    12.000000000000
         H           -0.329487611995    -0.237051861559     1.373513151763     1.007825032230
         H            0.761184388005    -1.355327861559    -1.242452848237     1.007825032230
         H            0.727184388005    -2.198955861559     0.313274151763     1.007825032230
         H           -0.180801611995     1.957681138441     0.330057151763     1.007825032230
         H           -0.011309611995     1.233628138441    -1.267168848237     1.007825032230
         H            2.975431388005    -0.826070861559    -0.326970848237     1.007825032230
         H            2.306439388005    -0.628364861559     1.289179151763     1.007825032230
         H            2.138339388005     1.649307138441     0.780473151763     1.007825032230
         H            2.295911388005     1.375802138441    -0.945348848237     1.007825032230
         H           -1.940370611995    -1.612803861559     0.071584151763     1.007825032230
         H           -1.638892611995    -0.625993861559    -1.352291848237     1.007825032230
         H           -2.811640611995     0.431359138441     1.286718151763     1.007825032230
         H           -2.581691611995     1.382691138441    -0.186937848237     1.007825032230
         H           -3.753255611995     0.059827138441    -0.164173848237     1.007825032230

  Basis Set: AUG-CC-PVTZ
    Blend: AUG-CC-PVTZ
  Basis Set: (AUG-CC-PVTZ AUX)
    Blend: AUG-CC-PVTZ-JKFIT
	 Reference Energy          =    -273.3232036837809460 [Eh]
	 Singles Energy            =      -0.0000000000000000 [Eh]
	 Same-Spin Energy          =      -0.2969751620166968 [Eh]
	 Opposite-Spin Energy      =      -1.0773380889675948 [Eh]
	 Correlation Energy        =      -1.3743132509842915 [Eh]
	 Total Energy              =    -274.6975169347652468 [Eh]

	 ================> DF-SCS-MP2 Energies <==================
	-----------------------------------------------------------
	 SCS Same-Spin Scale       =       0.3333333333333333 [-]
	 SCS Opposite-Spin Scale   =       1.2000000000000000 [-]
	 SCS Same-Spin Energy      =      -0.0989917206722323 [Eh]
	 SCS Opposite-Spin Energy  =      -1.2928057067611136 [Eh]
	 SCS Correlation Energy    =      -1.3917974274333460 [Eh]
	 SCS Total Energy          =    -274.7150011112142920 [Eh]
	-----------------------------------------------------------

  Dipole Moment: [D]
     X:    -0.0028      Y:    -0.0552      Z:     0.0392     Total:     0.0678

*** Psi4 exiting successfully. Buy a developer a beer!
