                               Psi4 1.3.2 release

  ==> Input File <==

--------------------------------------------------------------------------
#psi4
#
memory 32 gb

molecule  {
0 1
  C       -0.2796410    -0.2534110     0.2699600
  C        0.8324568    -1.2252664    -0.1311690
  C        0.2651040     1.0998010    -0.2107530
  C        2.1130990    -0.4802110     0.2221390
  C        1.8015910     1.0121590    -0.0461820
  C       -1.6656960    -0.6060100    -0.2573320
  C       -2.7543930     0.3665140     0.1916780
  H       -0.3152930    -0.2454590     1.3709960
  H        0.7753790    -1.3637350    -1.2449700
  H        0.7413790    -2.2073630     0.3107570
  H       -0.1666070     1.9492740     0.3275400
  H        0.0028850     1.2252210    -1.2696860
  H        2.9896260    -0.8344780    -0.3294880
  H        2.3206340    -0.6367720     1.2866620
  H        2.1525340     1.6409000     0.7779560
  H        2.3101060     1.3673950    -0.9478660
  H       -1.9261760    -1.6212110     0.0690670
  H       -1.6246980    -0.6344010    -1.3548090
  H       -2.7974460     0.4229520     1.2842010
  H       -2.5674970     1.3742840    -0.1894550
  H       -3.7390610     0.0514200    -0.1666910
units angstrom
no_reorient  #important for SAPT in psi4, default
symmetry c1  #important for SAPT in psi4, default
}

set PROPERTIES_ORIGIN ["COM"]
properties('MP2/aug-cc-pvtz', properties = ['dipole'])
--------------------------------------------------------------------------

    Molecular point group: c1
  Charge       = 0
  Multiplicity = 1
  Basis Set: AUG-CC-PVTZ
    Blend: AUG-CC-PVTZ
  Basis Set: (AUG-CC-PVTZ AUX)
    Blend: AUG-CC-PVTZ-JKFIT

    Orbital Energies [Eh]
    ---------------------

    Doubly Occupied:

       1A    -11.215062     2A    -11.213775     3A    -11.212365
       4A    -11.211357     5A    -11.210373     6A    -11.210226
       7A    -11.208888     8A     -1.124938     9A     -1.034193
      10A     -0.956947    11A     -0.939710    12A     -0.833674
      13A     -0.770152    14A     -0.751431    15A     -0.653777
      16A     -0.630378    17A     -0.604581    18A     -0.567393
      19A     -0.555891    20A     -0.552162    21A     -0.513341
      22A     -0.484437    23A     -0.476744    24A     -0.465026
      25A     -0.447035    26A     -0.446362    27A     -0.441995
      28A     -0.436815

  @DF-RHF Final Energy:  -273.32463184470942

   => Energetics <=

    Nuclear Repulsion Energy =            322.7618134010530184
    One-Electron Energy =               -1007.8348323992281621
    Two-Electron Energy =                 411.7483871534657283
    Total Energy =                       -273.3246318447094154
  Basis Set: (AUG-CC-PVTZ AUX)
    Blend: AUG-CC-PVTZ-RI
    Molecular point group: c1

    Geometry (in Angstrom), charge = 0, multiplicity = 1:

       Center              X                  Y                   Z               Mass
    ------------   -----------------  -----------------  -----------------  -----------------
         C           -0.298921318715    -0.247853467930     0.266048933541    12.000000000000
         C            0.813176481285    -1.219708867930    -0.135080066459    12.000000000000
         C            0.245823681285     1.105358532070    -0.214664066459    12.000000000000
         C            2.093818681285    -0.474653467930     0.218227933541    12.000000000000
         C            1.782310681285     1.017716532070    -0.050093066459    12.000000000000
         C           -1.684976318715    -0.600452467930    -0.261243066459    12.000000000000
         C           -2.773673318715     0.372071532070     0.187766933541    12.000000000000
         H           -0.334573318715    -0.239901467930     1.367084933541     1.007825032230
         H            0.756098681285    -1.358177467930    -1.248881066459     1.007825032230
         H            0.722098681285    -2.201805467930     0.306845933541     1.007825032230
         H           -0.185887318715     1.954831532070     0.323628933541     1.007825032230
         H           -0.016395318715     1.230778532070    -1.273597066459     1.007825032230
         H            2.970345681285    -0.828920467930    -0.333399066459     1.007825032230
         H            2.301353681285    -0.631214467930     1.282750933541     1.007825032230
         H            2.133253681285     1.646457532070     0.774044933541     1.007825032230
         H            2.290825681285     1.372952532070    -0.951777066459     1.007825032230
         H           -1.945456318715    -1.615653467930     0.065155933541     1.007825032230
         H           -1.643978318715    -0.628843467930    -1.358720066459     1.007825032230
         H           -2.816726318715     0.428509532070     1.280289933541     1.007825032230
         H           -2.586777318715     1.379841532070    -0.193366066459     1.007825032230
         H           -3.758341318715     0.056977532070    -0.170602066459     1.007825032230

  Basis Set: AUG-CC-PVTZ
    Blend: AUG-CC-PVTZ
  Basis Set: (AUG-CC-PVTZ AUX)
    Blend: AUG-CC-PVTZ-JKFIT
	 Reference Energy          =    -273.3246318447094154 [Eh]
	 Singles Energy            =      -0.0000000000000000 [Eh]
	 Same-Spin Energy          =      -0.2971959125325827 [Eh]
	 Opposite-Spin Energy      =      -1.0773591547367025 [Eh]
	 Correlation Energy        =      -1.3745550672692852 [Eh]
	 Total Energy              =    -274.6991869119786998 [Eh]

	 ================> DF-SCS-MP2 Energies <==================
	-----------------------------------------------------------
	 SCS Same-Spin Scale       =       0.3333333333333333 [-]
	 SCS Opposite-Spin Scale   =       1.2000000000000000 [-]
	 SCS Same-Spin Energy      =      -0.0990653041775276 [Eh]
	 SCS Opposite-Spin Energy  =      -1.2928309856840430 [Eh]
	 SCS Correlation Energy    =      -1.3918962898615705 [Eh]
	 SCS Total Energy          =    -274.7165281345709786 [Eh]
	-----------------------------------------------------------

  Dipole Moment: [D]
     X:    -0.0112      Y:    -0.0457      Z:     0.0692     Total:     0.0837

*** Psi4 exiting successfully. Buy a developer a beer!
