                               Psi4 1.3.2 release

  ==> Input File <==

--------------------------------------------------------------------------
#psi4
#
memory 32 gb

molecule  {
0 1
  C       -0.2258817    -0.2712842     0.4197992
  C        0.8273080    -1.2201790    -0.1568800
  C        0.2651040     1.0998010    -0.2107530
  C        2.1130990    -0.4802110     0.2221390
  C        1.8015910     1.0121590    -0.0461820
  C       -1.6656960    -0.6060100    -0.2573320
  C       -2.7543930     0.3665140     0.1916780
  H       -0.3152930    -0.2454590     1.3709960
  H        0.7753790    -1.3637350    -1.2449700
  H        0.7413790    -2.2073630     0.3107570
  H       -0.1666070     1.9492740     0.3275400
  H        0.0028850     1.2252210    -1.2696860
  H        2.9896260    -0.8344780    -0.3294880
  H        2.3206340    -0.6367720     1.2866620
  H        2.1525340     1.6409000     0.7779560
  H        2.3101060     1.3673950    -0.9478660
  H       -1.9261760    -1.6212110     0.0690670
  H       -1.6246980    -0.6344010    -1.3548090
  H       -2.7974460     0.4229520     1.2842010
  H       -2.5674970     1.3742840    -0.1894550
  H       -3.7390610     0.0514200    -0.1666910
units angstrom
no_reorient  #important for SAPT in psi4, default
symmetry c1  #important for SAPT in psi4, default
}

set PROPERTIES_ORIGIN ["COM"]
properties('MP2/aug-cc-pvtz', properties = ['dipole'])
--------------------------------------------------------------------------

    Molecular point group: c1
  Charge       = 0
  Multiplicity = 1
  Basis Set: AUG-CC-PVTZ
    Blend: AUG-CC-PVTZ
  Basis Set: (AUG-CC-PVTZ AUX)
    Blend: AUG-CC-PVTZ-JKFIT

    Orbital Energies [Eh]
    ---------------------

    Doubly Occupied:

       1A    -11.215753     2A    -11.212083     3A    -11.211001
       4A    -11.210485     5A    -11.209989     6A    -11.209423
       7A    -11.206829     8A     -1.119961     9A     -1.024441
      10A     -0.954895    11A     -0.936870    12A     -0.823602
      13A     -0.785348    14A     -0.761517    15A     -0.649006
      16A     -0.626137    17A     -0.599630    18A     -0.572779
      19A     -0.566878    20A     -0.546839    21A     -0.505377
      22A     -0.487793    23A     -0.481057    24A     -0.471478
      25A     -0.461867    26A     -0.449257    27A     -0.424948
      28A     -0.409664

  @DF-RHF Final Energy:  -273.29505847803614

   => Energetics <=

    Nuclear Repulsion Energy =            321.8115684739764788
    One-Electron Energy =               -1005.9434414100102231
    Two-Electron Energy =                 410.8368144579975478
    Total Energy =                       -273.2950584780361396
  Basis Set: (AUG-CC-PVTZ AUX)
    Blend: AUG-CC-PVTZ-RI
    Molecular point group: c1

    Geometry (in Angstrom), charge = 0, multiplicity = 1:

       Center              X                  Y                   Z               Mass
    ------------   -----------------  -----------------  -----------------  -----------------
         C           -0.251107678412    -0.264162807946     0.400705733936    12.000000000000
         C            0.802082021588    -1.213057607946    -0.175973466064    12.000000000000
         C            0.239878021588     1.106922392054    -0.229846466064    12.000000000000
         C            2.087873021588    -0.473089607946     0.203045533936    12.000000000000
         C            1.776365021588     1.019280392054    -0.065275466064    12.000000000000
         C           -1.690921978412    -0.598888607946    -0.276425466064    12.000000000000
         C           -2.779618978412     0.373635392054     0.172584533936    12.000000000000
         H           -0.340518978412    -0.238337607946     1.351902533936     1.007825032230
         H            0.750153021588    -1.356613607946    -1.264063466064     1.007825032230
         H            0.716153021588    -2.200241607946     0.291663533936     1.007825032230
         H           -0.191832978412     1.956395392054     0.308446533936     1.007825032230
         H           -0.022340978412     1.232342392054    -1.288779466064     1.007825032230
         H            2.964400021588    -0.827356607946    -0.348581466064     1.007825032230
         H            2.295408021588    -0.629650607946     1.267568533936     1.007825032230
         H            2.127308021588     1.648021392054     0.758862533936     1.007825032230
         H            2.284880021588     1.374516392054    -0.966959466064     1.007825032230
         H           -1.951401978412    -1.614089607946     0.049973533936     1.007825032230
         H           -1.649923978412    -0.627279607946    -1.373902466064     1.007825032230
         H           -2.822671978412     0.430073392054     1.265107533936     1.007825032230
         H           -2.592722978412     1.381405392054    -0.208548466064     1.007825032230
         H           -3.764286978412     0.058541392054    -0.185784466064     1.007825032230

  Basis Set: AUG-CC-PVTZ
    Blend: AUG-CC-PVTZ
  Basis Set: (AUG-CC-PVTZ AUX)
    Blend: AUG-CC-PVTZ-JKFIT
	 Reference Energy          =    -273.2950584780361396 [Eh]
	 Singles Energy            =      -0.0000000000000000 [Eh]
	 Same-Spin Energy          =      -0.2970033653620887 [Eh]
	 Opposite-Spin Energy      =      -1.0782283053249042 [Eh]
	 Correlation Energy        =      -1.3752316706869929 [Eh]
	 Total Energy              =    -274.6702901487231543 [Eh]

	 ================> DF-SCS-MP2 Energies <==================
	-----------------------------------------------------------
	 SCS Same-Spin Scale       =       0.3333333333333333 [-]
	 SCS Opposite-Spin Scale   =       1.2000000000000000 [-]
	 SCS Same-Spin Energy      =      -0.0990011217873629 [Eh]
	 SCS Opposite-Spin Energy  =      -1.2938739663898851 [Eh]
	 SCS Correlation Energy    =      -1.3928750881772480 [Eh]
	 SCS Total Energy          =    -274.6879335662133599 [Eh]
	-----------------------------------------------------------

  Dipole Moment: [D]
     X:    -0.0063      Y:    -0.0641      Z:     0.0874     Total:     0.1086

*** Psi4 exiting successfully. Buy a developer a beer!
