                               Psi4 1.4a3.dev225

  ==> Input File <==

--------------------------------------------------------------------------
#psi4
#
memory 32 gb

molecule  {
0 1
  C       -0.2796410    -0.2534110     0.2699600
  C        0.8273080    -1.2201790    -0.1568800
  C        0.2651040     1.0998010    -0.2107530
  C        2.1130990    -0.4802110     0.2221390
  C        1.8015910     1.0121590    -0.0461820
  C       -1.7111611    -0.6175759    -0.2746281
  C       -2.7543930     0.3665140     0.1916780
  H       -0.3152930    -0.2454590     1.3709960
  H        0.7753790    -1.3637350    -1.2449700
  H        0.7413790    -2.2073630     0.3107570
  H       -0.1666070     1.9492740     0.3275400
  H        0.0028850     1.2252210    -1.2696860
  H        2.9896260    -0.8344780    -0.3294880
  H        2.3206340    -0.6367720     1.2866620
  H        2.1525340     1.6409000     0.7779560
  H        2.3101060     1.3673950    -0.9478660
  H       -1.9261760    -1.6212110     0.0690670
  H       -1.6246980    -0.6344010    -1.3548090
  H       -2.7974460     0.4229520     1.2842010
  H       -2.5674970     1.3742840    -0.1894550
  H       -3.7390610     0.0514200    -0.1666910
units angstrom
no_reorient  #important for SAPT in psi4, default
symmetry c1  #important for SAPT in psi4, default
}

set PROPERTIES_ORIGIN ["COM"]
properties('MP2/aug-cc-pvtz', properties = ['dipole'])
--------------------------------------------------------------------------

    Molecular point group: c1
  Charge       = 0
  Multiplicity = 1
  Basis Set: AUG-CC-PVTZ
    Blend: AUG-CC-PVTZ
  Basis Set: (AUG-CC-PVTZ AUX)
    Blend: AUG-CC-PVTZ-JKFIT

    Orbital Energies [Eh]
    ---------------------

    Doubly Occupied:

       1A    -11.216373     2A    -11.212539     3A    -11.211854
       4A    -11.211207     5A    -11.209803     6A    -11.209276
       7A    -11.208034     8A     -1.121949     9A     -1.034008
      10A     -0.955353    11A     -0.939298    12A     -0.832752
      13A     -0.770025    14A     -0.751287    15A     -0.651323
      16A     -0.627493    17A     -0.607524    18A     -0.568353
      19A     -0.556863    20A     -0.551717    21A     -0.517478
      22A     -0.488331    23A     -0.471890    24A     -0.463960
      25A     -0.452377    26A     -0.444619    27A     -0.439721
      28A     -0.431229

  @DF-RHF Final Energy:  -273.32350997564231

   => Energetics <=

    Nuclear Repulsion Energy =            322.1776320853422249
    One-Electron Energy =               -1006.6890143574174772
    Two-Electron Energy =                 411.1878722964329427
    Total Energy =                       -273.3235099756423097
  Basis Set: (AUG-CC-PVTZ AUX)
    Blend: AUG-CC-PVTZ-RI
    Molecular point group: c1

    Geometry (in Angstrom), charge = 0, multiplicity = 1:

       Center              X                  Y                   Z               Mass
    ------------   -----------------  -----------------  -----------------  -----------------
         C           -0.292730618654    -0.247061068009     0.271309228768    12.000000000000
         C            0.814218381346    -1.213829068009    -0.155530771232    12.000000000000
         C            0.252014381346     1.106150931991    -0.209403771232    12.000000000000
         C            2.100009381346    -0.473861068009     0.223488228768    12.000000000000
         C            1.788501381346     1.018508931991    -0.044832771232    12.000000000000
         C           -1.724250718654    -0.611225968009    -0.273278871232    12.000000000000
         C           -2.767482618654     0.372863931991     0.193027228768    12.000000000000
         H           -0.328382618654    -0.239109068009     1.372345228768     1.007825032230
         H            0.762289381346    -1.357385068009    -1.243620771232     1.007825032230
         H            0.728289381346    -2.201013068009     0.312106228768     1.007825032230
         H           -0.179696618654     1.955623931991     0.328889228768     1.007825032230
         H           -0.010204618654     1.231570931991    -1.268336771232     1.007825032230
         H            2.976536381346    -0.828128068009    -0.328138771232     1.007825032230
         H            2.307544381346    -0.630422068009     1.288011228768     1.007825032230
         H            2.139444381346     1.647249931991     0.779305228768     1.007825032230
         H            2.297016381346     1.373744931991    -0.946516771232     1.007825032230
         H           -1.939265618654    -1.614861068009     0.070416228768     1.007825032230
         H           -1.637787618654    -0.628051068009    -1.353459771232     1.007825032230
         H           -2.810535618654     0.429301931991     1.285550228768     1.007825032230
         H           -2.580586618654     1.380633931991    -0.188105771232     1.007825032230
         H           -3.752150618654     0.057769931991    -0.165341771232     1.007825032230

  Basis Set: AUG-CC-PVTZ
    Blend: AUG-CC-PVTZ
  Basis Set: (AUG-CC-PVTZ AUX)
    Blend: AUG-CC-PVTZ-JKFIT
	 Reference Energy          =    -273.3235099756423097 [Eh]
	 Singles Energy            =      -0.0000000000000000 [Eh]
	 Same-Spin Energy          =      -0.2970547128750274 [Eh]
	 Opposite-Spin Energy      =      -1.0772589373850678 [Eh]
	 Correlation Energy        =      -1.3743136502600952 [Eh]
	 Total Energy              =    -274.6978236259024015 [Eh]

	 ================> DF-SCS-MP2 Energies <==================
	-----------------------------------------------------------
	 SCS Same-Spin Scale       =       0.3333333333333333 [-]
	 SCS Opposite-Spin Scale   =       1.2000000000000000 [-]
	 SCS Same-Spin Energy      =      -0.0990182376250091 [Eh]
	 SCS Opposite-Spin Energy  =      -1.2927107248620813 [Eh]
	 SCS Correlation Energy    =      -1.3917289624870903 [Eh]
	 SCS Total Energy          =    -274.7152389381294029 [Eh]
	-----------------------------------------------------------

  Dipole Moment: [D]
     X:    -0.0291      Y:    -0.0500      Z:     0.0473     Total:     0.0747

*** Psi4 exiting successfully. Buy a developer a beer!
