                               Psi4 1.3.2 release

  ==> Input File <==

--------------------------------------------------------------------------
#psi4
#
memory 32 gb

molecule  {
0 1
  C       -0.2796410    -0.2534110     0.2699600
  C        0.8273080    -1.2201790    -0.1568800
  C        0.2651040     1.0998010    -0.2107530
  C        2.1130990    -0.4802110     0.2221390
  C        1.8015910     1.0121590    -0.0461820
  C       -1.6656960    -0.6060100    -0.2573320
  C       -2.7543930     0.3665140     0.1916780
  H       -0.3088205    -0.2469027     1.1711060
  H        0.7753790    -1.3637350    -1.2449700
  H        0.7413790    -2.2073630     0.3107570
  H       -0.1666070     1.9492740     0.3275400
  H        0.0028850     1.2252210    -1.2696860
  H        2.9896260    -0.8344780    -0.3294880
  H        2.3206340    -0.6367720     1.2866620
  H        2.1525340     1.6409000     0.7779560
  H        2.3101060     1.3673950    -0.9478660
  H       -1.9261760    -1.6212110     0.0690670
  H       -1.6246980    -0.6344010    -1.3548090
  H       -2.7974460     0.4229520     1.2842010
  H       -2.5674970     1.3742840    -0.1894550
  H       -3.7390610     0.0514200    -0.1666910
units angstrom
no_reorient  #important for SAPT in psi4, default
symmetry c1  #important for SAPT in psi4, default
}

set PROPERTIES_ORIGIN ["COM"]
properties('MP2/aug-cc-pvtz', properties = ['dipole'])
--------------------------------------------------------------------------

    Molecular point group: c1
  Charge       = 0
  Multiplicity = 1
  Basis Set: AUG-CC-PVTZ
    Blend: AUG-CC-PVTZ
  Basis Set: (AUG-CC-PVTZ AUX)
    Blend: AUG-CC-PVTZ-JKFIT

    Orbital Energies [Eh]
    ---------------------

    Doubly Occupied:

       1A    -11.211771     2A    -11.211697     3A    -11.211124
       4A    -11.208681     5A    -11.208447     6A    -11.207977
       7A    -11.188483     8A     -1.129972     9A     -1.034797
      10A     -0.955604    11A     -0.945753    12A     -0.832805
      13A     -0.786712    14A     -0.765142    15A     -0.653821
      16A     -0.629724    17A     -0.605439    18A     -0.569082
      19A     -0.566658    20A     -0.551608    21A     -0.512172
      22A     -0.484817    23A     -0.471749    24A     -0.465244
      25A     -0.460226    26A     -0.447805    27A     -0.442477
      28A     -0.433929

  @DF-RHF Final Energy:  -273.29366445663300

   => Energetics <=

    Nuclear Repulsion Energy =            323.9056755673150292
    One-Electron Energy =               -1010.0112502945622737
    Two-Electron Energy =                 412.8119102706142485
    Total Energy =                       -273.2936644566329960
  Basis Set: (AUG-CC-PVTZ AUX)
    Blend: AUG-CC-PVTZ-RI
    Molecular point group: c1

    Geometry (in Angstrom), charge = 0, multiplicity = 1:

       Center              X                  Y                   Z               Mass
    ------------   -----------------  -----------------  -----------------  -----------------
         C           -0.298358045800    -0.248460888948     0.271247063013    12.000000000000
         C            0.808590954200    -1.215228888948    -0.155592936987    12.000000000000
         C            0.246386954200     1.104751111052    -0.209465936987    12.000000000000
         C            2.094381954200    -0.475260888948     0.223426063013    12.000000000000
         C            1.782873954200     1.017109111052    -0.044894936987    12.000000000000
         C           -1.684413045800    -0.601059888948    -0.256044936987    12.000000000000
         C           -2.773110045800     0.371464111052     0.192965063013    12.000000000000
         H           -0.327537545800    -0.241952588948     1.172393063013     1.007825032230
         H            0.756661954200    -1.358784888948    -1.243682936987     1.007825032230
         H            0.722661954200    -2.202412888948     0.312044063013     1.007825032230
         H           -0.185324045800     1.954224111052     0.328827063013     1.007825032230
         H           -0.015832045800     1.230171111052    -1.268398936987     1.007825032230
         H            2.970908954200    -0.829527888948    -0.328200936987     1.007825032230
         H            2.301916954200    -0.631821888948     1.287949063013     1.007825032230
         H            2.133816954200     1.645850111052     0.779243063013     1.007825032230
         H            2.291388954200     1.372345111052    -0.946578936987     1.007825032230
         H           -1.944893045800    -1.616260888948     0.070354063013     1.007825032230
         H           -1.643415045800    -0.629450888948    -1.353521936987     1.007825032230
         H           -2.816163045800     0.427902111052     1.285488063013     1.007825032230
         H           -2.586214045800     1.379234111052    -0.188167936987     1.007825032230
         H           -3.757778045800     0.056370111052    -0.165403936987     1.007825032230

  Basis Set: AUG-CC-PVTZ
    Blend: AUG-CC-PVTZ
  Basis Set: (AUG-CC-PVTZ AUX)
    Blend: AUG-CC-PVTZ-JKFIT
	 Reference Energy          =    -273.2936644566329960 [Eh]
	 Singles Energy            =      -0.0000000000000000 [Eh]
	 Same-Spin Energy          =      -0.2970861987719659 [Eh]
	 Opposite-Spin Energy      =      -1.0765689074027773 [Eh]
	 Correlation Energy        =      -1.3736551061747433 [Eh]
	 Total Energy              =    -274.6673195628077337 [Eh]

	 ================> DF-SCS-MP2 Energies <==================
	-----------------------------------------------------------
	 SCS Same-Spin Scale       =       0.3333333333333333 [-]
	 SCS Opposite-Spin Scale   =       1.2000000000000000 [-]
	 SCS Same-Spin Energy      =      -0.0990287329239886 [Eh]
	 SCS Opposite-Spin Energy  =      -1.2918826888833328 [Eh]
	 SCS Correlation Energy    =      -1.3909114218073215 [Eh]
	 SCS Total Energy          =    -274.6845758784403415 [Eh]
	-----------------------------------------------------------

  Dipole Moment: [D]
     X:    -0.0132      Y:    -0.0457      Z:     0.1672     Total:     0.1739

*** Psi4 exiting successfully. Buy a developer a beer!
