                               Psi4 1.3.2 release

  ==> Input File <==

--------------------------------------------------------------------------
#psi4
#
memory 32 gb

molecule  {
0 1
  C       -0.2796410    -0.2534110     0.2699600
  C        0.8852451    -1.2778890    -0.2256903
  C        0.2651040     1.0998010    -0.2107530
  C        2.1130990    -0.4802110     0.2221390
  C        1.8015910     1.0121590    -0.0461820
  C       -1.6656960    -0.6060100    -0.2573320
  C       -2.7543930     0.3665140     0.1916780
  H       -0.3152930    -0.2454590     1.3709960
  H        0.7753790    -1.3637350    -1.2449700
  H        0.7413790    -2.2073630     0.3107570
  H       -0.1666070     1.9492740     0.3275400
  H        0.0028850     1.2252210    -1.2696860
  H        2.9896260    -0.8344780    -0.3294880
  H        2.3206340    -0.6367720     1.2866620
  H        2.1525340     1.6409000     0.7779560
  H        2.3101060     1.3673950    -0.9478660
  H       -1.9261760    -1.6212110     0.0690670
  H       -1.6246980    -0.6344010    -1.3548090
  H       -2.7974460     0.4229520     1.2842010
  H       -2.5674970     1.3742840    -0.1894550
  H       -3.7390610     0.0514200    -0.1666910
units angstrom
no_reorient  #important for SAPT in psi4, default
symmetry c1  #important for SAPT in psi4, default
}

set PROPERTIES_ORIGIN ["COM"]
properties('MP2/aug-cc-pvtz', properties = ['dipole'])
--------------------------------------------------------------------------

    Molecular point group: c1
  Charge       = 0
  Multiplicity = 1
  Basis Set: AUG-CC-PVTZ
    Blend: AUG-CC-PVTZ
  Basis Set: (AUG-CC-PVTZ AUX)
    Blend: AUG-CC-PVTZ-JKFIT

    Orbital Energies [Eh]
    ---------------------

    Doubly Occupied:

       1A    -11.218449     2A    -11.212685     3A    -11.212467
       4A    -11.211911     5A    -11.209705     6A    -11.208200
       7A    -11.207340     8A     -1.116025     9A     -1.033026
      10A     -0.957176    11A     -0.934459    12A     -0.834240
      13A     -0.776918    14A     -0.747585    15A     -0.649641
      16A     -0.626725    17A     -0.604634    18A     -0.577024
      19A     -0.556224    20A     -0.550644    21A     -0.512025
      22A     -0.490593    23A     -0.473808    24A     -0.465798
      25A     -0.463693    26A     -0.444962    27A     -0.439658
      28A     -0.411325

  @DF-RHF Final Energy:  -273.31570848312049

   => Energetics <=

    Nuclear Repulsion Energy =            321.4380584145910120
    One-Electron Energy =               -1005.2136561808321176
    Two-Electron Energy =                 410.4598892831206740
    Total Energy =                       -273.3157084831204884
  Basis Set: (AUG-CC-PVTZ AUX)
    Blend: AUG-CC-PVTZ-RI
    Molecular point group: c1

    Geometry (in Angstrom), charge = 0, multiplicity = 1:

       Center              X                  Y                   Z               Mass
    ------------   -----------------  -----------------  -----------------  -----------------
         C           -0.305377974536    -0.241417079249     0.277610046549    12.000000000000
         C            0.859508125464    -1.265895079249    -0.218040253451    12.000000000000
         C            0.239367025464     1.111794920751    -0.203102953451    12.000000000000
         C            2.087362025464    -0.468217079249     0.229789046549    12.000000000000
         C            1.775854025464     1.024152920751    -0.038531953451    12.000000000000
         C           -1.691432974536    -0.594016079249    -0.249681953451    12.000000000000
         C           -2.780129974536     0.378507920751     0.199328046549    12.000000000000
         H           -0.341029974536    -0.233465079249     1.378646046549     1.007825032230
         H            0.749642025464    -1.351741079249    -1.237319953451     1.007825032230
         H            0.715642025464    -2.195369079249     0.318407046549     1.007825032230
         H           -0.192343974536     1.961267920751     0.335190046549     1.007825032230
         H           -0.022851974536     1.237214920751    -1.262035953451     1.007825032230
         H            2.963889025464    -0.822484079249    -0.321837953451     1.007825032230
         H            2.294897025464    -0.624778079249     1.294312046549     1.007825032230
         H            2.126797025464     1.652893920751     0.785606046549     1.007825032230
         H            2.284369025464     1.379388920751    -0.940215953451     1.007825032230
         H           -1.951912974536    -1.609217079249     0.076717046549     1.007825032230
         H           -1.650434974536    -0.622407079249    -1.347158953451     1.007825032230
         H           -2.823182974536     0.434945920751     1.291851046549     1.007825032230
         H           -2.593233974536     1.386277920751    -0.181804953451     1.007825032230
         H           -3.764797974536     0.063413920751    -0.159040953451     1.007825032230

  Basis Set: AUG-CC-PVTZ
    Blend: AUG-CC-PVTZ
  Basis Set: (AUG-CC-PVTZ AUX)
    Blend: AUG-CC-PVTZ-JKFIT
	 Reference Energy          =    -273.3157084831204884 [Eh]
	 Singles Energy            =      -0.0000000000000000 [Eh]
	 Same-Spin Energy          =      -0.2970145436784423 [Eh]
	 Opposite-Spin Energy      =      -1.0776918106238820 [Eh]
	 Correlation Energy        =      -1.3747063543023241 [Eh]
	 Total Energy              =    -274.6904148374227930 [Eh]

	 ================> DF-SCS-MP2 Energies <==================
	-----------------------------------------------------------
	 SCS Same-Spin Scale       =       0.3333333333333333 [-]
	 SCS Opposite-Spin Scale   =       1.2000000000000000 [-]
	 SCS Same-Spin Energy      =      -0.0990048478928141 [Eh]
	 SCS Opposite-Spin Energy  =      -1.2932301727486584 [Eh]
	 SCS Correlation Energy    =      -1.3922350206414724 [Eh]
	 SCS Total Energy          =    -274.7079435037619533 [Eh]
	-----------------------------------------------------------

  Dipole Moment: [D]
     X:    -0.0210      Y:    -0.0431      Z:     0.0342     Total:     0.0589

*** Psi4 exiting successfully. Buy a developer a beer!
