                               Psi4 1.3.2 release

  ==> Input File <==

--------------------------------------------------------------------------
#psi4
#
memory 32 gb

molecule  {
0 1
  C       -0.2796410    -0.2534110     0.2699600
  C        0.7522277    -1.1269472    -0.0503096
  C        0.2651040     1.0998010    -0.2107530
  C        2.1130990    -0.4802110     0.2221390
  C        1.8015910     1.0121590    -0.0461820
  C       -1.6656960    -0.6060100    -0.2573320
  C       -2.7543930     0.3665140     0.1916780
  H       -0.3152930    -0.2454590     1.3709960
  H        0.7753790    -1.3637350    -1.2449700
  H        0.7413790    -2.2073630     0.3107570
  H       -0.1666070     1.9492740     0.3275400
  H        0.0028850     1.2252210    -1.2696860
  H        2.9896260    -0.8344780    -0.3294880
  H        2.3206340    -0.6367720     1.2866620
  H        2.1525340     1.6409000     0.7779560
  H        2.3101060     1.3673950    -0.9478660
  H       -1.9261760    -1.6212110     0.0690670
  H       -1.6246980    -0.6344010    -1.3548090
  H       -2.7974460     0.4229520     1.2842010
  H       -2.5674970     1.3742840    -0.1894550
  H       -3.7390610     0.0514200    -0.1666910
units angstrom
no_reorient  #important for SAPT in psi4, default
symmetry c1  #important for SAPT in psi4, default
}

set PROPERTIES_ORIGIN ["COM"]
properties('MP2/aug-cc-pvtz', properties = ['dipole'])
--------------------------------------------------------------------------

    Molecular point group: c1
  Charge       = 0
  Multiplicity = 1
  Basis Set: AUG-CC-PVTZ
    Blend: AUG-CC-PVTZ
  Basis Set: (AUG-CC-PVTZ AUX)
    Blend: AUG-CC-PVTZ-JKFIT

    Orbital Energies [Eh]
    ---------------------

    Doubly Occupied:

       1A    -11.218722     2A    -11.216244     3A    -11.213167
       4A    -11.212358     5A    -11.211813     6A    -11.210084
       7A    -11.208977     8A     -1.144016     9A     -1.036393
      10A     -0.961949    11A     -0.944909    12A     -0.834860
      13A     -0.771245    14A     -0.750291    15A     -0.657525
      16A     -0.636261    17A     -0.604968    18A     -0.572756
      19A     -0.558364    20A     -0.551044    21A     -0.515401
      22A     -0.483205    23A     -0.477046    24A     -0.471153
      25A     -0.453164    26A     -0.447734    27A     -0.439494
      28A     -0.416440

  @DF-RHF Final Energy:  -273.29683568385195

   => Energetics <=

    Nuclear Repulsion Energy =            324.8743164423548819
    One-Electron Energy =               -1011.9031395448390640
    Two-Electron Energy =                 413.7319874186322863
    Total Energy =                       -273.2968356838519526
  Basis Set: (AUG-CC-PVTZ AUX)
    Blend: AUG-CC-PVTZ-RI
    Molecular point group: c1

    Geometry (in Angstrom), charge = 0, multiplicity = 1:

       Center              X                  Y                   Z               Mass
    ------------   -----------------  -----------------  -----------------  -----------------
         C           -0.289108316866    -0.259879110638     0.256158838279    12.000000000000
         C            0.742760383134    -1.133415310638    -0.064110761721    12.000000000000
         C            0.255636683134     1.093332889362    -0.224554161721    12.000000000000
         C            2.103631683134    -0.486679110638     0.208337838279    12.000000000000
         C            1.792123683134     1.005690889362    -0.059983161721    12.000000000000
         C           -1.675163316866    -0.612478110638    -0.271133161721    12.000000000000
         C           -2.763860316866     0.360045889362     0.177876838279    12.000000000000
         H           -0.324760316866    -0.251927110638     1.357194838279     1.007825032230
         H            0.765911683134    -1.370203110638    -1.258771161721     1.007825032230
         H            0.731911683134    -2.213831110638     0.296955838279     1.007825032230
         H           -0.176074316866     1.942805889362     0.313738838279     1.007825032230
         H           -0.006582316866     1.218752889362    -1.283487161721     1.007825032230
         H            2.980158683134    -0.840946110638    -0.343289161721     1.007825032230
         H            2.311166683134    -0.643240110638     1.272860838279     1.007825032230
         H            2.143066683134     1.634431889362     0.764154838279     1.007825032230
         H            2.300638683134     1.360926889362    -0.961667161721     1.007825032230
         H           -1.935643316866    -1.627679110638     0.055265838279     1.007825032230
         H           -1.634165316866    -0.640869110638    -1.368610161721     1.007825032230
         H           -2.806913316866     0.416483889362     1.270399838279     1.007825032230
         H           -2.576964316866     1.367815889362    -0.203256161721     1.007825032230
         H           -3.748528316866     0.044951889362    -0.180492161721     1.007825032230

  Basis Set: AUG-CC-PVTZ
    Blend: AUG-CC-PVTZ
  Basis Set: (AUG-CC-PVTZ AUX)
    Blend: AUG-CC-PVTZ-JKFIT
	 Reference Energy          =    -273.2968356838519526 [Eh]
	 Singles Energy            =      -0.0000000000000000 [Eh]
	 Same-Spin Energy          =      -0.2989604921741006 [Eh]
	 Opposite-Spin Energy      =      -1.0797352145460586 [Eh]
	 Correlation Energy        =      -1.3786957067201593 [Eh]
	 Total Energy              =    -274.6755313905721323 [Eh]

	 ================> DF-SCS-MP2 Energies <==================
	-----------------------------------------------------------
	 SCS Same-Spin Scale       =       0.3333333333333333 [-]
	 SCS Opposite-Spin Scale   =       1.2000000000000000 [-]
	 SCS Same-Spin Energy      =      -0.0996534973913669 [Eh]
	 SCS Opposite-Spin Energy  =      -1.2956822574552702 [Eh]
	 SCS Correlation Energy    =      -1.3953357548466370 [Eh]
	 SCS Total Energy          =    -274.6921714386986082 [Eh]
	-----------------------------------------------------------

  Dipole Moment: [D]
     X:    -0.0253      Y:     0.0204      Z:     0.1276     Total:     0.1317

*** Psi4 exiting successfully. Buy a developer a beer!
