                               Psi4 1.4a3.dev225

  ==> Input File <==

--------------------------------------------------------------------------
#psi4
#
memory 32 gb

molecule  {
0 1
  C       -0.2796410    -0.2534110     0.2699600
  C        0.8273080    -1.2201790    -0.1568800
  C        0.2651040     1.0998010    -0.2107530
  C        2.1130990    -0.4802110     0.2221390
  C        1.8015910     1.0121590    -0.0461820
  C       -1.6202309    -0.5944441    -0.2400359
  C       -2.7543930     0.3665140     0.1916780
  H       -0.3152930    -0.2454590     1.3709960
  H        0.7753790    -1.3637350    -1.2449700
  H        0.7413790    -2.2073630     0.3107570
  H       -0.1666070     1.9492740     0.3275400
  H        0.0028850     1.2252210    -1.2696860
  H        2.9896260    -0.8344780    -0.3294880
  H        2.3206340    -0.6367720     1.2866620
  H        2.1525340     1.6409000     0.7779560
  H        2.3101060     1.3673950    -0.9478660
  H       -1.9261760    -1.6212110     0.0690670
  H       -1.6246980    -0.6344010    -1.3548090
  H       -2.7974460     0.4229520     1.2842010
  H       -2.5674970     1.3742840    -0.1894550
  H       -3.7390610     0.0514200    -0.1666910
units angstrom
no_reorient  #important for SAPT in psi4, default
symmetry c1  #important for SAPT in psi4, default
}

set PROPERTIES_ORIGIN ["COM"]
properties('MP2/aug-cc-pvtz', properties = ['dipole'])
--------------------------------------------------------------------------

    Molecular point group: c1
  Charge       = 0
  Multiplicity = 1
  Basis Set: AUG-CC-PVTZ
    Blend: AUG-CC-PVTZ
  Basis Set: (AUG-CC-PVTZ AUX)
    Blend: AUG-CC-PVTZ-JKFIT

    Orbital Energies [Eh]
    ---------------------

    Doubly Occupied:

       1A    -11.215437     2A    -11.213015     3A    -11.212349
       4A    -11.211686     5A    -11.210557     6A    -11.210050
       7A    -11.209705     8A     -1.128025     9A     -1.034570
      10A     -0.956767    11A     -0.939545    12A     -0.834985
      13A     -0.771869    14A     -0.751379    15A     -0.652939
      16A     -0.632982    17A     -0.602019    18A     -0.570045
      19A     -0.556077    20A     -0.552695    21A     -0.509890
      22A     -0.482390    23A     -0.472567    24A     -0.464624
      25A     -0.458893    26A     -0.450708    27A     -0.440401
      28A     -0.430336

  @DF-RHF Final Energy:  -273.32256681905966

   => Energetics <=

    Nuclear Repulsion Energy =            323.3841394731808805
    One-Electron Energy =               -1009.0604020096984641
    Two-Electron Energy =                 412.3536957174579243
    Total Energy =                       -273.3225668190596593
  Basis Set: (AUG-CC-PVTZ AUX)
    Blend: AUG-CC-PVTZ-RI
    Molecular point group: c1

    Geometry (in Angstrom), charge = 0, multiplicity = 1:

       Center              X                  Y                   Z               Mass
    ------------   -----------------  -----------------  -----------------  -----------------
         C           -0.303852496136    -0.249890370546     0.267078178905    12.000000000000
         C            0.803096503864    -1.216658370546    -0.159761821095    12.000000000000
         C            0.240892503864     1.103321629454    -0.213634821095    12.000000000000
         C            2.088887503864    -0.476690370546     0.219257178905    12.000000000000
         C            1.777379503864     1.015679629454    -0.049063821095    12.000000000000
         C           -1.644442396136    -0.590923470546    -0.242917721095    12.000000000000
         C           -2.778604496136     0.370034629454     0.188796178905    12.000000000000
         H           -0.339504496136    -0.241938370546     1.368114178905     1.007825032230
         H            0.751167503864    -1.360214370546    -1.247851821095     1.007825032230
         H            0.717167503864    -2.203842370546     0.307875178905     1.007825032230
         H           -0.190818496136     1.952794629454     0.324658178905     1.007825032230
         H           -0.021326496136     1.228741629454    -1.272567821095     1.007825032230
         H            2.965414503864    -0.830957370546    -0.332369821095     1.007825032230
         H            2.296422503864    -0.633251370546     1.283780178905     1.007825032230
         H            2.128322503864     1.644420629454     0.775074178905     1.007825032230
         H            2.285894503864     1.370915629454    -0.950747821095     1.007825032230
         H           -1.950387496136    -1.617690370546     0.066185178905     1.007825032230
         H           -1.648909496136    -0.630880370546    -1.357690821095     1.007825032230
         H           -2.821657496136     0.426472629454     1.281319178905     1.007825032230
         H           -2.591708496136     1.377804629454    -0.192336821095     1.007825032230
         H           -3.763272496136     0.054940629454    -0.169572821095     1.007825032230

  Basis Set: AUG-CC-PVTZ
    Blend: AUG-CC-PVTZ
  Basis Set: (AUG-CC-PVTZ AUX)
    Blend: AUG-CC-PVTZ-JKFIT
	 Reference Energy          =    -273.3225668190596593 [Eh]
	 Singles Energy            =      -0.0000000000000000 [Eh]
	 Same-Spin Energy          =      -0.2974786208799227 [Eh]
	 Opposite-Spin Energy      =      -1.0777138338092331 [Eh]
	 Correlation Energy        =      -1.3751924546891559 [Eh]
	 Total Energy              =    -274.6977592737488294 [Eh]

	 ================> DF-SCS-MP2 Energies <==================
	-----------------------------------------------------------
	 SCS Same-Spin Scale       =       0.3333333333333333 [-]
	 SCS Opposite-Spin Scale   =       1.2000000000000000 [-]
	 SCS Same-Spin Energy      =      -0.0991595402933076 [Eh]
	 SCS Opposite-Spin Energy  =      -1.2932566005710797 [Eh]
	 SCS Correlation Energy    =      -1.3924161408643874 [Eh]
	 SCS Total Energy          =    -274.7149829599240434 [Eh]
	-----------------------------------------------------------

  Dipole Moment: [D]
     X:     0.0152      Y:    -0.0392      Z:     0.0557     Total:     0.0698

*** Psi4 exiting successfully. Buy a developer a beer!
