                               Psi4 1.3.2 release

  ==> Input File <==

--------------------------------------------------------------------------
#psi4
#
memory 32 gb

molecule  {
0 1
  C       -0.2796410    -0.2534110     0.2699600
  C        0.8544317    -1.1787760    -0.1769715
  C        0.2651040     1.0998010    -0.2107530
  C        2.1130990    -0.4802110     0.2221390
  C        1.8015910     1.0121590    -0.0461820
  C       -1.6656960    -0.6060100    -0.2573320
  C       -2.7543930     0.3665140     0.1916780
  H       -0.3152930    -0.2454590     1.3709960
  H        0.7753790    -1.3637350    -1.2449700
  H        0.7413790    -2.2073630     0.3107570
  H       -0.1666070     1.9492740     0.3275400
  H        0.0028850     1.2252210    -1.2696860
  H        2.9896260    -0.8344780    -0.3294880
  H        2.3206340    -0.6367720     1.2866620
  H        2.1525340     1.6409000     0.7779560
  H        2.3101060     1.3673950    -0.9478660
  H       -1.9261760    -1.6212110     0.0690670
  H       -1.6246980    -0.6344010    -1.3548090
  H       -2.7974460     0.4229520     1.2842010
  H       -2.5674970     1.3742840    -0.1894550
  H       -3.7390610     0.0514200    -0.1666910
units angstrom
no_reorient  #important for SAPT in psi4, default
symmetry c1  #important for SAPT in psi4, default
}

set PROPERTIES_ORIGIN ["COM"]
properties('MP2/aug-cc-pvtz', properties = ['dipole'])
--------------------------------------------------------------------------

    Molecular point group: c1
  Charge       = 0
  Multiplicity = 1
  Basis Set: AUG-CC-PVTZ
    Blend: AUG-CC-PVTZ
  Basis Set: (AUG-CC-PVTZ AUX)
    Blend: AUG-CC-PVTZ-JKFIT

    Orbital Energies [Eh]
    ---------------------

    Doubly Occupied:

       1A    -11.214962     2A    -11.214206     3A    -11.211761
       4A    -11.211294     5A    -11.210049     6A    -11.209627
       7A    -11.209345     8A     -1.128576     9A     -1.035848
      10A     -0.956327    11A     -0.940602    12A     -0.833970
      13A     -0.769827    14A     -0.752280    15A     -0.648754
      16A     -0.633231    17A     -0.605524    18A     -0.570261
      19A     -0.557510    20A     -0.554174    21A     -0.512684
      22A     -0.485993    23A     -0.471419    24A     -0.460072
      25A     -0.452772    26A     -0.447705    27A     -0.445058
      28A     -0.432734

  @DF-RHF Final Energy:  -273.32196113561753

   => Energetics <=

    Nuclear Repulsion Energy =            323.2614947163943953
    One-Electron Energy =               -1008.8137895742610226
    Two-Electron Energy =                 412.2303337222490995
    Total Energy =                       -273.3219611356175278
  Basis Set: (AUG-CC-PVTZ AUX)
    Blend: AUG-CC-PVTZ-RI
    Molecular point group: c1

    Geometry (in Angstrom), charge = 0, multiplicity = 1:

       Center              X                  Y                   Z               Mass
    ------------   -----------------  -----------------  -----------------  -----------------
         C           -0.301609118208    -0.253539813423     0.271651140436    12.000000000000
         C            0.832463581792    -1.178904813423    -0.175280359564    12.000000000000
         C            0.243135881792     1.099672186577    -0.209061859564    12.000000000000
         C            2.091130881792    -0.480339813423     0.223830140436    12.000000000000
         C            1.779622881792     1.012030186577    -0.044490859564    12.000000000000
         C           -1.687664118208    -0.606138813423    -0.255640859564    12.000000000000
         C           -2.776361118208     0.366385186577     0.193369140436    12.000000000000
         H           -0.337261118208    -0.245587813423     1.372687140436     1.007825032230
         H            0.753410881792    -1.363863813423    -1.243278859564     1.007825032230
         H            0.719410881792    -2.207491813423     0.312448140436     1.007825032230
         H           -0.188575118208     1.949145186577     0.329231140436     1.007825032230
         H           -0.019083118208     1.225092186577    -1.267994859564     1.007825032230
         H            2.967657881792    -0.834606813423    -0.327796859564     1.007825032230
         H            2.298665881792    -0.636900813423     1.288353140436     1.007825032230
         H            2.130565881792     1.640771186577     0.779647140436     1.007825032230
         H            2.288137881792     1.367266186577    -0.946174859564     1.007825032230
         H           -1.948144118208    -1.621339813423     0.070758140436     1.007825032230
         H           -1.646666118208    -0.634529813423    -1.353117859564     1.007825032230
         H           -2.819414118208     0.422823186577     1.285892140436     1.007825032230
         H           -2.589465118208     1.374155186577    -0.187763859564     1.007825032230
         H           -3.761029118208     0.051291186577    -0.164999859564     1.007825032230

  Basis Set: AUG-CC-PVTZ
    Blend: AUG-CC-PVTZ
  Basis Set: (AUG-CC-PVTZ AUX)
    Blend: AUG-CC-PVTZ-JKFIT
	 Reference Energy          =    -273.3219611356175278 [Eh]
	 Singles Energy            =      -0.0000000000000000 [Eh]
	 Same-Spin Energy          =      -0.2975001241674085 [Eh]
	 Opposite-Spin Energy      =      -1.0776017404179272 [Eh]
	 Correlation Energy        =      -1.3751018645853357 [Eh]
	 Total Energy              =    -274.6970630002028884 [Eh]

	 ================> DF-SCS-MP2 Energies <==================
	-----------------------------------------------------------
	 SCS Same-Spin Scale       =       0.3333333333333333 [-]
	 SCS Opposite-Spin Scale   =       1.2000000000000000 [-]
	 SCS Same-Spin Energy      =      -0.0991667080558028 [Eh]
	 SCS Opposite-Spin Energy  =      -1.2931220885015127 [Eh]
	 SCS Correlation Energy    =      -1.3922887965573154 [Eh]
	 SCS Total Energy          =    -274.7142499321748232 [Eh]
	-----------------------------------------------------------

  Dipole Moment: [D]
     X:    -0.0120      Y:    -0.0244      Z:     0.0296     Total:     0.0402

*** Psi4 exiting successfully. Buy a developer a beer!
