                               Psi4 1.3.2 release

  ==> Input File <==

--------------------------------------------------------------------------
#psi4
#
memory 32 gb

molecule  {
0 1
  C       -0.2796410    -0.2534110     0.2699600
  C        0.8160504    -1.1968216    -0.1633486
  C        0.2651040     1.0998010    -0.2107530
  C        2.1130990    -0.4802110     0.2221390
  C        1.8015910     1.0121590    -0.0461820
  C       -1.6656960    -0.6060100    -0.2573320
  C       -2.7543930     0.3665140     0.1916780
  H       -0.3152930    -0.2454590     1.3709960
  H        0.7753790    -1.3637350    -1.2449700
  H        0.7413790    -2.2073630     0.3107570
  H       -0.1666070     1.9492740     0.3275400
  H        0.0028850     1.2252210    -1.2696860
  H        2.9896260    -0.8344780    -0.3294880
  H        2.3206340    -0.6367720     1.2866620
  H        2.1525340     1.6409000     0.7779560
  H        2.3101060     1.3673950    -0.9478660
  H       -1.9261760    -1.6212110     0.0690670
  H       -1.6246980    -0.6344010    -1.3548090
  H       -2.7974460     0.4229520     1.2842010
  H       -2.5674970     1.3742840    -0.1894550
  H       -3.7390610     0.0514200    -0.1666910
units angstrom
no_reorient  #important for SAPT in psi4, default
symmetry c1  #important for SAPT in psi4, default
}

set PROPERTIES_ORIGIN ["COM"]
properties('MP2/aug-cc-pvtz', properties = ['dipole'])
--------------------------------------------------------------------------

    Molecular point group: c1
  Charge       = 0
  Multiplicity = 1
  Basis Set: AUG-CC-PVTZ
    Blend: AUG-CC-PVTZ
  Basis Set: (AUG-CC-PVTZ AUX)
    Blend: AUG-CC-PVTZ-JKFIT

    Orbital Energies [Eh]
    ---------------------

    Doubly Occupied:

       1A    -11.214257     2A    -11.213634     3A    -11.211900
       4A    -11.211370     5A    -11.210322     6A    -11.210062
       7A    -11.208913     8A     -1.127371     9A     -1.034222
      10A     -0.955481    11A     -0.940698    12A     -0.833668
      13A     -0.770404    14A     -0.752344    15A     -0.650925
      16A     -0.631250    17A     -0.604635    18A     -0.569785
      19A     -0.557168    20A     -0.552579    21A     -0.513078
      22A     -0.484978    23A     -0.469321    24A     -0.461371
      25A     -0.453266    26A     -0.446102    27A     -0.445360
      28A     -0.436620

  @DF-RHF Final Energy:  -273.32446634603082

   => Energetics <=

    Nuclear Repulsion Energy =            323.1505611108015614
    One-Electron Energy =               -1008.6078800006027905
    Two-Electron Energy =                 412.1328525437703547
    Total Energy =                       -273.3244663460308175
  Basis Set: (AUG-CC-PVTZ AUX)
    Blend: AUG-CC-PVTZ-RI
    Molecular point group: c1

    Geometry (in Angstrom), charge = 0, multiplicity = 1:

       Center              X                  Y                   Z               Mass
    ------------   -----------------  -----------------  -----------------  -----------------
         C           -0.296914614994    -0.251332615459     0.269984892866    12.000000000000
         C            0.798776785006    -1.194743215459    -0.163323707134    12.000000000000
         C            0.247830385006     1.101879384541    -0.210728107134    12.000000000000
         C            2.095825385006    -0.478132615459     0.222163892866    12.000000000000
         C            1.784317385006     1.014237384541    -0.046157107134    12.000000000000
         C           -1.682969614994    -0.603931615459    -0.257307107134    12.000000000000
         C           -2.771666614994     0.368592384541     0.191702892866    12.000000000000
         H           -0.332566614994    -0.243380615459     1.371020892866     1.007825032230
         H            0.758105385006    -1.361656615459    -1.244945107134     1.007825032230
         H            0.724105385006    -2.205284615459     0.310781892866     1.007825032230
         H           -0.183880614994     1.951352384541     0.327564892866     1.007825032230
         H           -0.014388614994     1.227299384541    -1.269661107134     1.007825032230
         H            2.972352385006    -0.832399615459    -0.329463107134     1.007825032230
         H            2.303360385006    -0.634693615459     1.286686892866     1.007825032230
         H            2.135260385006     1.642978384541     0.777980892866     1.007825032230
         H            2.292832385006     1.369473384541    -0.947841107134     1.007825032230
         H           -1.943449614994    -1.619132615459     0.069091892866     1.007825032230
         H           -1.641971614994    -0.632322615459    -1.354784107134     1.007825032230
         H           -2.814719614994     0.425030384541     1.284225892866     1.007825032230
         H           -2.584770614994     1.376362384541    -0.189430107134     1.007825032230
         H           -3.756334614994     0.053498384541    -0.166666107134     1.007825032230

  Basis Set: AUG-CC-PVTZ
    Blend: AUG-CC-PVTZ
  Basis Set: (AUG-CC-PVTZ AUX)
    Blend: AUG-CC-PVTZ-JKFIT
	 Reference Energy          =    -273.3244663460308175 [Eh]
	 Singles Energy            =      -0.0000000000000000 [Eh]
	 Same-Spin Energy          =      -0.2973236357972116 [Eh]
	 Opposite-Spin Energy      =      -1.0774346469698941 [Eh]
	 Correlation Energy        =      -1.3747582827671057 [Eh]
	 Total Energy              =    -274.6992246287979356 [Eh]

	 ================> DF-SCS-MP2 Energies <==================
	-----------------------------------------------------------
	 SCS Same-Spin Scale       =       0.3333333333333333 [-]
	 SCS Opposite-Spin Scale   =       1.2000000000000000 [-]
	 SCS Same-Spin Energy      =      -0.0991078785990705 [Eh]
	 SCS Opposite-Spin Energy  =      -1.2929215763638728 [Eh]
	 SCS Correlation Energy    =      -1.3920294549629433 [Eh]
	 SCS Total Energy          =    -274.7164958009937550 [Eh]
	-----------------------------------------------------------

  Dipole Moment: [D]
     X:    -0.0088      Y:    -0.0386      Z:     0.0403     Total:     0.0565

*** Psi4 exiting successfully. Buy a developer a beer!
