                               Psi4 1.3.2 release

  ==> Input File <==

--------------------------------------------------------------------------
#psi4
#
memory 32 gb

molecule  {
0 1
  C       -0.2979066    -0.2708754     0.2613108
  C        0.8273080    -1.2201790    -0.1568800
  C        0.2651040     1.0998010    -0.2107530
  C        2.1130990    -0.4802110     0.2221390
  C        1.8015910     1.0121590    -0.0461820
  C       -1.6656960    -0.6060100    -0.2573320
  C       -2.7543930     0.3665140     0.1916780
  H       -0.3152930    -0.2454590     1.3709960
  H        0.7753790    -1.3637350    -1.2449700
  H        0.7413790    -2.2073630     0.3107570
  H       -0.1666070     1.9492740     0.3275400
  H        0.0028850     1.2252210    -1.2696860
  H        2.9896260    -0.8344780    -0.3294880
  H        2.3206340    -0.6367720     1.2866620
  H        2.1525340     1.6409000     0.7779560
  H        2.3101060     1.3673950    -0.9478660
  H       -1.9261760    -1.6212110     0.0690670
  H       -1.6246980    -0.6344010    -1.3548090
  H       -2.7974460     0.4229520     1.2842010
  H       -2.5674970     1.3742840    -0.1894550
  H       -3.7390610     0.0514200    -0.1666910
units angstrom
no_reorient  #important for SAPT in psi4, default
symmetry c1  #important for SAPT in psi4, default
}

set PROPERTIES_ORIGIN ["COM"]
properties('MP2/aug-cc-pvtz', properties = ['dipole'])
--------------------------------------------------------------------------

    Molecular point group: c1
  Charge       = 0
  Multiplicity = 1
  Basis Set: AUG-CC-PVTZ
    Blend: AUG-CC-PVTZ
  Basis Set: (AUG-CC-PVTZ AUX)
    Blend: AUG-CC-PVTZ-JKFIT

    Orbital Energies [Eh]
    ---------------------

    Doubly Occupied:

       1A    -11.215571     2A    -11.213035     3A    -11.212320
       4A    -11.211770     5A    -11.210701     6A    -11.209926
       7A    -11.209256     8A     -1.123693     9A     -1.036409
      10A     -0.955582    11A     -0.938832    12A     -0.835963
      13A     -0.770417    14A     -0.750171    15A     -0.651233
      16A     -0.630535    17A     -0.605447    18A     -0.568906
      19A     -0.556489    20A     -0.552904    21A     -0.513645
      22A     -0.485581    23A     -0.471210    24A     -0.464066
      25A     -0.452854    26A     -0.450187    27A     -0.441558
      28A     -0.431185

  @DF-RHF Final Energy:  -273.32464168229285

   => Energetics <=

    Nuclear Repulsion Energy =            322.7127527594147409
    One-Electron Energy =               -1007.7358985972254004
    Two-Electron Energy =                 411.6985041555178668
    Total Energy =                       -273.3246416822928495
  Basis Set: (AUG-CC-PVTZ AUX)
    Blend: AUG-CC-PVTZ-RI
    Molecular point group: c1

    Geometry (in Angstrom), charge = 0, multiplicity = 1:

       Center              X                  Y                   Z               Mass
    ------------   -----------------  -----------------  -----------------  -----------------
         C           -0.314323050736    -0.263804009194     0.261602406961    12.000000000000
         C            0.810891549264    -1.213107609194    -0.156588393039    12.000000000000
         C            0.248687549264     1.106872390806    -0.210461393039    12.000000000000
         C            2.096682549264    -0.473139609194     0.222430606961    12.000000000000
         C            1.785174549264     1.019230390806    -0.045890393039    12.000000000000
         C           -1.682112450736    -0.598938609194    -0.257040393039    12.000000000000
         C           -2.770809450736     0.373585390806     0.191969606961    12.000000000000
         H           -0.331709450736    -0.238387609194     1.371287606961     1.007825032230
         H            0.758962549264    -1.356663609194    -1.244678393039     1.007825032230
         H            0.724962549264    -2.200291609194     0.311048606961     1.007825032230
         H           -0.183023450736     1.956345390806     0.327831606961     1.007825032230
         H           -0.013531450736     1.232292390806    -1.269394393039     1.007825032230
         H            2.973209549264    -0.827406609194    -0.329196393039     1.007825032230
         H            2.304217549264    -0.629700609194     1.286953606961     1.007825032230
         H            2.136117549264     1.647971390806     0.778247606961     1.007825032230
         H            2.293689549264     1.374466390806    -0.947574393039     1.007825032230
         H           -1.942592450736    -1.614139609194     0.069358606961     1.007825032230
         H           -1.641114450736    -0.627329609194    -1.354517393039     1.007825032230
         H           -2.813862450736     0.430023390806     1.284492606961     1.007825032230
         H           -2.583913450736     1.381355390806    -0.189163393039     1.007825032230
         H           -3.755477450736     0.058491390806    -0.166399393039     1.007825032230

  Basis Set: AUG-CC-PVTZ
    Blend: AUG-CC-PVTZ
  Basis Set: (AUG-CC-PVTZ AUX)
    Blend: AUG-CC-PVTZ-JKFIT
	 Reference Energy          =    -273.3246416822928495 [Eh]
	 Singles Energy            =      -0.0000000000000000 [Eh]
	 Same-Spin Energy          =      -0.2972258625662655 [Eh]
	 Opposite-Spin Energy      =      -1.0774247025655317 [Eh]
	 Correlation Energy        =      -1.3746505651317973 [Eh]
	 Total Energy              =    -274.6992922474246370 [Eh]

	 ================> DF-SCS-MP2 Energies <==================
	-----------------------------------------------------------
	 SCS Same-Spin Scale       =       0.3333333333333333 [-]
	 SCS Opposite-Spin Scale   =       1.2000000000000000 [-]
	 SCS Same-Spin Energy      =      -0.0990752875220885 [Eh]
	 SCS Opposite-Spin Energy  =      -1.2929096430786380 [Eh]
	 SCS Correlation Energy    =      -1.3919849306007266 [Eh]
	 SCS Total Energy          =    -274.7166266128935490 [Eh]
	-----------------------------------------------------------

  Dipole Moment: [D]
     X:    -0.0165      Y:    -0.0489      Z:     0.0451     Total:     0.0685

*** Psi4 exiting successfully. Buy a developer a beer!
