                               Psi4 1.3.2 release

  ==> Input File <==

--------------------------------------------------------------------------
#psi4
#
memory 32 gb

molecule  {
0 1
  C       -0.2796410    -0.2534110     0.2699600
  C        0.8410405    -1.1996216    -0.1669923
  C        0.2651040     1.0998010    -0.2107530
  C        2.1130990    -0.4802110     0.2221390
  C        1.8015910     1.0121590    -0.0461820
  C       -1.6656960    -0.6060100    -0.2573320
  C       -2.7543930     0.3665140     0.1916780
  H       -0.3152930    -0.2454590     1.3709960
  H        0.7753790    -1.3637350    -1.2449700
  H        0.7413790    -2.2073630     0.3107570
  H       -0.1666070     1.9492740     0.3275400
  H        0.0028850     1.2252210    -1.2696860
  H        2.9896260    -0.8344780    -0.3294880
  H        2.3206340    -0.6367720     1.2866620
  H        2.1525340     1.6409000     0.7779560
  H        2.3101060     1.3673950    -0.9478660
  H       -1.9261760    -1.6212110     0.0690670
  H       -1.6246980    -0.6344010    -1.3548090
  H       -2.7974460     0.4229520     1.2842010
  H       -2.5674970     1.3742840    -0.1894550
  H       -3.7390610     0.0514200    -0.1666910
units angstrom
no_reorient  #important for SAPT in psi4, default
symmetry c1  #important for SAPT in psi4, default
}

set PROPERTIES_ORIGIN ["COM"]
properties('MP2/aug-cc-pvtz', properties = ['dipole'])
--------------------------------------------------------------------------

    Molecular point group: c1
  Charge       = 0
  Multiplicity = 1
  Basis Set: AUG-CC-PVTZ
    Blend: AUG-CC-PVTZ
  Basis Set: (AUG-CC-PVTZ AUX)
    Blend: AUG-CC-PVTZ-JKFIT

    Orbital Energies [Eh]
    ---------------------

    Doubly Occupied:

       1A    -11.214893     2A    -11.213894     3A    -11.211873
       4A    -11.210938     5A    -11.210164     6A    -11.209853
       7A    -11.209046     8A     -1.126527     9A     -1.034828
      10A     -0.956059    11A     -0.940100    12A     -0.833771
      13A     -0.770290    14A     -0.751830    15A     -0.650311
      16A     -0.631597    17A     -0.604971    18A     -0.569658
      19A     -0.556907    20A     -0.553158    21A     -0.512821
      22A     -0.485426    23A     -0.470883    24A     -0.461795
      25A     -0.453625    26A     -0.446561    27A     -0.444381
      28A     -0.434386

  @DF-RHF Final Energy:  -273.32446479941609

   => Energetics <=

    Nuclear Repulsion Energy =            323.0129190202036966
    One-Electron Energy =               -1008.3336794775140106
    Two-Electron Energy =                 411.9962956578942794
    Total Energy =                       -273.3244647994160914
  Basis Set: (AUG-CC-PVTZ AUX)
    Blend: AUG-CC-PVTZ-RI
    Molecular point group: c1

    Geometry (in Angstrom), charge = 0, multiplicity = 1:

       Center              X                  Y                   Z               Mass
    ------------   -----------------  -----------------  -----------------  -----------------
         C           -0.299971210387    -0.250990141155     0.270430562016    12.000000000000
         C            0.820710289613    -1.197200741155    -0.166521737984    12.000000000000
         C            0.244773789613     1.102221858845    -0.210282437984    12.000000000000
         C            2.092768789613    -0.477790141155     0.222609562016    12.000000000000
         C            1.781260789613     1.014579858845    -0.045711437984    12.000000000000
         C           -1.686026210387    -0.603589141155    -0.256861437984    12.000000000000
         C           -2.774723210387     0.368934858845     0.192148562016    12.000000000000
         H           -0.335623210387    -0.243038141155     1.371466562016     1.007825032230
         H            0.755048789613    -1.361314141155    -1.244499437984     1.007825032230
         H            0.721048789613    -2.204942141155     0.311227562016     1.007825032230
         H           -0.186937210387     1.951694858845     0.328010562016     1.007825032230
         H           -0.017445210387     1.227641858845    -1.269215437984     1.007825032230
         H            2.969295789613    -0.832057141155    -0.329017437984     1.007825032230
         H            2.300303789613    -0.634351141155     1.287132562016     1.007825032230
         H            2.132203789613     1.643320858845     0.778426562016     1.007825032230
         H            2.289775789613     1.369815858845    -0.947395437984     1.007825032230
         H           -1.946506210387    -1.618790141155     0.069537562016     1.007825032230
         H           -1.645028210387    -0.631980141155    -1.354338437984     1.007825032230
         H           -2.817776210387     0.425372858845     1.284671562016     1.007825032230
         H           -2.587827210387     1.376704858845    -0.188984437984     1.007825032230
         H           -3.759391210387     0.053840858845    -0.166220437984     1.007825032230

  Basis Set: AUG-CC-PVTZ
    Blend: AUG-CC-PVTZ
  Basis Set: (AUG-CC-PVTZ AUX)
    Blend: AUG-CC-PVTZ-JKFIT
	 Reference Energy          =    -273.3244647994160914 [Eh]
	 Singles Energy            =      -0.0000000000000000 [Eh]
	 Same-Spin Energy          =      -0.2973064969698650 [Eh]
	 Opposite-Spin Energy      =      -1.0774026524490266 [Eh]
	 Correlation Energy        =      -1.3747091494188917 [Eh]
	 Total Energy              =    -274.6991739488349822 [Eh]

	 ================> DF-SCS-MP2 Energies <==================
	-----------------------------------------------------------
	 SCS Same-Spin Scale       =       0.3333333333333333 [-]
	 SCS Opposite-Spin Scale   =       1.2000000000000000 [-]
	 SCS Same-Spin Energy      =      -0.0991021656566217 [Eh]
	 SCS Opposite-Spin Energy  =      -1.2928831829388319 [Eh]
	 SCS Correlation Energy    =      -1.3919853485954534 [Eh]
	 SCS Total Energy          =    -274.7164501480115177 [Eh]
	-----------------------------------------------------------

  Dipole Moment: [D]
     X:    -0.0112      Y:    -0.0374      Z:     0.0400     Total:     0.0559

*** Psi4 exiting successfully. Buy a developer a beer!
