                               Psi4 1.3.2 release

  ==> Input File <==

--------------------------------------------------------------------------
#psi4
#
memory 32 gb

molecule  {
0 1
  C       -0.2796410    -0.2534110     0.2699600
  C        0.8160005    -1.2091225    -0.2079042
  C        0.2651040     1.0998010    -0.2107530
  C        2.1130990    -0.4802110     0.2221390
  C        1.8015910     1.0121590    -0.0461820
  C       -1.6656960    -0.6060100    -0.2573320
  C       -2.7543930     0.3665140     0.1916780
  H       -0.3152930    -0.2454590     1.3709960
  H        0.7753790    -1.3637350    -1.2449700
  H        0.7413790    -2.2073630     0.3107570
  H       -0.1666070     1.9492740     0.3275400
  H        0.0028850     1.2252210    -1.2696860
  H        2.9896260    -0.8344780    -0.3294880
  H        2.3206340    -0.6367720     1.2866620
  H        2.1525340     1.6409000     0.7779560
  H        2.3101060     1.3673950    -0.9478660
  H       -1.9261760    -1.6212110     0.0690670
  H       -1.6246980    -0.6344010    -1.3548090
  H       -2.7974460     0.4229520     1.2842010
  H       -2.5674970     1.3742840    -0.1894550
  H       -3.7390610     0.0514200    -0.1666910
units angstrom
no_reorient  #important for SAPT in psi4, default
symmetry c1  #important for SAPT in psi4, default
}

set PROPERTIES_ORIGIN ["COM"]
properties('MP2/aug-cc-pvtz', properties = ['dipole'])
--------------------------------------------------------------------------

    Molecular point group: c1
  Charge       = 0
  Multiplicity = 1
  Basis Set: AUG-CC-PVTZ
    Blend: AUG-CC-PVTZ
  Basis Set: (AUG-CC-PVTZ AUX)
    Blend: AUG-CC-PVTZ-JKFIT

    Orbital Energies [Eh]
    ---------------------

    Doubly Occupied:

       1A    -11.215035     2A    -11.213252     3A    -11.212360
       4A    -11.211284     5A    -11.209787     6A    -11.209006
       7A    -11.208521     8A     -1.124309     9A     -1.033316
      10A     -0.954558    11A     -0.939174    12A     -0.833767
      13A     -0.773842    14A     -0.751402    15A     -0.648479
      16A     -0.630116    17A     -0.604447    18A     -0.573109
      19A     -0.557744    20A     -0.551907    21A     -0.512748
      22A     -0.487086    23A     -0.466895    24A     -0.461781
      25A     -0.458286    26A     -0.445931    27A     -0.442628
      28A     -0.431797

  @DF-RHF Final Energy:  -273.32225620436435

   => Energetics <=

    Nuclear Repulsion Energy =            322.7847807109538962
    One-Electron Energy =               -1007.8889409837880748
    Two-Electron Energy =                 411.7819040684698280
    Total Energy =                       -273.3222562043643507
  Basis Set: (AUG-CC-PVTZ AUX)
    Blend: AUG-CC-PVTZ-RI
    Molecular point group: c1

    Geometry (in Angstrom), charge = 0, multiplicity = 1:

       Center              X                  Y                   Z               Mass
    ------------   -----------------  -----------------  -----------------  -----------------
         C           -0.296908511612    -0.249828064686     0.275434588615    12.000000000000
         C            0.798732988388    -1.205539564686    -0.202429611385    12.000000000000
         C            0.247836488388     1.103383935314    -0.205278411385    12.000000000000
         C            2.095831488388    -0.476628064686     0.227613588615    12.000000000000
         C            1.784323488388     1.015741935314    -0.040707411385    12.000000000000
         C           -1.682963511612    -0.602427064686    -0.251857411385    12.000000000000
         C           -2.771660511612     0.370096935314     0.197152588615    12.000000000000
         H           -0.332560511612    -0.241876064686     1.376470588615     1.007825032230
         H            0.758111488388    -1.360152064686    -1.239495411385     1.007825032230
         H            0.724111488388    -2.203780064686     0.316231588615     1.007825032230
         H           -0.183874511612     1.952856935314     0.333014588615     1.007825032230
         H           -0.014382511612     1.228803935314    -1.264211411385     1.007825032230
         H            2.972358488388    -0.830895064686    -0.324013411385     1.007825032230
         H            2.303366488388    -0.633189064686     1.292136588615     1.007825032230
         H            2.135266488388     1.644482935314     0.783430588615     1.007825032230
         H            2.292838488388     1.370977935314    -0.942391411385     1.007825032230
         H           -1.943443511612    -1.617628064686     0.074541588615     1.007825032230
         H           -1.641965511612    -0.630818064686    -1.349334411385     1.007825032230
         H           -2.814713511612     0.426534935314     1.289675588615     1.007825032230
         H           -2.584764511612     1.377866935314    -0.183980411385     1.007825032230
         H           -3.756328511612     0.055002935314    -0.161216411385     1.007825032230

  Basis Set: AUG-CC-PVTZ
    Blend: AUG-CC-PVTZ
  Basis Set: (AUG-CC-PVTZ AUX)
    Blend: AUG-CC-PVTZ-JKFIT
	 Reference Energy          =    -273.3222562043643507 [Eh]
	 Singles Energy            =      -0.0000000000000000 [Eh]
	 Same-Spin Energy          =      -0.2971563201267405 [Eh]
	 Opposite-Spin Energy      =      -1.0774083799516148 [Eh]
	 Correlation Energy        =      -1.3745647000783552 [Eh]
	 Total Energy              =    -274.6968209044426885 [Eh]

	 ================> DF-SCS-MP2 Energies <==================
	-----------------------------------------------------------
	 SCS Same-Spin Scale       =       0.3333333333333333 [-]
	 SCS Opposite-Spin Scale   =       1.2000000000000000 [-]
	 SCS Same-Spin Energy      =      -0.0990521067089135 [Eh]
	 SCS Opposite-Spin Energy  =      -1.2928900559419376 [Eh]
	 SCS Correlation Energy    =      -1.3919421626508512 [Eh]
	 SCS Total Energy          =    -274.7141983670152285 [Eh]
	-----------------------------------------------------------

  Dipole Moment: [D]
     X:    -0.0063      Y:    -0.0404      Z:     0.0194     Total:     0.0452

*** Psi4 exiting successfully. Buy a developer a beer!
