                               Psi4 1.3.2 release

  ==> Input File <==

--------------------------------------------------------------------------
#psi4
#
memory 32 gb

molecule  {
0 1
  C       -0.3480299    -0.1286413     0.3421566
  C        0.8273080    -1.2201790    -0.1568800
  C        0.2651040     1.0998010    -0.2107530
  C        2.1130990    -0.4802110     0.2221390
  C        1.8015910     1.0121590    -0.0461820
  C       -1.6656960    -0.6060100    -0.2573320
  C       -2.7543930     0.3665140     0.1916780
  H       -0.3152930    -0.2454590     1.3709960
  H        0.7753790    -1.3637350    -1.2449700
  H        0.7413790    -2.2073630     0.3107570
  H       -0.1666070     1.9492740     0.3275400
  H        0.0028850     1.2252210    -1.2696860
  H        2.9896260    -0.8344780    -0.3294880
  H        2.3206340    -0.6367720     1.2866620
  H        2.1525340     1.6409000     0.7779560
  H        2.3101060     1.3673950    -0.9478660
  H       -1.9261760    -1.6212110     0.0690670
  H       -1.6246980    -0.6344010    -1.3548090
  H       -2.7974460     0.4229520     1.2842010
  H       -2.5674970     1.3742840    -0.1894550
  H       -3.7390610     0.0514200    -0.1666910
units angstrom
no_reorient  #important for SAPT in psi4, default
symmetry c1  #important for SAPT in psi4, default
}

set PROPERTIES_ORIGIN ["COM"]
properties('MP2/aug-cc-pvtz', properties = ['dipole'])
--------------------------------------------------------------------------

    Molecular point group: c1
  Charge       = 0
  Multiplicity = 1
  Basis Set: AUG-CC-PVTZ
    Blend: AUG-CC-PVTZ
  Basis Set: (AUG-CC-PVTZ AUX)
    Blend: AUG-CC-PVTZ-JKFIT

    Orbital Energies [Eh]
    ---------------------

    Doubly Occupied:

       1A    -11.215267     2A    -11.214646     3A    -11.212856
       4A    -11.211612     5A    -11.210126     6A    -11.209606
       7A    -11.206248     8A     -1.119543     9A     -1.035679
      10A     -0.955336    11A     -0.933868    12A     -0.831574
      13A     -0.774329    14A     -0.756789    15A     -0.646978
      16A     -0.630578    17A     -0.606694    18A     -0.568002
      19A     -0.562972    20A     -0.547762    21A     -0.512757
      22A     -0.490234    23A     -0.475244    24A     -0.467576
      25A     -0.461448    26A     -0.452174    27A     -0.446362
      28A     -0.391491

  @DF-RHF Final Energy:  -273.30438944738086

   => Energetics <=

    Nuclear Repulsion Energy =            322.2180858727166992
    One-Electron Energy =               -1006.7494441488307757
    Two-Electron Energy =                 411.2269688287332770
    Total Energy =                       -273.3043894473808564
  Basis Set: (AUG-CC-PVTZ AUX)
    Blend: AUG-CC-PVTZ-RI
    Molecular point group: c1

    Geometry (in Angstrom), charge = 0, multiplicity = 1:

       Center              X                  Y                   Z               Mass
    ------------   -----------------  -----------------  -----------------  -----------------
         C           -0.358315657065    -0.138966882192     0.332559775147    12.000000000000
         C            0.817022242935    -1.230504582192    -0.166476824853    12.000000000000
         C            0.254818242935     1.089475417808    -0.220349824853    12.000000000000
         C            2.102813242935    -0.490536582192     0.212542175147    12.000000000000
         C            1.791305242935     1.001833417808    -0.055778824853    12.000000000000
         C           -1.675981757065    -0.616335582192    -0.266928824853    12.000000000000
         C           -2.764678757065     0.356188417808     0.182081175147    12.000000000000
         H           -0.325578757065    -0.255784582192     1.361399175147     1.007825032230
         H            0.765093242935    -1.374060582192    -1.254566824853     1.007825032230
         H            0.731093242935    -2.217688582192     0.301160175147     1.007825032230
         H           -0.176892757065     1.938948417808     0.317943175147     1.007825032230
         H           -0.007400757065     1.214895417808    -1.279282824853     1.007825032230
         H            2.979340242935    -0.844803582192    -0.339084824853     1.007825032230
         H            2.310348242935    -0.647097582192     1.277065175147     1.007825032230
         H            2.142248242935     1.630574417808     0.768359175147     1.007825032230
         H            2.299820242935     1.357069417808    -0.957462824853     1.007825032230
         H           -1.936461757065    -1.631536582192     0.059470175147     1.007825032230
         H           -1.634983757065    -0.644726582192    -1.364405824853     1.007825032230
         H           -2.807731757065     0.412626417808     1.274604175147     1.007825032230
         H           -2.577782757065     1.363958417808    -0.199051824853     1.007825032230
         H           -3.749346757065     0.041094417808    -0.176287824853     1.007825032230

  Basis Set: AUG-CC-PVTZ
    Blend: AUG-CC-PVTZ
  Basis Set: (AUG-CC-PVTZ AUX)
    Blend: AUG-CC-PVTZ-JKFIT
	 Reference Energy          =    -273.3043894473808564 [Eh]
	 Singles Energy            =      -0.0000000000000000 [Eh]
	 Same-Spin Energy          =      -0.2977567552963339 [Eh]
	 Opposite-Spin Energy      =      -1.0789548903790869 [Eh]
	 Correlation Energy        =      -1.3767116456754207 [Eh]
	 Total Energy              =    -274.6811010930562702 [Eh]

	 ================> DF-SCS-MP2 Energies <==================
	-----------------------------------------------------------
	 SCS Same-Spin Scale       =       0.3333333333333333 [-]
	 SCS Opposite-Spin Scale   =       1.2000000000000000 [-]
	 SCS Same-Spin Energy      =      -0.0992522517654446 [Eh]
	 SCS Opposite-Spin Energy  =      -1.2947458684549042 [Eh]
	 SCS Correlation Energy    =      -1.3939981202203489 [Eh]
	 SCS Total Energy          =    -274.6983875676012303 [Eh]
	-----------------------------------------------------------

  Dipole Moment: [D]
     X:    -0.0172      Y:    -0.0340      Z:     0.0573     Total:     0.0688

*** Psi4 exiting successfully. Buy a developer a beer!
