                               Psi4 1.3.2 release

  ==> Input File <==

--------------------------------------------------------------------------
#psi4
#
memory 32 gb

molecule  {
0 1
  C       -0.2451153    -0.2641593     0.3704750
  C        0.8273080    -1.2201790    -0.1568800
  C        0.2651040     1.0998010    -0.2107530
  C        2.1130990    -0.4802110     0.2221390
  C        1.8015910     1.0121590    -0.0461820
  C       -1.6656960    -0.6060100    -0.2573320
  C       -2.7543930     0.3665140     0.1916780
  H       -0.3152930    -0.2454590     1.3709960
  H        0.7753790    -1.3637350    -1.2449700
  H        0.7413790    -2.2073630     0.3107570
  H       -0.1666070     1.9492740     0.3275400
  H        0.0028850     1.2252210    -1.2696860
  H        2.9896260    -0.8344780    -0.3294880
  H        2.3206340    -0.6367720     1.2866620
  H        2.1525340     1.6409000     0.7779560
  H        2.3101060     1.3673950    -0.9478660
  H       -1.9261760    -1.6212110     0.0690670
  H       -1.6246980    -0.6344010    -1.3548090
  H       -2.7974460     0.4229520     1.2842010
  H       -2.5674970     1.3742840    -0.1894550
  H       -3.7390610     0.0514200    -0.1666910
units angstrom
no_reorient  #important for SAPT in psi4, default
symmetry c1  #important for SAPT in psi4, default
}

set PROPERTIES_ORIGIN ["COM"]
properties('MP2/aug-cc-pvtz', properties = ['dipole'])
--------------------------------------------------------------------------

    Molecular point group: c1
  Charge       = 0
  Multiplicity = 1
  Basis Set: AUG-CC-PVTZ
    Blend: AUG-CC-PVTZ
  Basis Set: (AUG-CC-PVTZ AUX)
    Blend: AUG-CC-PVTZ-JKFIT

    Orbital Energies [Eh]
    ---------------------

    Doubly Occupied:

       1A    -11.214899     2A    -11.211630     3A    -11.211001
       4A    -11.210662     5A    -11.210045     6A    -11.209622
       7A    -11.207407     8A     -1.121231     9A     -1.027346
      10A     -0.954974    11A     -0.937446    12A     -0.826542
      13A     -0.776478    14A     -0.761207    15A     -0.649578
      16A     -0.626805    17A     -0.601451    18A     -0.571294
      19A     -0.563284    20A     -0.548623    21A     -0.507512
      22A     -0.484734    23A     -0.474734    24A     -0.471223
      25A     -0.462394    26A     -0.448630    27A     -0.429217
      28A     -0.421526

  @DF-RHF Final Energy:  -273.31282748156985

   => Energetics <=

    Nuclear Repulsion Energy =            322.1420970697130883
    One-Electron Energy =               -1006.6268602554122253
    Two-Electron Energy =                 411.1719357041293392
    Total Energy =                       -273.3128274815698546
  Basis Set: (AUG-CC-PVTZ AUX)
    Blend: AUG-CC-PVTZ-RI
    Molecular point group: c1

    Geometry (in Angstrom), charge = 0, multiplicity = 1:

       Center              X                  Y                   Z               Mass
    ------------   -----------------  -----------------  -----------------  -----------------
         C           -0.267988773493    -0.257909370506     0.357414487887    12.000000000000
         C            0.804434526507    -1.213929070506    -0.169940512113    12.000000000000
         C            0.242230526507     1.106050929494    -0.223813512113    12.000000000000
         C            2.090225526507    -0.473961070506     0.209078487887    12.000000000000
         C            1.778717526507     1.018408929494    -0.059242512113    12.000000000000
         C           -1.688569473493    -0.599760070506    -0.270392512113    12.000000000000
         C           -2.777266473493     0.372763929494     0.178617487887    12.000000000000
         H           -0.338166473493    -0.239209070506     1.357935487887     1.007825032230
         H            0.752505526507    -1.357485070506    -1.258030512113     1.007825032230
         H            0.718505526507    -2.201113070506     0.297696487887     1.007825032230
         H           -0.189480473493     1.955523929494     0.314479487887     1.007825032230
         H           -0.019988473493     1.231470929494    -1.282746512113     1.007825032230
         H            2.966752526507    -0.828228070506    -0.342548512113     1.007825032230
         H            2.297760526507    -0.630522070506     1.273601487887     1.007825032230
         H            2.129660526507     1.647149929494     0.764895487887     1.007825032230
         H            2.287232526507     1.373644929494    -0.960926512113     1.007825032230
         H           -1.949049473493    -1.614961070506     0.056006487887     1.007825032230
         H           -1.647571473493    -0.628151070506    -1.367869512113     1.007825032230
         H           -2.820319473493     0.429201929494     1.271140487887     1.007825032230
         H           -2.590370473493     1.380533929494    -0.202515512113     1.007825032230
         H           -3.761934473493     0.057669929494    -0.179751512113     1.007825032230

  Basis Set: AUG-CC-PVTZ
    Blend: AUG-CC-PVTZ
  Basis Set: (AUG-CC-PVTZ AUX)
    Blend: AUG-CC-PVTZ-JKFIT
	 Reference Energy          =    -273.3128274815698546 [Eh]
	 Singles Energy            =      -0.0000000000000000 [Eh]
	 Same-Spin Energy          =      -0.2968959405581454 [Eh]
	 Opposite-Spin Energy      =      -1.0774914657106360 [Eh]
	 Correlation Energy        =      -1.3743874062687815 [Eh]
	 Total Energy              =    -274.6872148878386497 [Eh]

	 ================> DF-SCS-MP2 Energies <==================
	-----------------------------------------------------------
	 SCS Same-Spin Scale       =       0.3333333333333333 [-]
	 SCS Opposite-Spin Scale   =       1.2000000000000000 [-]
	 SCS Same-Spin Energy      =      -0.0989653135193818 [Eh]
	 SCS Opposite-Spin Energy  =      -1.2929897588527632 [Eh]
	 SCS Correlation Energy    =      -1.3919550723721450 [Eh]
	 SCS Total Energy          =    -274.7047825539419819 [Eh]
	-----------------------------------------------------------

  Dipole Moment: [D]
     X:    -0.0085      Y:    -0.0581      Z:     0.0832     Total:     0.1018

*** Psi4 exiting successfully. Buy a developer a beer!
