                               Psi4 1.3.2 release

  ==> Input File <==

--------------------------------------------------------------------------
#psi4
#
memory 32 gb

molecule  {
0 1
  C       -0.2796410    -0.2534110     0.2699600
  C        0.8273080    -1.2201790    -0.1568800
  C        0.2651040     1.0998010    -0.2107530
  C        2.1130990    -0.4802110     0.2221390
  C        1.8015910     1.0121590    -0.0461820
  C       -1.6656960    -0.6060100    -0.2573320
  C       -2.7543930     0.3665140     0.1916780
  H       -0.3185293    -0.2447372     1.4709410
  H        0.7753790    -1.3637350    -1.2449700
  H        0.7413790    -2.2073630     0.3107570
  H       -0.1666070     1.9492740     0.3275400
  H        0.0028850     1.2252210    -1.2696860
  H        2.9896260    -0.8344780    -0.3294880
  H        2.3206340    -0.6367720     1.2866620
  H        2.1525340     1.6409000     0.7779560
  H        2.3101060     1.3673950    -0.9478660
  H       -1.9261760    -1.6212110     0.0690670
  H       -1.6246980    -0.6344010    -1.3548090
  H       -2.7974460     0.4229520     1.2842010
  H       -2.5674970     1.3742840    -0.1894550
  H       -3.7390610     0.0514200    -0.1666910
units angstrom
no_reorient  #important for SAPT in psi4, default
symmetry c1  #important for SAPT in psi4, default
}

set PROPERTIES_ORIGIN ["COM"]
properties('MP2/aug-cc-pvtz', properties = ['dipole'])
--------------------------------------------------------------------------

    Molecular point group: c1
  Charge       = 0
  Multiplicity = 1
  Basis Set: AUG-CC-PVTZ
    Blend: AUG-CC-PVTZ
  Basis Set: (AUG-CC-PVTZ AUX)
    Blend: AUG-CC-PVTZ-JKFIT

    Orbital Energies [Eh]
    ---------------------

    Doubly Occupied:

       1A    -11.227392     2A    -11.215006     3A    -11.212472
       4A    -11.211778     5A    -11.211391     6A    -11.210861
       7A    -11.208865     8A     -1.123721     9A     -1.034002
      10A     -0.956737    11A     -0.938077    12A     -0.834339
      13A     -0.770514    14A     -0.742022    15A     -0.651157
      16A     -0.630640    17A     -0.604302    18A     -0.569670
      19A     -0.553057    20A     -0.550918    21A     -0.513718
      22A     -0.485497    23A     -0.472781    24A     -0.464580
      25A     -0.450732    26A     -0.446264    27A     -0.437640
      28A     -0.435294

  @DF-RHF Final Energy:  -273.31923341162769

   => Energetics <=

    Nuclear Repulsion Energy =            322.2870879992808000
    One-Electron Energy =               -1006.8857889395364964
    Two-Electron Energy =                 411.2794675286279471
    Total Energy =                       -273.3192334116276925
  Basis Set: (AUG-CC-PVTZ AUX)
    Blend: AUG-CC-PVTZ-RI
    Molecular point group: c1

    Geometry (in Angstrom), charge = 0, multiplicity = 1:

       Center              X                  Y                   Z               Mass
    ------------   -----------------  -----------------  -----------------  -----------------
         C           -0.298258312679    -0.248483133929     0.268167024248    12.000000000000
         C            0.808690687321    -1.215251133929    -0.158672975752    12.000000000000
         C            0.246486687321     1.104728866071    -0.212545975752    12.000000000000
         C            2.094481687321    -0.475283133929     0.220346024248    12.000000000000
         C            1.782973687321     1.017086866071    -0.047974975752    12.000000000000
         C           -1.684313312679    -0.601082133929    -0.259124975752    12.000000000000
         C           -2.773010312679     0.371441866071     0.189885024248    12.000000000000
         H           -0.337146612679    -0.239809333929     1.469148024248     1.007825032230
         H            0.756761687321    -1.358807133929    -1.246762975752     1.007825032230
         H            0.722761687321    -2.202435133929     0.308964024248     1.007825032230
         H           -0.185224312679     1.954201866071     0.325747024248     1.007825032230
         H           -0.015732312679     1.230148866071    -1.271478975752     1.007825032230
         H            2.971008687321    -0.829550133929    -0.331280975752     1.007825032230
         H            2.302016687321    -0.631844133929     1.284869024248     1.007825032230
         H            2.133916687321     1.645827866071     0.776163024248     1.007825032230
         H            2.291488687321     1.372322866071    -0.949658975752     1.007825032230
         H           -1.944793312679    -1.616283133929     0.067274024248     1.007825032230
         H           -1.643315312679    -0.629473133929    -1.356601975752     1.007825032230
         H           -2.816063312679     0.427879866071     1.282408024248     1.007825032230
         H           -2.586114312679     1.379211866071    -0.191247975752     1.007825032230
         H           -3.757678312679     0.056347866071    -0.168483975752     1.007825032230

  Basis Set: AUG-CC-PVTZ
    Blend: AUG-CC-PVTZ
  Basis Set: (AUG-CC-PVTZ AUX)
    Blend: AUG-CC-PVTZ-JKFIT
	 Reference Energy          =    -273.3192334116276925 [Eh]
	 Singles Energy            =      -0.0000000000000000 [Eh]
	 Same-Spin Energy          =      -0.2972249595709378 [Eh]
	 Opposite-Spin Energy      =      -1.0780578065339712 [Eh]
	 Correlation Energy        =      -1.3752827661049090 [Eh]
	 Total Energy              =    -274.6945161777326234 [Eh]

	 ================> DF-SCS-MP2 Energies <==================
	-----------------------------------------------------------
	 SCS Same-Spin Scale       =       0.3333333333333333 [-]
	 SCS Opposite-Spin Scale   =       1.2000000000000000 [-]
	 SCS Same-Spin Energy      =      -0.0990749865236459 [Eh]
	 SCS Opposite-Spin Energy  =      -1.2936693678407654 [Eh]
	 SCS Correlation Energy    =      -1.3927443543644114 [Eh]
	 SCS Total Energy          =    -274.7119777659921169 [Eh]
	-----------------------------------------------------------

  Dipole Moment: [D]
     X:    -0.0054      Y:    -0.0461      Z:    -0.0417     Total:     0.0624

*** Psi4 exiting successfully. Buy a developer a beer!
