                               Psi4 1.3.2 release

  ==> Input File <==

--------------------------------------------------------------------------
#psi4
#
memory 32 gb

molecule  {
0 1
  C       -0.2264380    -0.3820438     0.1919862
  C        0.8273080    -1.2201790    -0.1568800
  C        0.2651040     1.0998010    -0.2107530
  C        2.1130990    -0.4802110     0.2221390
  C        1.8015910     1.0121590    -0.0461820
  C       -1.6656960    -0.6060100    -0.2573320
  C       -2.7543930     0.3665140     0.1916780
  H       -0.3152930    -0.2454590     1.3709960
  H        0.7753790    -1.3637350    -1.2449700
  H        0.7413790    -2.2073630     0.3107570
  H       -0.1666070     1.9492740     0.3275400
  H        0.0028850     1.2252210    -1.2696860
  H        2.9896260    -0.8344780    -0.3294880
  H        2.3206340    -0.6367720     1.2866620
  H        2.1525340     1.6409000     0.7779560
  H        2.3101060     1.3673950    -0.9478660
  H       -1.9261760    -1.6212110     0.0690670
  H       -1.6246980    -0.6344010    -1.3548090
  H       -2.7974460     0.4229520     1.2842010
  H       -2.5674970     1.3742840    -0.1894550
  H       -3.7390610     0.0514200    -0.1666910
units angstrom
no_reorient  #important for SAPT in psi4, default
symmetry c1  #important for SAPT in psi4, default
}

set PROPERTIES_ORIGIN ["COM"]
properties('MP2/aug-cc-pvtz', properties = ['dipole'])
--------------------------------------------------------------------------

    Molecular point group: c1
  Charge       = 0
  Multiplicity = 1
  Basis Set: AUG-CC-PVTZ
    Blend: AUG-CC-PVTZ
  Basis Set: (AUG-CC-PVTZ AUX)
    Blend: AUG-CC-PVTZ-JKFIT

    Orbital Energies [Eh]
    ---------------------

    Doubly Occupied:

       1A    -11.221189     2A    -11.215783     3A    -11.214340
       4A    -11.212574     5A    -11.212417     6A    -11.211318
       7A    -11.205927     8A     -1.135382     9A     -1.033874
      10A     -0.970650    11A     -0.936051    12A     -0.838602
      13A     -0.773799    14A     -0.741617    15A     -0.657530
      16A     -0.630803    17A     -0.604711    18A     -0.573425
      19A     -0.563023    20A     -0.548017    21A     -0.514841
      22A     -0.489472    23A     -0.484713    24A     -0.465925
      25A     -0.465067    26A     -0.450411    27A     -0.428338
      28A     -0.405434

  @DF-RHF Final Energy:  -273.29792528388498

   => Energetics <=

    Nuclear Repulsion Energy =            323.2231533012543423
    One-Electron Energy =               -1008.6316957595365693
    Two-Electron Energy =                 412.1106171743972482
    Total Energy =                       -273.2979252838849789
  Basis Set: (AUG-CC-PVTZ AUX)
    Blend: AUG-CC-PVTZ-RI
    Molecular point group: c1

    Geometry (in Angstrom), charge = 0, multiplicity = 1:

       Center              X                  Y                   Z               Mass
    ------------   -----------------  -----------------  -----------------  -----------------
         C           -0.251595936106    -0.361375151905     0.200757054865    12.000000000000
         C            0.802150063894    -1.199510351905    -0.148109145135    12.000000000000
         C            0.239946063894     1.120469648095    -0.201982145135    12.000000000000
         C            2.087941063894    -0.459542351905     0.230909854865    12.000000000000
         C            1.776433063894     1.032827648095    -0.037411145135    12.000000000000
         C           -1.690853936106    -0.585341351905    -0.248561145135    12.000000000000
         C           -2.779550936106     0.387182648095     0.200448854865    12.000000000000
         H           -0.340450936106    -0.224790351905     1.379766854865     1.007825032230
         H            0.750221063894    -1.343066351905    -1.236199145135     1.007825032230
         H            0.716221063894    -2.186694351905     0.319527854865     1.007825032230
         H           -0.191764936106     1.969942648095     0.336310854865     1.007825032230
         H           -0.022272936106     1.245889648095    -1.260915145135     1.007825032230
         H            2.964468063894    -0.813809351905    -0.320717145135     1.007825032230
         H            2.295476063894    -0.616103351905     1.295432854865     1.007825032230
         H            2.127376063894     1.661568648095     0.786726854865     1.007825032230
         H            2.284948063894     1.388063648095    -0.939095145135     1.007825032230
         H           -1.951333936106    -1.600542351905     0.077837854865     1.007825032230
         H           -1.649855936106    -0.613732351905    -1.346038145135     1.007825032230
         H           -2.822603936106     0.443620648095     1.292971854865     1.007825032230
         H           -2.592654936106     1.394952648095    -0.180684145135     1.007825032230
         H           -3.764218936106     0.072088648095    -0.157920145135     1.007825032230

  Basis Set: AUG-CC-PVTZ
    Blend: AUG-CC-PVTZ
  Basis Set: (AUG-CC-PVTZ AUX)
    Blend: AUG-CC-PVTZ-JKFIT
	 Reference Energy          =    -273.2979252838849789 [Eh]
	 Singles Energy            =      -0.0000000000000000 [Eh]
	 Same-Spin Energy          =      -0.2986853228549108 [Eh]
	 Opposite-Spin Energy      =      -1.0796894608652274 [Eh]
	 Correlation Energy        =      -1.3783747837201381 [Eh]
	 Total Energy              =    -274.6763000676050979 [Eh]

	 ================> DF-SCS-MP2 Energies <==================
	-----------------------------------------------------------
	 SCS Same-Spin Scale       =       0.3333333333333333 [-]
	 SCS Opposite-Spin Scale   =       1.2000000000000000 [-]
	 SCS Same-Spin Energy      =      -0.0995617742849703 [Eh]
	 SCS Opposite-Spin Energy  =      -1.2956273530382729 [Eh]
	 SCS Correlation Energy    =      -1.3951891273232433 [Eh]
	 SCS Total Energy          =    -274.6931144112082279 [Eh]
	-----------------------------------------------------------

  Dipole Moment: [D]
     X:    -0.0097      Y:    -0.0605      Z:     0.0046     Total:     0.0615

*** Psi4 exiting successfully. Buy a developer a beer!
