                               Psi4 1.3.2 release

  ==> Input File <==

--------------------------------------------------------------------------
#psi4
#
memory 32 gb

molecule  {
0 1
  C       -0.3506253    -0.3249820     0.2346098
  C        0.8273080    -1.2201790    -0.1568800
  C        0.2651040     1.0998010    -0.2107530
  C        2.1130990    -0.4802110     0.2221390
  C        1.8015910     1.0121590    -0.0461820
  C       -1.6656960    -0.6060100    -0.2573320
  C       -2.7543930     0.3665140     0.1916780
  H       -0.3152930    -0.2454590     1.3709960
  H        0.7753790    -1.3637350    -1.2449700
  H        0.7413790    -2.2073630     0.3107570
  H       -0.1666070     1.9492740     0.3275400
  H        0.0028850     1.2252210    -1.2696860
  H        2.9896260    -0.8344780    -0.3294880
  H        2.3206340    -0.6367720     1.2866620
  H        2.1525340     1.6409000     0.7779560
  H        2.3101060     1.3673950    -0.9478660
  H       -1.9261760    -1.6212110     0.0690670
  H       -1.6246980    -0.6344010    -1.3548090
  H       -2.7974460     0.4229520     1.2842010
  H       -2.5674970     1.3742840    -0.1894550
  H       -3.7390610     0.0514200    -0.1666910
units angstrom
no_reorient  #important for SAPT in psi4, default
symmetry c1  #important for SAPT in psi4, default
}

set PROPERTIES_ORIGIN ["COM"]
properties('MP2/aug-cc-pvtz', properties = ['dipole'])
--------------------------------------------------------------------------

    Molecular point group: c1
  Charge       = 0
  Multiplicity = 1
  Basis Set: AUG-CC-PVTZ
    Blend: AUG-CC-PVTZ
  Basis Set: (AUG-CC-PVTZ AUX)
    Blend: AUG-CC-PVTZ-JKFIT

    Orbital Energies [Eh]
    ---------------------

    Doubly Occupied:

       1A    -11.218490     2A    -11.213483     3A    -11.212660
       4A    -11.212088     5A    -11.211325     6A    -11.211283
       7A    -11.210692     8A     -1.122562     9A     -1.044426
      10A     -0.955539    11A     -0.936318    12A     -0.843443
      13A     -0.769193    14A     -0.745876    15A     -0.649902
      16A     -0.631802    17A     -0.608415    18A     -0.569765
      19A     -0.558247    20A     -0.553045    21A     -0.515833
      22A     -0.487860    23A     -0.473924    24A     -0.467238
      25A     -0.463482    26A     -0.449154    27A     -0.436362
      28A     -0.411838

  @DF-RHF Final Energy:  -273.31303814638113

   => Energetics <=

    Nuclear Repulsion Energy =            322.5734878122106579
    One-Electron Energy =               -1007.4045614042481702
    Two-Electron Energy =                 411.5180354456563236
    Total Energy =                       -273.3130381463811318
  Basis Set: (AUG-CC-PVTZ AUX)
    Blend: AUG-CC-PVTZ-RI
    Molecular point group: c1

    Geometry (in Angstrom), charge = 0, multiplicity = 1:

       Center              X                  Y                   Z               Mass
    ------------   -----------------  -----------------  -----------------  -----------------
         C           -0.360593607848    -0.311292709133     0.238167266386    12.000000000000
         C            0.817339692152    -1.206489709133    -0.153322533614    12.000000000000
         C            0.255135692152     1.113490290867    -0.207195533614    12.000000000000
         C            2.103130692152    -0.466521709133     0.225696466386    12.000000000000
         C            1.791622692152     1.025848290867    -0.042624533614    12.000000000000
         C           -1.675664307848    -0.592320709133    -0.253774533614    12.000000000000
         C           -2.764361307848     0.380203290867     0.195235466386    12.000000000000
         H           -0.325261307848    -0.231769709133     1.374553466386     1.007825032230
         H            0.765410692152    -1.350045709133    -1.241412533614     1.007825032230
         H            0.731410692152    -2.193673709133     0.314314466386     1.007825032230
         H           -0.176575307848     1.962963290867     0.331097466386     1.007825032230
         H           -0.007083307848     1.238910290867    -1.266128533614     1.007825032230
         H            2.979657692152    -0.820788709133    -0.325930533614     1.007825032230
         H            2.310665692152    -0.623082709133     1.290219466386     1.007825032230
         H            2.142565692152     1.654589290867     0.781513466386     1.007825032230
         H            2.300137692152     1.381084290867    -0.944308533614     1.007825032230
         H           -1.936144307848    -1.607521709133     0.072624466386     1.007825032230
         H           -1.634666307848    -0.620711709133    -1.351251533614     1.007825032230
         H           -2.807414307848     0.436641290867     1.287758466386     1.007825032230
         H           -2.577465307848     1.387973290867    -0.185897533614     1.007825032230
         H           -3.749029307848     0.065109290867    -0.163133533614     1.007825032230

  Basis Set: AUG-CC-PVTZ
    Blend: AUG-CC-PVTZ
  Basis Set: (AUG-CC-PVTZ AUX)
    Blend: AUG-CC-PVTZ-JKFIT
	 Reference Energy          =    -273.3130381463811318 [Eh]
	 Singles Energy            =      -0.0000000000000000 [Eh]
	 Same-Spin Energy          =      -0.2978566479050978 [Eh]
	 Opposite-Spin Energy      =      -1.0785265835745022 [Eh]
	 Correlation Energy        =      -1.3763832314796001 [Eh]
	 Total Energy              =    -274.6894213778607536 [Eh]

	 ================> DF-SCS-MP2 Energies <==================
	-----------------------------------------------------------
	 SCS Same-Spin Scale       =       0.3333333333333333 [-]
	 SCS Opposite-Spin Scale   =       1.2000000000000000 [-]
	 SCS Same-Spin Energy      =      -0.0992855493016993 [Eh]
	 SCS Opposite-Spin Energy  =      -1.2942319002894025 [Eh]
	 SCS Correlation Energy    =      -1.3935174495911018 [Eh]
	 SCS Total Energy          =    -274.7065555959722474 [Eh]
	-----------------------------------------------------------

  Dipole Moment: [D]
     X:    -0.0381      Y:    -0.0569      Z:     0.0268     Total:     0.0735

*** Psi4 exiting successfully. Buy a developer a beer!
