                               Psi4 1.3.2 release

  ==> Input File <==

--------------------------------------------------------------------------
#psi4
#
memory 32 gb

molecule  {
0 1
  C       -0.2796410    -0.2534110     0.2699600
  C        0.8389573    -1.2433110    -0.1502959
  C        0.2651040     1.0998010    -0.2107530
  C        2.1130990    -0.4802110     0.2221390
  C        1.8015910     1.0121590    -0.0461820
  C       -1.6656960    -0.6060100    -0.2573320
  C       -2.7543930     0.3665140     0.1916780
  H       -0.3152930    -0.2454590     1.3709960
  H        0.7753790    -1.3637350    -1.2449700
  H        0.7413790    -2.2073630     0.3107570
  H       -0.1666070     1.9492740     0.3275400
  H        0.0028850     1.2252210    -1.2696860
  H        2.9896260    -0.8344780    -0.3294880
  H        2.3206340    -0.6367720     1.2866620
  H        2.1525340     1.6409000     0.7779560
  H        2.3101060     1.3673950    -0.9478660
  H       -1.9261760    -1.6212110     0.0690670
  H       -1.6246980    -0.6344010    -1.3548090
  H       -2.7974460     0.4229520     1.2842010
  H       -2.5674970     1.3742840    -0.1894550
  H       -3.7390610     0.0514200    -0.1666910
units angstrom
no_reorient  #important for SAPT in psi4, default
symmetry c1  #important for SAPT in psi4, default
}

set PROPERTIES_ORIGIN ["COM"]
properties('MP2/aug-cc-pvtz', properties = ['dipole'])
--------------------------------------------------------------------------

    Molecular point group: c1
  Charge       = 0
  Multiplicity = 1
  Basis Set: AUG-CC-PVTZ
    Blend: AUG-CC-PVTZ
  Basis Set: (AUG-CC-PVTZ AUX)
    Blend: AUG-CC-PVTZ-JKFIT

    Orbital Energies [Eh]
    ---------------------

    Doubly Occupied:

       1A    -11.215809     2A    -11.213395     3A    -11.212379
       4A    -11.211547     5A    -11.210270     6A    -11.209107
       7A    -11.208622     8A     -1.122164     9A     -1.033580
      10A     -0.956724    11A     -0.938324    12A     -0.833653
      13A     -0.771594    14A     -0.750590    15A     -0.653274
      16A     -0.629066    17A     -0.604445    18A     -0.568746
      19A     -0.555762    20A     -0.551677    21A     -0.513080
      22A     -0.485472    23A     -0.476920    24A     -0.465165
      25A     -0.451238    26A     -0.445753    27A     -0.440808
      28A     -0.432306

  @DF-RHF Final Energy:  -273.32489648239584

   => Energetics <=

    Nuclear Repulsion Energy =            322.3938985409112092
    One-Electron Energy =               -1007.1146530697727712
    Two-Electron Energy =                 411.3958580464657189
    Total Energy =                       -273.3248964823958431
  Basis Set: (AUG-CC-PVTZ AUX)
    Blend: AUG-CC-PVTZ-RI
    Molecular point group: c1

    Geometry (in Angstrom), charge = 0, multiplicity = 1:

       Center              X                  Y                   Z               Mass
    ------------   -----------------  -----------------  -----------------  -----------------
         C           -0.299716409505    -0.245646392278     0.268388387742    12.000000000000
         C            0.818881890495    -1.235546392278    -0.151867512258    12.000000000000
         C            0.245028590495     1.107565607722    -0.212324612258    12.000000000000
         C            2.093023590495    -0.472446392278     0.220567387742    12.000000000000
         C            1.781515590495     1.019923607722    -0.047753612258    12.000000000000
         C           -1.685771409505    -0.598245392278    -0.258903612258    12.000000000000
         C           -2.774468409505     0.374278607722     0.190106387742    12.000000000000
         H           -0.335368409505    -0.237694392278     1.369424387742     1.007825032230
         H            0.755303590495    -1.355970392278    -1.246541612258     1.007825032230
         H            0.721303590495    -2.199598392278     0.309185387742     1.007825032230
         H           -0.186682409505     1.957038607722     0.325968387742     1.007825032230
         H           -0.017190409505     1.232985607722    -1.271257612258     1.007825032230
         H            2.969550590495    -0.826713392278    -0.331059612258     1.007825032230
         H            2.300558590495    -0.629007392278     1.285090387742     1.007825032230
         H            2.132458590495     1.648664607722     0.776384387742     1.007825032230
         H            2.290030590495     1.375159607722    -0.949437612258     1.007825032230
         H           -1.946251409505    -1.613446392278     0.067495387742     1.007825032230
         H           -1.644773409505    -0.626636392278    -1.356380612258     1.007825032230
         H           -2.817521409505     0.430716607722     1.282629387742     1.007825032230
         H           -2.587572409505     1.382048607722    -0.191026612258     1.007825032230
         H           -3.759136409505     0.059184607722    -0.168262612258     1.007825032230

  Basis Set: AUG-CC-PVTZ
    Blend: AUG-CC-PVTZ
  Basis Set: (AUG-CC-PVTZ AUX)
    Blend: AUG-CC-PVTZ-JKFIT
	 Reference Energy          =    -273.3248964823958431 [Eh]
	 Singles Energy            =      -0.0000000000000000 [Eh]
	 Same-Spin Energy          =      -0.2970382686467815 [Eh]
	 Opposite-Spin Energy      =      -1.0772557840774104 [Eh]
	 Correlation Energy        =      -1.3742940527241918 [Eh]
	 Total Energy              =    -274.6991905351200103 [Eh]

	 ================> DF-SCS-MP2 Energies <==================
	-----------------------------------------------------------
	 SCS Same-Spin Scale       =       0.3333333333333333 [-]
	 SCS Opposite-Spin Scale   =       1.2000000000000000 [-]
	 SCS Same-Spin Energy      =      -0.0990127562155938 [Eh]
	 SCS Opposite-Spin Energy  =      -1.2927069408928924 [Eh]
	 SCS Correlation Energy    =      -1.3917196971084862 [Eh]
	 SCS Total Energy          =    -274.7166161795043422 [Eh]
	-----------------------------------------------------------

  Dipole Moment: [D]
     X:    -0.0114      Y:    -0.0501      Z:     0.0599     Total:     0.0789

*** Psi4 exiting successfully. Buy a developer a beer!
