                               Psi4 1.3.2 release

  ==> Input File <==

--------------------------------------------------------------------------
#psi4
#
memory 32 gb

molecule  {
0 1
  C       -0.3087737    -0.2473727     0.1673655
  C        0.8273080    -1.2201790    -0.1568800
  C        0.2651040     1.0998010    -0.2107530
  C        2.1130990    -0.4802110     0.2221390
  C        1.8015910     1.0121590    -0.0461820
  C       -1.6656960    -0.6060100    -0.2573320
  C       -2.7543930     0.3665140     0.1916780
  H       -0.3152930    -0.2454590     1.3709960
  H        0.7753790    -1.3637350    -1.2449700
  H        0.7413790    -2.2073630     0.3107570
  H       -0.1666070     1.9492740     0.3275400
  H        0.0028850     1.2252210    -1.2696860
  H        2.9896260    -0.8344780    -0.3294880
  H        2.3206340    -0.6367720     1.2866620
  H        2.1525340     1.6409000     0.7779560
  H        2.3101060     1.3673950    -0.9478660
  H       -1.9261760    -1.6212110     0.0690670
  H       -1.6246980    -0.6344010    -1.3548090
  H       -2.7974460     0.4229520     1.2842010
  H       -2.5674970     1.3742840    -0.1894550
  H       -3.7390610     0.0514200    -0.1666910
units angstrom
no_reorient  #important for SAPT in psi4, default
symmetry c1  #important for SAPT in psi4, default
}

set PROPERTIES_ORIGIN ["COM"]
properties('MP2/aug-cc-pvtz', properties = ['dipole'])
--------------------------------------------------------------------------

    Molecular point group: c1
  Charge       = 0
  Multiplicity = 1
  Basis Set: AUG-CC-PVTZ
    Blend: AUG-CC-PVTZ
  Basis Set: (AUG-CC-PVTZ AUX)
    Blend: AUG-CC-PVTZ-JKFIT

    Orbital Energies [Eh]
    ---------------------

    Doubly Occupied:

       1A    -11.221096     2A    -11.214022     3A    -11.213442
       4A    -11.213000     5A    -11.211288     6A    -11.211127
       7A    -11.210400     8A     -1.129326     9A     -1.041155
      10A     -0.958109    11A     -0.942396    12A     -0.841936
      13A     -0.773505    14A     -0.738235    15A     -0.655694
      16A     -0.635132    17A     -0.606982    18A     -0.568358
      19A     -0.556648    20A     -0.550250    21A     -0.519694
      22A     -0.486198    23A     -0.473254    24A     -0.466612
      25A     -0.465121    26A     -0.451313    27A     -0.438023
      28A     -0.413687

  @DF-RHF Final Energy:  -273.31272648214986

   => Energetics <=

    Nuclear Repulsion Energy =            323.3185279111586397
    One-Electron Energy =               -1008.8505038200090667
    Two-Electron Energy =                 412.2192494267005713
    Total Energy =                       -273.3127264821498557
  Basis Set: (AUG-CC-PVTZ AUX)
    Blend: AUG-CC-PVTZ-RI
    Molecular point group: c1

    Geometry (in Angstrom), charge = 0, multiplicity = 1:

       Center              X                  Y                   Z               Mass
    ------------   -----------------  -----------------  -----------------  -----------------
         C           -0.323860971268    -0.243175977346     0.179147768113    12.000000000000
         C            0.812220728732    -1.215982277346    -0.145097731887    12.000000000000
         C            0.250016728732     1.103997722654    -0.198970731887    12.000000000000
         C            2.098011728732    -0.476014277346     0.233921268113    12.000000000000
         C            1.786503728732     1.016355722654    -0.034399731887    12.000000000000
         C           -1.680783271268    -0.601813277346    -0.245549731887    12.000000000000
         C           -2.769480271268     0.370710722654     0.203460268113    12.000000000000
         H           -0.330380271268    -0.241262277346     1.382778268113     1.007825032230
         H            0.760291728732    -1.359538277346    -1.233187731887     1.007825032230
         H            0.726291728732    -2.203166277346     0.322539268113     1.007825032230
         H           -0.181694271268     1.953470722654     0.339322268113     1.007825032230
         H           -0.012202271268     1.229417722654    -1.257903731887     1.007825032230
         H            2.974538728732    -0.830281277346    -0.317705731887     1.007825032230
         H            2.305546728732    -0.632575277346     1.298444268113     1.007825032230
         H            2.137446728732     1.645096722654     0.789738268113     1.007825032230
         H            2.295018728732     1.371591722654    -0.936083731887     1.007825032230
         H           -1.941263271268    -1.617014277346     0.080849268113     1.007825032230
         H           -1.639785271268    -0.630204277346    -1.343026731887     1.007825032230
         H           -2.812533271268     0.427148722654     1.295983268113     1.007825032230
         H           -2.582584271268     1.378480722654    -0.177672731887     1.007825032230
         H           -3.754148271268     0.055616722654    -0.154908731887     1.007825032230

  Basis Set: AUG-CC-PVTZ
    Blend: AUG-CC-PVTZ
  Basis Set: (AUG-CC-PVTZ AUX)
    Blend: AUG-CC-PVTZ-JKFIT
	 Reference Energy          =    -273.3127264821498557 [Eh]
	 Singles Energy            =      -0.0000000000000000 [Eh]
	 Same-Spin Energy          =      -0.2979803058422001 [Eh]
	 Opposite-Spin Energy      =      -1.0785210361023141 [Eh]
	 Correlation Energy        =      -1.3765013419445142 [Eh]
	 Total Energy              =    -274.6892278240943597 [Eh]

	 ================> DF-SCS-MP2 Energies <==================
	-----------------------------------------------------------
	 SCS Same-Spin Scale       =       0.3333333333333333 [-]
	 SCS Opposite-Spin Scale   =       1.2000000000000000 [-]
	 SCS Same-Spin Energy      =      -0.0993267686140667 [Eh]
	 SCS Opposite-Spin Energy  =      -1.2942252433227768 [Eh]
	 SCS Correlation Energy    =      -1.3935520119368434 [Eh]
	 SCS Total Energy          =    -274.7062784940866891 [Eh]
	-----------------------------------------------------------

  Dipole Moment: [D]
     X:    -0.0076      Y:    -0.0347      Z:    -0.0217     Total:     0.0417

*** Psi4 exiting successfully. Buy a developer a beer!
