                               Psi4 1.3.2 release

  ==> Input File <==

--------------------------------------------------------------------------
#psi4
#
memory 32 gb

molecule  {
0 1
  C       -0.2796410    -0.2534110     0.2699600
  C        0.8623902    -1.1906160    -0.1295151
  C        0.2651040     1.0998010    -0.2107530
  C        2.1130990    -0.4802110     0.2221390
  C        1.8015910     1.0121590    -0.0461820
  C       -1.6656960    -0.6060100    -0.2573320
  C       -2.7543930     0.3665140     0.1916780
  H       -0.3152930    -0.2454590     1.3709960
  H        0.7753790    -1.3637350    -1.2449700
  H        0.7413790    -2.2073630     0.3107570
  H       -0.1666070     1.9492740     0.3275400
  H        0.0028850     1.2252210    -1.2696860
  H        2.9896260    -0.8344780    -0.3294880
  H        2.3206340    -0.6367720     1.2866620
  H        2.1525340     1.6409000     0.7779560
  H        2.3101060     1.3673950    -0.9478660
  H       -1.9261760    -1.6212110     0.0690670
  H       -1.6246980    -0.6344010    -1.3548090
  H       -2.7974460     0.4229520     1.2842010
  H       -2.5674970     1.3742840    -0.1894550
  H       -3.7390610     0.0514200    -0.1666910
units angstrom
no_reorient  #important for SAPT in psi4, default
symmetry c1  #important for SAPT in psi4, default
}

set PROPERTIES_ORIGIN ["COM"]
properties('MP2/aug-cc-pvtz', properties = ['dipole'])
--------------------------------------------------------------------------

    Molecular point group: c1
  Charge       = 0
  Multiplicity = 1
  Basis Set: AUG-CC-PVTZ
    Blend: AUG-CC-PVTZ
  Basis Set: (AUG-CC-PVTZ AUX)
    Blend: AUG-CC-PVTZ-JKFIT

    Orbital Energies [Eh]
    ---------------------

    Doubly Occupied:

       1A    -11.215128     2A    -11.214473     3A    -11.212321
       4A    -11.212100     5A    -11.209981     6A    -11.209586
       7A    -11.209538     8A     -1.128908     9A     -1.036355
      10A     -0.958113    11A     -0.940676    12A     -0.833968
      13A     -0.768083    14A     -0.751804    15A     -0.651999
      16A     -0.633294    17A     -0.605492    18A     -0.568055
      19A     -0.556196    20A     -0.553867    21A     -0.513036
      22A     -0.484695    23A     -0.476436    24A     -0.463718
      25A     -0.449712    26A     -0.445725    27A     -0.442239
      28A     -0.434851

  @DF-RHF Final Energy:  -273.32197307420358

   => Energetics <=

    Nuclear Repulsion Energy =            323.2246644770667672
    One-Electron Energy =               -1008.7325778488099104
    Two-Electron Energy =                 412.1859402975395597
    Total Energy =                       -273.3219730742035836
  Basis Set: (AUG-CC-PVTZ AUX)
    Blend: AUG-CC-PVTZ-RI
    Molecular point group: c1

    Geometry (in Angstrom), charge = 0, multiplicity = 1:

       Center              X                  Y                   Z               Mass
    ------------   -----------------  -----------------  -----------------  -----------------
         C           -0.302582540261    -0.252091636366     0.265846641308    12.000000000000
         C            0.839448659739    -1.189296636366    -0.133628458692    12.000000000000
         C            0.242162459739     1.101120363634    -0.214866358692    12.000000000000
         C            2.090157459739    -0.478891636366     0.218025641308    12.000000000000
         C            1.778649459739     1.013478363634    -0.050295358692    12.000000000000
         C           -1.688637540261    -0.604690636366    -0.261445358692    12.000000000000
         C           -2.777334540261     0.367833363634     0.187564641308    12.000000000000
         H           -0.338234540261    -0.244139636366     1.366882641308     1.007825032230
         H            0.752437459739    -1.362415636366    -1.249083358692     1.007825032230
         H            0.718437459739    -2.206043636366     0.306643641308     1.007825032230
         H           -0.189548540261     1.950593363634     0.323426641308     1.007825032230
         H           -0.020056540261     1.226540363634    -1.273799358692     1.007825032230
         H            2.966684459739    -0.833158636366    -0.333601358692     1.007825032230
         H            2.297692459739    -0.635452636366     1.282548641308     1.007825032230
         H            2.129592459739     1.642219363634     0.773842641308     1.007825032230
         H            2.287164459739     1.368714363634    -0.951979358692     1.007825032230
         H           -1.949117540261    -1.619891636366     0.064953641308     1.007825032230
         H           -1.647639540261    -0.633081636366    -1.358922358692     1.007825032230
         H           -2.820387540261     0.424271363634     1.280087641308     1.007825032230
         H           -2.590438540261     1.375603363634    -0.193568358692     1.007825032230
         H           -3.762002540261     0.052739363634    -0.170804358692     1.007825032230

  Basis Set: AUG-CC-PVTZ
    Blend: AUG-CC-PVTZ
  Basis Set: (AUG-CC-PVTZ AUX)
    Blend: AUG-CC-PVTZ-JKFIT
	 Reference Energy          =    -273.3219730742035836 [Eh]
	 Singles Energy            =      -0.0000000000000000 [Eh]
	 Same-Spin Energy          =      -0.2975561741846464 [Eh]
	 Opposite-Spin Energy      =      -1.0776589153000371 [Eh]
	 Correlation Energy        =      -1.3752150894846835 [Eh]
	 Total Energy              =    -274.6971881636882813 [Eh]

	 ================> DF-SCS-MP2 Energies <==================
	-----------------------------------------------------------
	 SCS Same-Spin Scale       =       0.3333333333333333 [-]
	 SCS Opposite-Spin Scale   =       1.2000000000000000 [-]
	 SCS Same-Spin Energy      =      -0.0991853913948821 [Eh]
	 SCS Opposite-Spin Energy  =      -1.2931906983600445 [Eh]
	 SCS Correlation Energy    =      -1.3923760897549267 [Eh]
	 SCS Total Energy          =    -274.7143491639585022 [Eh]
	-----------------------------------------------------------

  Dipole Moment: [D]
     X:    -0.0148      Y:    -0.0296      Z:     0.0656     Total:     0.0735

*** Psi4 exiting successfully. Buy a developer a beer!
