                               Psi4 1.4a3.dev225

  ==> Input File <==

--------------------------------------------------------------------------
#psi4
#
memory 32 gb

molecule  {
0 1
  C       -0.2796410    -0.2534110     0.2699600
  C        0.8417740    -1.2328131    -0.1624581
  C        0.2651040     1.0998010    -0.2107530
  C        2.1130990    -0.4802110     0.2221390
  C        1.8015910     1.0121590    -0.0461820
  C       -1.6656960    -0.6060100    -0.2573320
  C       -2.7543930     0.3665140     0.1916780
  H       -0.3152930    -0.2454590     1.3709960
  H        0.7753790    -1.3637350    -1.2449700
  H        0.7413790    -2.2073630     0.3107570
  H       -0.1666070     1.9492740     0.3275400
  H        0.0028850     1.2252210    -1.2696860
  H        2.9896260    -0.8344780    -0.3294880
  H        2.3206340    -0.6367720     1.2866620
  H        2.1525340     1.6409000     0.7779560
  H        2.3101060     1.3673950    -0.9478660
  H       -1.9261760    -1.6212110     0.0690670
  H       -1.6246980    -0.6344010    -1.3548090
  H       -2.7974460     0.4229520     1.2842010
  H       -2.5674970     1.3742840    -0.1894550
  H       -3.7390610     0.0514200    -0.1666910
units angstrom
no_reorient  #important for SAPT in psi4, default
symmetry c1  #important for SAPT in psi4, default
}

set PROPERTIES_ORIGIN ["COM"]
properties('MP2/aug-cc-pvtz', properties = ['dipole'])
--------------------------------------------------------------------------

    Molecular point group: c1
  Charge       = 0
  Multiplicity = 1
  Basis Set: AUG-CC-PVTZ
    Blend: AUG-CC-PVTZ
  Basis Set: (AUG-CC-PVTZ AUX)
    Blend: AUG-CC-PVTZ-JKFIT

    Orbital Energies [Eh]
    ---------------------

    Doubly Occupied:

       1A    -11.215671     2A    -11.213463     3A    -11.212175
       4A    -11.211338     5A    -11.210063     6A    -11.209136
       7A    -11.208690     8A     -1.122865     9A     -1.033834
      10A     -0.956402    11A     -0.938519    12A     -0.833667
      13A     -0.771533    14A     -0.750741    15A     -0.651958
      16A     -0.629551    17A     -0.604569    18A     -0.569512
      19A     -0.556120    20A     -0.552075    21A     -0.512874
      22A     -0.485628    23A     -0.474026    24A     -0.464784
      25A     -0.453637    26A     -0.445754    27A     -0.441467
      28A     -0.432056

  @DF-RHF Final Energy:  -273.32523181369857

   => Energetics <=

    Nuclear Repulsion Energy =            322.5065793175369322
    One-Electron Energy =               -1007.3394047656150860
    Two-Electron Energy =                 411.5075936343796457
    Total Energy =                       -273.3252318136985650
  Basis Set: (AUG-CC-PVTZ AUX)
    Blend: AUG-CC-PVTZ-RI
    Molecular point group: c1

    Geometry (in Angstrom), charge = 0, multiplicity = 1:

       Center              X                  Y                   Z               Mass
    ------------   -----------------  -----------------  -----------------  -----------------
         C           -0.300060926424    -0.246930414062     0.269875973806    12.000000000000
         C            0.821354073576    -1.226332514062    -0.162542126194    12.000000000000
         C            0.244684073576     1.106281585938    -0.210837026194    12.000000000000
         C            2.092679073576    -0.473730414062     0.222054973806    12.000000000000
         C            1.781171073576     1.018639585938    -0.046266026194    12.000000000000
         C           -1.686115926424    -0.599529414062    -0.257416026194    12.000000000000
         C           -2.774812926424     0.372994585938     0.191593973806    12.000000000000
         H           -0.335712926424    -0.238978414062     1.370911973806     1.007825032230
         H            0.754959073576    -1.357254414062    -1.245054026194     1.007825032230
         H            0.720959073576    -2.200882414062     0.310672973806     1.007825032230
         H           -0.187026926424     1.955754585938     0.327455973806     1.007825032230
         H           -0.017534926424     1.231701585938    -1.269770026194     1.007825032230
         H            2.969206073576    -0.827997414062    -0.329572026194     1.007825032230
         H            2.300214073576    -0.630291414062     1.286577973806     1.007825032230
         H            2.132114073576     1.647380585938     0.777871973806     1.007825032230
         H            2.289686073576     1.373875585938    -0.947950026194     1.007825032230
         H           -1.946595926424    -1.614730414062     0.068982973806     1.007825032230
         H           -1.645117926424    -0.627920414062    -1.354893026194     1.007825032230
         H           -2.817865926424     0.429432585938     1.284116973806     1.007825032230
         H           -2.587916926424     1.380764585938    -0.189539026194     1.007825032230
         H           -3.759480926424     0.057900585938    -0.166775026194     1.007825032230

  Basis Set: AUG-CC-PVTZ
    Blend: AUG-CC-PVTZ
  Basis Set: (AUG-CC-PVTZ AUX)
    Blend: AUG-CC-PVTZ-JKFIT
	 Reference Energy          =    -273.3252318136985650 [Eh]
	 Singles Energy            =      -0.0000000000000000 [Eh]
	 Same-Spin Energy          =      -0.2970792240711986 [Eh]
	 Opposite-Spin Energy      =      -1.0772565815475026 [Eh]
	 Correlation Energy        =      -1.3743358056187012 [Eh]
	 Total Energy              =    -274.6995676193172926 [Eh]

	 ================> DF-SCS-MP2 Energies <==================
	-----------------------------------------------------------
	 SCS Same-Spin Scale       =       0.3333333333333333 [-]
	 SCS Opposite-Spin Scale   =       1.2000000000000000 [-]
	 SCS Same-Spin Energy      =      -0.0990264080237329 [Eh]
	 SCS Opposite-Spin Energy  =      -1.2927078978570030 [Eh]
	 SCS Correlation Energy    =      -1.3917343058807359 [Eh]
	 SCS Total Energy          =    -274.7169661195792969 [Eh]
	-----------------------------------------------------------

  Dipole Moment: [D]
     X:    -0.0115      Y:    -0.0484      Z:     0.0503     Total:     0.0707

*** Psi4 exiting successfully. Buy a developer a beer!
