                               Psi4 1.3.2 release

  ==> Input File <==

--------------------------------------------------------------------------
#psi4
#
memory 32 gb

molecule  {
0 1
  C       -0.3158295    -0.2886290     0.2525343
  C        0.8273080    -1.2201790    -0.1568800
  C        0.2651040     1.0998010    -0.2107530
  C        2.1130990    -0.4802110     0.2221390
  C        1.8015910     1.0121590    -0.0461820
  C       -1.6656960    -0.6060100    -0.2573320
  C       -2.7543930     0.3665140     0.1916780
  H       -0.3152930    -0.2454590     1.3709960
  H        0.7753790    -1.3637350    -1.2449700
  H        0.7413790    -2.2073630     0.3107570
  H       -0.1666070     1.9492740     0.3275400
  H        0.0028850     1.2252210    -1.2696860
  H        2.9896260    -0.8344780    -0.3294880
  H        2.3206340    -0.6367720     1.2866620
  H        2.1525340     1.6409000     0.7779560
  H        2.3101060     1.3673950    -0.9478660
  H       -1.9261760    -1.6212110     0.0690670
  H       -1.6246980    -0.6344010    -1.3548090
  H       -2.7974460     0.4229520     1.2842010
  H       -2.5674970     1.3742840    -0.1894550
  H       -3.7390610     0.0514200    -0.1666910
units angstrom
no_reorient  #important for SAPT in psi4, default
symmetry c1  #important for SAPT in psi4, default
}

set PROPERTIES_ORIGIN ["COM"]
properties('MP2/aug-cc-pvtz', properties = ['dipole'])
--------------------------------------------------------------------------

    Molecular point group: c1
  Charge       = 0
  Multiplicity = 1
  Basis Set: AUG-CC-PVTZ
    Blend: AUG-CC-PVTZ
  Basis Set: (AUG-CC-PVTZ AUX)
    Blend: AUG-CC-PVTZ-JKFIT

    Orbital Energies [Eh]
    ---------------------

    Doubly Occupied:

       1A    -11.216385     2A    -11.212633     3A    -11.212431
       4A    -11.212086     5A    -11.211227     6A    -11.210300
       7A    -11.209771     8A     -1.123006     9A     -1.039023
      10A     -0.955381    11A     -0.938045    12A     -0.838387
      13A     -0.769964    14A     -0.748817    15A     -0.650610
      16A     -0.630965    17A     -0.606409    18A     -0.568943
      19A     -0.556818    20A     -0.553270    21A     -0.514316
      22A     -0.486210    23A     -0.470672    24A     -0.463935
      25A     -0.458816    26A     -0.449798    27A     -0.440179
      28A     -0.425390

  @DF-RHF Final Energy:  -273.32232362255860

   => Energetics <=

    Nuclear Repulsion Energy =            322.6609933970635780
    One-Electron Energy =               -1007.6190622384331164
    Two-Electron Energy =                 411.6357452188109960
    Total Energy =                       -273.3223236225585993
  Basis Set: (AUG-CC-PVTZ AUX)
    Blend: AUG-CC-PVTZ-RI
    Molecular point group: c1

    Geometry (in Angstrom), charge = 0, multiplicity = 1:

       Center              X                  Y                   Z               Mass
    ------------   -----------------  -----------------  -----------------  -----------------
         C           -0.330053760485    -0.279386126408     0.253899380436    12.000000000000
         C            0.813083739515    -1.210936126408    -0.155514919564    12.000000000000
         C            0.250879739515     1.109043873592    -0.209387919564    12.000000000000
         C            2.098874739515    -0.470968126408     0.223504080436    12.000000000000
         C            1.787366739515     1.021401873592    -0.044816919564    12.000000000000
         C           -1.679920260485    -0.596767126408    -0.255966919564    12.000000000000
         C           -2.768617260485     0.375756873592     0.193043080436    12.000000000000
         H           -0.329517260485    -0.236216126408     1.372361080436     1.007825032230
         H            0.761154739515    -1.354492126408    -1.243604919564     1.007825032230
         H            0.727154739515    -2.198120126408     0.312122080436     1.007825032230
         H           -0.180831260485     1.958516873592     0.328905080436     1.007825032230
         H           -0.011339260485     1.234463873592    -1.268320919564     1.007825032230
         H            2.975401739515    -0.825235126408    -0.328122919564     1.007825032230
         H            2.306409739515    -0.627529126408     1.288027080436     1.007825032230
         H            2.138309739515     1.650142873592     0.779321080436     1.007825032230
         H            2.295881739515     1.376637873592    -0.946500919564     1.007825032230
         H           -1.940400260485    -1.611968126408     0.070432080436     1.007825032230
         H           -1.638922260485    -0.625158126408    -1.353443919564     1.007825032230
         H           -2.811670260485     0.432194873592     1.285566080436     1.007825032230
         H           -2.581721260485     1.383526873592    -0.188089919564     1.007825032230
         H           -3.753285260485     0.060662873592    -0.165325919564     1.007825032230

  Basis Set: AUG-CC-PVTZ
    Blend: AUG-CC-PVTZ
  Basis Set: (AUG-CC-PVTZ AUX)
    Blend: AUG-CC-PVTZ-JKFIT
	 Reference Energy          =    -273.3223236225585993 [Eh]
	 Singles Energy            =      -0.0000000000000000 [Eh]
	 Same-Spin Energy          =      -0.2973657692271712 [Eh]
	 Opposite-Spin Energy      =      -1.0776731325031386 [Eh]
	 Correlation Energy        =      -1.3750389017303097 [Eh]
	 Total Energy              =    -274.6973625242889057 [Eh]

	 ================> DF-SCS-MP2 Energies <==================
	-----------------------------------------------------------
	 SCS Same-Spin Scale       =       0.3333333333333333 [-]
	 SCS Opposite-Spin Scale   =       1.2000000000000000 [-]
	 SCS Same-Spin Energy      =      -0.0991219230757237 [Eh]
	 SCS Opposite-Spin Energy  =      -1.2932077590037663 [Eh]
	 SCS Correlation Energy    =      -1.3923296820794899 [Eh]
	 SCS Total Energy          =    -274.7146533046380910 [Eh]
	-----------------------------------------------------------

  Dipole Moment: [D]
     X:    -0.0233      Y:    -0.0513      Z:     0.0396     Total:     0.0689

*** Psi4 exiting successfully. Buy a developer a beer!
