                               Psi4 1.3.2 release

  ==> Input File <==

--------------------------------------------------------------------------
#psi4
#
memory 32 gb

molecule  {
0 1
  C       -0.2697014    -0.2746192     0.2573432
  C        0.8273080    -1.2201790    -0.1568800
  C        0.2651040     1.0998010    -0.2107530
  C        2.1130990    -0.4802110     0.2221390
  C        1.8015910     1.0121590    -0.0461820
  C       -1.6656960    -0.6060100    -0.2573320
  C       -2.7543930     0.3665140     0.1916780
  H       -0.3152930    -0.2454590     1.3709960
  H        0.7753790    -1.3637350    -1.2449700
  H        0.7413790    -2.2073630     0.3107570
  H       -0.1666070     1.9492740     0.3275400
  H        0.0028850     1.2252210    -1.2696860
  H        2.9896260    -0.8344780    -0.3294880
  H        2.3206340    -0.6367720     1.2866620
  H        2.1525340     1.6409000     0.7779560
  H        2.3101060     1.3673950    -0.9478660
  H       -1.9261760    -1.6212110     0.0690670
  H       -1.6246980    -0.6344010    -1.3548090
  H       -2.7974460     0.4229520     1.2842010
  H       -2.5674970     1.3742840    -0.1894550
  H       -3.7390610     0.0514200    -0.1666910
units angstrom
no_reorient  #important for SAPT in psi4, default
symmetry c1  #important for SAPT in psi4, default
}

set PROPERTIES_ORIGIN ["COM"]
properties('MP2/aug-cc-pvtz', properties = ['dipole'])
--------------------------------------------------------------------------

    Molecular point group: c1
  Charge       = 0
  Multiplicity = 1
  Basis Set: AUG-CC-PVTZ
    Blend: AUG-CC-PVTZ
  Basis Set: (AUG-CC-PVTZ AUX)
    Blend: AUG-CC-PVTZ-JKFIT

    Orbital Energies [Eh]
    ---------------------

    Doubly Occupied:

       1A    -11.215562     2A    -11.213705     3A    -11.212172
       4A    -11.211617     5A    -11.210376     6A    -11.209313
       7A    -11.209108     8A     -1.125988     9A     -1.033750
      10A     -0.957669    11A     -0.939379    12A     -0.834221
      13A     -0.771019    14A     -0.750039    15A     -0.652890
      16A     -0.630139    17A     -0.604383    18A     -0.569614
      19A     -0.556380    20A     -0.552379    21A     -0.513292
      22A     -0.484783    23A     -0.473061    24A     -0.464286
      25A     -0.451384    26A     -0.446447    27A     -0.443665
      28A     -0.434083

  @DF-RHF Final Energy:  -273.32464143946277

   => Energetics <=

    Nuclear Repulsion Energy =            322.8509235904885486
    One-Electron Energy =               -1008.0097274443921833
    Two-Electron Energy =                 411.8341624144409252
    Total Energy =                       -273.3246414394627664
  Basis Set: (AUG-CC-PVTZ AUX)
    Blend: AUG-CC-PVTZ-RI
    Molecular point group: c1

    Geometry (in Angstrom), charge = 0, multiplicity = 1:

       Center              X                  Y                   Z               Mass
    ------------   -----------------  -----------------  -----------------  -----------------
         C           -0.289567692249    -0.267089896588     0.258120093050    12.000000000000
         C            0.807441707751    -1.212649696588    -0.156103106950    12.000000000000
         C            0.245237707751     1.107330303412    -0.209976106950    12.000000000000
         C            2.093232707751    -0.472681696588     0.222915893050    12.000000000000
         C            1.781724707751     1.019688303412    -0.045405106950    12.000000000000
         C           -1.685562292249    -0.598480696588    -0.256555106950    12.000000000000
         C           -2.774259292249     0.374043303412     0.192454893050    12.000000000000
         H           -0.335159292249    -0.237929696588     1.371772893050     1.007825032230
         H            0.755512707751    -1.356205696588    -1.244193106950     1.007825032230
         H            0.721512707751    -2.199833696588     0.311533893050     1.007825032230
         H           -0.186473292249     1.956803303412     0.328316893050     1.007825032230
         H           -0.016981292249     1.232750303412    -1.268909106950     1.007825032230
         H            2.969759707751    -0.826948696588    -0.328711106950     1.007825032230
         H            2.300767707751    -0.629242696588     1.287438893050     1.007825032230
         H            2.132667707751     1.648429303412     0.778732893050     1.007825032230
         H            2.290239707751     1.374924303412    -0.947089106950     1.007825032230
         H           -1.946042292249    -1.613681696588     0.069843893050     1.007825032230
         H           -1.644564292249    -0.626871696588    -1.354032106950     1.007825032230
         H           -2.817312292249     0.430481303412     1.284977893050     1.007825032230
         H           -2.587363292249     1.381813303412    -0.188678106950     1.007825032230
         H           -3.758927292249     0.058949303412    -0.165914106950     1.007825032230

  Basis Set: AUG-CC-PVTZ
    Blend: AUG-CC-PVTZ
  Basis Set: (AUG-CC-PVTZ AUX)
    Blend: AUG-CC-PVTZ-JKFIT
	 Reference Energy          =    -273.3246414394627664 [Eh]
	 Singles Energy            =      -0.0000000000000000 [Eh]
	 Same-Spin Energy          =      -0.2972581915292555 [Eh]
	 Opposite-Spin Energy      =      -1.0774077421294583 [Eh]
	 Correlation Energy        =      -1.3746659336587139 [Eh]
	 Total Energy              =    -274.6993073731214849 [Eh]

	 ================> DF-SCS-MP2 Energies <==================
	-----------------------------------------------------------
	 SCS Same-Spin Scale       =       0.3333333333333333 [-]
	 SCS Opposite-Spin Scale   =       1.2000000000000000 [-]
	 SCS Same-Spin Energy      =      -0.0990860638430852 [Eh]
	 SCS Opposite-Spin Energy  =      -1.2928892905553500 [Eh]
	 SCS Correlation Energy    =      -1.3919753543984352 [Eh]
	 SCS Total Energy          =    -274.7166167938611920 [Eh]
	-----------------------------------------------------------

  Dipole Moment: [D]
     X:    -0.0093      Y:    -0.0481      Z:     0.0460     Total:     0.0672

*** Psi4 exiting successfully. Buy a developer a beer!
