                               Psi4 1.4a3.dev225

  ==> Input File <==

--------------------------------------------------------------------------
#psi4
#
memory 32 gb

molecule  {
0 1
  C       -0.2796410    -0.2534110     0.2699600
  C        0.8273080    -1.2201790    -0.1568800
  C        0.2651040     1.0998010    -0.2107530
  C        2.1130990    -0.4802110     0.2221390
  C        1.8015910     1.0121590    -0.0461820
  C       -1.6656960    -0.6060100    -0.2573320
  C       -2.7543930     0.3665140     0.1916780
  H       -0.3169111    -0.2450981     1.4209685
  H        0.7753790    -1.3637350    -1.2449700
  H        0.7413790    -2.2073630     0.3107570
  H       -0.1666070     1.9492740     0.3275400
  H        0.0028850     1.2252210    -1.2696860
  H        2.9896260    -0.8344780    -0.3294880
  H        2.3206340    -0.6367720     1.2866620
  H        2.1525340     1.6409000     0.7779560
  H        2.3101060     1.3673950    -0.9478660
  H       -1.9261760    -1.6212110     0.0690670
  H       -1.6246980    -0.6344010    -1.3548090
  H       -2.7974460     0.4229520     1.2842010
  H       -2.5674970     1.3742840    -0.1894550
  H       -3.7390610     0.0514200    -0.1666910
units angstrom
no_reorient  #important for SAPT in psi4, default
symmetry c1  #important for SAPT in psi4, default
}

set PROPERTIES_ORIGIN ["COM"]
properties('MP2/aug-cc-pvtz', properties = ['dipole'])
--------------------------------------------------------------------------

    Molecular point group: c1
  Charge       = 0
  Multiplicity = 1
  Basis Set: AUG-CC-PVTZ
    Blend: AUG-CC-PVTZ
  Basis Set: (AUG-CC-PVTZ AUX)
    Blend: AUG-CC-PVTZ-JKFIT

    Orbital Energies [Eh]
    ---------------------

    Doubly Occupied:

       1A    -11.221224     2A    -11.214285     3A    -11.212256
       4A    -11.211573     5A    -11.210747     6A    -11.210226
       7A    -11.208804     8A     -1.124078     9A     -1.033895
      10A     -0.956343    11A     -0.938677    12A     -0.833956
      13A     -0.770553    14A     -0.746464    15A     -0.651583
      16A     -0.630344    17A     -0.604381    18A     -0.569364
      19A     -0.553958    20A     -0.552270    21A     -0.513358
      22A     -0.485274    23A     -0.472454    24A     -0.464390
      25A     -0.451063    26A     -0.445801    27A     -0.440374
      28A     -0.435908

  @DF-RHF Final Energy:  -273.32341960613127

   => Energetics <=

    Nuclear Repulsion Energy =            322.5227618974664097
    One-Electron Energy =               -1007.3651561719356096
    Two-Electron Energy =                 411.5189746683378758
    Total Energy =                       -273.3234196061312673
  Basis Set: (AUG-CC-PVTZ AUX)
    Blend: AUG-CC-PVTZ-RI
    Molecular point group: c1

    Geometry (in Angstrom), charge = 0, multiplicity = 1:

       Center              X                  Y                   Z               Mass
    ------------   -----------------  -----------------  -----------------  -----------------
         C           -0.298274935551    -0.248479426604     0.268680364043    12.000000000000
         C            0.808674064449    -1.215247426604    -0.158159635957    12.000000000000
         C            0.246470064449     1.104732573396    -0.212032635957    12.000000000000
         C            2.094465064449    -0.475279426604     0.220859364043    12.000000000000
         C            1.782957064449     1.017090573396    -0.047461635957    12.000000000000
         C           -1.684329935551    -0.601078426604    -0.258611635957    12.000000000000
         C           -2.773026935551     0.371445573396     0.190398364043    12.000000000000
         H           -0.335545035551    -0.240166526604     1.419688864043     1.007825032230
         H            0.756745064449    -1.358803426604    -1.246249635957     1.007825032230
         H            0.722745064449    -2.202431426604     0.309477364043     1.007825032230
         H           -0.185240935551     1.954205573396     0.326260364043     1.007825032230
         H           -0.015748935551     1.230152573396    -1.270965635957     1.007825032230
         H            2.970992064449    -0.829546426604    -0.330767635957     1.007825032230
         H            2.302000064449    -0.631840426604     1.285382364043     1.007825032230
         H            2.133900064449     1.645831573396     0.776676364043     1.007825032230
         H            2.291472064449     1.372326573396    -0.949145635957     1.007825032230
         H           -1.944809935551    -1.616279426604     0.067787364043     1.007825032230
         H           -1.643331935551    -0.629469426604    -1.356088635957     1.007825032230
         H           -2.816079935551     0.427883573396     1.282921364043     1.007825032230
         H           -2.586130935551     1.379215573396    -0.190734635957     1.007825032230
         H           -3.757694935551     0.056351573396    -0.167970635957     1.007825032230

  Basis Set: AUG-CC-PVTZ
    Blend: AUG-CC-PVTZ
  Basis Set: (AUG-CC-PVTZ AUX)
    Blend: AUG-CC-PVTZ-JKFIT
	 Reference Energy          =    -273.3234196061312673 [Eh]
	 Singles Energy            =      -0.0000000000000000 [Eh]
	 Same-Spin Energy          =      -0.2971914019823318 [Eh]
	 Opposite-Spin Energy      =      -1.0776585430934889 [Eh]
	 Correlation Energy        =      -1.3748499450758207 [Eh]
	 Total Energy              =    -274.6982695512070904 [Eh]

	 ================> DF-SCS-MP2 Energies <==================
	-----------------------------------------------------------
	 SCS Same-Spin Scale       =       0.3333333333333333 [-]
	 SCS Opposite-Spin Scale   =       1.2000000000000000 [-]
	 SCS Same-Spin Energy      =      -0.0990638006607773 [Eh]
	 SCS Opposite-Spin Energy  =      -1.2931902517121865 [Eh]
	 SCS Correlation Energy    =      -1.3922540523729638 [Eh]
	 SCS Total Energy          =    -274.7156736585042154 [Eh]
	-----------------------------------------------------------

  Dipole Moment: [D]
     X:    -0.0078      Y:    -0.0464      Z:     0.0070     Total:     0.0475

*** Psi4 exiting successfully. Buy a developer a beer!
