                               Psi4 1.3.2 release

  ==> Input File <==

--------------------------------------------------------------------------
#psi4
#
memory 32 gb

molecule  {
0 1
  C       -0.2796410    -0.2534110     0.2699600
  C        0.8273080    -1.2201790    -0.1568800
  C        0.2651040     1.0998010    -0.2107530
  C        2.1130990    -0.4802110     0.2221390
  C        1.8015910     1.0121590    -0.0461820
  C       -1.6656960    -0.6060100    -0.2573320
  C       -2.7543930     0.3665140     0.1916780
  H       -0.3152930    -0.2454590     1.3709960
  H        0.7753790    -1.3637350    -1.2449700
  H        0.7413790    -2.2073630     0.3107570
  H       -0.1666070     1.9492740     0.3275400
  H        0.0028850     1.2252210    -1.2696860
  H        2.9342318    -0.8041555    -0.4250842
  H        2.3206340    -0.6367720     1.2866620
  H        2.1525340     1.6409000     0.7779560
  H        2.3101060     1.3673950    -0.9478660
  H       -1.9261760    -1.6212110     0.0690670
  H       -1.6246980    -0.6344010    -1.3548090
  H       -2.7974460     0.4229520     1.2842010
  H       -2.5674970     1.3742840    -0.1894550
  H       -3.7390610     0.0514200    -0.1666910
units angstrom
no_reorient  #important for SAPT in psi4, default
symmetry c1  #important for SAPT in psi4, default
}

set PROPERTIES_ORIGIN ["COM"]
properties('MP2/aug-cc-pvtz', properties = ['dipole'])
--------------------------------------------------------------------------

    Molecular point group: c1
  Charge       = 0
  Multiplicity = 1
  Basis Set: AUG-CC-PVTZ
    Blend: AUG-CC-PVTZ
  Basis Set: (AUG-CC-PVTZ AUX)
    Blend: AUG-CC-PVTZ-JKFIT

    Orbital Energies [Eh]
    ---------------------

    Doubly Occupied:

       1A    -11.214530     2A    -11.213333     3A    -11.211772
       4A    -11.211117     5A    -11.209647     6A    -11.208982
       7A    -11.208559     8A     -1.124772     9A     -1.033981
      10A     -0.955893    11A     -0.939534    12A     -0.833409
      13A     -0.768548    14A     -0.751367    15A     -0.652387
      16A     -0.630848    17A     -0.605728    18A     -0.570039
      19A     -0.558187    20A     -0.550938    21A     -0.513167
      22A     -0.484993    23A     -0.471471    24A     -0.461094
      25A     -0.454678    26A     -0.445904    27A     -0.441610
      28A     -0.434482

  @DF-RHF Final Energy:  -273.32409319872107

   => Energetics <=

    Nuclear Repulsion Energy =            322.8758693156450477
    One-Electron Energy =               -1008.0779862985335740
    Two-Electron Energy =                 411.8780237841675103
    Total Energy =                       -273.3240931987210729
  Basis Set: (AUG-CC-PVTZ AUX)
    Blend: AUG-CC-PVTZ-RI
    Molecular point group: c1

    Geometry (in Angstrom), charge = 0, multiplicity = 1:

       Center              X                  Y                   Z               Mass
    ------------   -----------------  -----------------  -----------------  -----------------
         C           -0.297722523482    -0.248787205513     0.270175710613    12.000000000000
         C            0.809226476518    -1.215555205513    -0.156664289387    12.000000000000
         C            0.247022476518     1.104424794487    -0.210537289387    12.000000000000
         C            2.095017476518    -0.475587205513     0.222354710613    12.000000000000
         C            1.783509476518     1.016782794487    -0.045966289387    12.000000000000
         C           -1.683777523482    -0.601386205513    -0.257116289387    12.000000000000
         C           -2.772474523482     0.371137794487     0.191893710613    12.000000000000
         H           -0.333374523482    -0.240835205513     1.371211710613     1.007825032230
         H            0.757297476518    -1.359111205513    -1.244754289387     1.007825032230
         H            0.723297476518    -2.202739205513     0.310972710613     1.007825032230
         H           -0.184688523482     1.953897794487     0.327755710613     1.007825032230
         H           -0.015196523482     1.229844794487    -1.269470289387     1.007825032230
         H            2.916150276518    -0.799531705513    -0.424868489387     1.007825032230
         H            2.302552476518    -0.632148205513     1.286877710613     1.007825032230
         H            2.134452476518     1.645523794487     0.778171710613     1.007825032230
         H            2.292024476518     1.372018794487    -0.947650289387     1.007825032230
         H           -1.944257523482    -1.616587205513     0.069282710613     1.007825032230
         H           -1.642779523482    -0.629777205513    -1.354593289387     1.007825032230
         H           -2.815527523482     0.427575794487     1.284416710613     1.007825032230
         H           -2.585578523482     1.378907794487    -0.189239289387     1.007825032230
         H           -3.757142523482     0.056043794487    -0.166475289387     1.007825032230

  Basis Set: AUG-CC-PVTZ
    Blend: AUG-CC-PVTZ
  Basis Set: (AUG-CC-PVTZ AUX)
    Blend: AUG-CC-PVTZ-JKFIT
	 Reference Energy          =    -273.3240931987210729 [Eh]
	 Singles Energy            =      -0.0000000000000000 [Eh]
	 Same-Spin Energy          =      -0.2972493231218341 [Eh]
	 Opposite-Spin Energy      =      -1.0775501974383577 [Eh]
	 Correlation Energy        =      -1.3747995205601917 [Eh]
	 Total Energy              =    -274.6988927192812753 [Eh]

	 ================> DF-SCS-MP2 Energies <==================
	-----------------------------------------------------------
	 SCS Same-Spin Scale       =       0.3333333333333333 [-]
	 SCS Opposite-Spin Scale   =       1.2000000000000000 [-]
	 SCS Same-Spin Energy      =      -0.0990831077072780 [Eh]
	 SCS Opposite-Spin Energy  =      -1.2930602369260291 [Eh]
	 SCS Correlation Energy    =      -1.3921433446333071 [Eh]
	 SCS Total Energy          =    -274.7162365433543982 [Eh]
	-----------------------------------------------------------

  Dipole Moment: [D]
     X:    -0.0175      Y:    -0.0417      Z:     0.0338     Total:     0.0564

*** Psi4 exiting successfully. Buy a developer a beer!
