                               Psi4 1.3.2 release

  ==> Input File <==

--------------------------------------------------------------------------
#psi4
#
memory 32 gb

molecule  {
0 1
  C       -0.2796410    -0.2534110     0.2699600
  C        0.8273080    -1.2201790    -0.1568800
  C        0.2651040     1.0998010    -0.2107530
  C        2.1130990    -0.4802110     0.2221390
  C        1.8015910     1.0121590    -0.0461820
  C       -1.6656960    -0.6060100    -0.2573320
  C       -2.7543930     0.3665140     0.1916780
  H       -0.3152930    -0.2454590     1.3709960
  H        0.7753790    -1.3637350    -1.2449700
  H        0.7413790    -2.2073630     0.3107570
  H       -0.1666070     1.9492740     0.3275400
  H        0.0028850     1.2252210    -1.2696860
  H        2.9537282    -0.8146746    -0.3939565
  H        2.3206340    -0.6367720     1.2866620
  H        2.1525340     1.6409000     0.7779560
  H        2.3101060     1.3673950    -0.9478660
  H       -1.9261760    -1.6212110     0.0690670
  H       -1.6246980    -0.6344010    -1.3548090
  H       -2.7974460     0.4229520     1.2842010
  H       -2.5674970     1.3742840    -0.1894550
  H       -3.7390610     0.0514200    -0.1666910
units angstrom
no_reorient  #important for SAPT in psi4, default
symmetry c1  #important for SAPT in psi4, default
}

set PROPERTIES_ORIGIN ["COM"]
properties('MP2/aug-cc-pvtz', properties = ['dipole'])
--------------------------------------------------------------------------

    Molecular point group: c1
  Charge       = 0
  Multiplicity = 1
  Basis Set: AUG-CC-PVTZ
    Blend: AUG-CC-PVTZ
  Basis Set: (AUG-CC-PVTZ AUX)
    Blend: AUG-CC-PVTZ-JKFIT

    Orbital Energies [Eh]
    ---------------------

    Doubly Occupied:

       1A    -11.214667     2A    -11.213416     3A    -11.211825
       4A    -11.211263     5A    -11.209808     6A    -11.209188
       7A    -11.208625     8A     -1.124724     9A     -1.033936
      10A     -0.955925    11A     -0.939512    12A     -0.833476
      13A     -0.769301    14A     -0.751391    15A     -0.652183
      16A     -0.630617    17A     -0.605318    18A     -0.569655
      19A     -0.557638    20A     -0.551428    21A     -0.513125
      22A     -0.485029    23A     -0.471641    24A     -0.462178
      25A     -0.453819    26A     -0.445924    27A     -0.442019
      28A     -0.434946

  @DF-RHF Final Energy:  -273.32484693687559

   => Energetics <=

    Nuclear Repulsion Energy =            322.8384379947497678
    One-Electron Energy =               -1008.0014159887431333
    Two-Electron Energy =                 411.8381310571177210
    Total Energy =                       -273.3248469368755877
  Basis Set: (AUG-CC-PVTZ AUX)
    Blend: AUG-CC-PVTZ-RI
    Molecular point group: c1

    Geometry (in Angstrom), charge = 0, multiplicity = 1:

       Center              X                  Y                   Z               Mass
    ------------   -----------------  -----------------  -----------------  -----------------
         C           -0.297922799193    -0.248679148630     0.269855953004    12.000000000000
         C            0.809026200807    -1.215447148630    -0.156984046996    12.000000000000
         C            0.246822200807     1.104532851370    -0.210857046996    12.000000000000
         C            2.094817200807    -0.475479148630     0.222034953004    12.000000000000
         C            1.783309200807     1.016890851370    -0.046286046996    12.000000000000
         C           -1.683977799193    -0.601278148630    -0.257436046996    12.000000000000
         C           -2.772674799193     0.371245851370     0.191573953004    12.000000000000
         H           -0.333574799193    -0.240727148630     1.370891953004     1.007825032230
         H            0.757097200807    -1.359003148630    -1.245074046996     1.007825032230
         H            0.723097200807    -2.202631148630     0.310652953004     1.007825032230
         H           -0.184888799193     1.954005851370     0.327435953004     1.007825032230
         H           -0.015396799193     1.229952851370    -1.269790046996     1.007825032230
         H            2.935446400807    -0.809942748630    -0.394060546996     1.007825032230
         H            2.302352200807    -0.632040148630     1.286557953004     1.007825032230
         H            2.134252200807     1.645631851370     0.777851953004     1.007825032230
         H            2.291824200807     1.372126851370    -0.947970046996     1.007825032230
         H           -1.944457799193    -1.616479148630     0.068962953004     1.007825032230
         H           -1.642979799193    -0.629669148630    -1.354913046996     1.007825032230
         H           -2.815727799193     0.427683851370     1.284096953004     1.007825032230
         H           -2.585778799193     1.379015851370    -0.189559046996     1.007825032230
         H           -3.757342799193     0.056151851370    -0.166795046996     1.007825032230

  Basis Set: AUG-CC-PVTZ
    Blend: AUG-CC-PVTZ
  Basis Set: (AUG-CC-PVTZ AUX)
    Blend: AUG-CC-PVTZ-JKFIT
	 Reference Energy          =    -273.3248469368755877 [Eh]
	 Singles Energy            =      -0.0000000000000000 [Eh]
	 Same-Spin Energy          =      -0.2972043219399182 [Eh]
	 Opposite-Spin Energy      =      -1.0774455070664382 [Eh]
	 Correlation Energy        =      -1.3746498290063562 [Eh]
	 Total Energy              =    -274.6994967658819178 [Eh]

	 ================> DF-SCS-MP2 Energies <==================
	-----------------------------------------------------------
	 SCS Same-Spin Scale       =       0.3333333333333333 [-]
	 SCS Opposite-Spin Scale   =       1.2000000000000000 [-]
	 SCS Same-Spin Energy      =      -0.0990681073133061 [Eh]
	 SCS Opposite-Spin Energy  =      -1.2929346084797257 [Eh]
	 SCS Correlation Energy    =      -1.3920027157930317 [Eh]
	 SCS Total Energy          =    -274.7168496526685999 [Eh]
	-----------------------------------------------------------

  Dipole Moment: [D]
     X:    -0.0144      Y:    -0.0435      Z:     0.0383     Total:     0.0597

*** Psi4 exiting successfully. Buy a developer a beer!
