                               Psi4 1.3.2 release

  ==> Input File <==

--------------------------------------------------------------------------
#psi4
#
memory 32 gb

molecule  {
0 1
  C       -0.2815383    -0.2295605     0.2583275
  C        0.8273080    -1.2201790    -0.1568800
  C        0.2651040     1.0998010    -0.2107530
  C        2.1130990    -0.4802110     0.2221390
  C        1.8015910     1.0121590    -0.0461820
  C       -1.6656960    -0.6060100    -0.2573320
  C       -2.7543930     0.3665140     0.1916780
  H       -0.3152930    -0.2454590     1.3709960
  H        0.7753790    -1.3637350    -1.2449700
  H        0.7413790    -2.2073630     0.3107570
  H       -0.1666070     1.9492740     0.3275400
  H        0.0028850     1.2252210    -1.2696860
  H        2.9896260    -0.8344780    -0.3294880
  H        2.3206340    -0.6367720     1.2866620
  H        2.1525340     1.6409000     0.7779560
  H        2.3101060     1.3673950    -0.9478660
  H       -1.9261760    -1.6212110     0.0690670
  H       -1.6246980    -0.6344010    -1.3548090
  H       -2.7974460     0.4229520     1.2842010
  H       -2.5674970     1.3742840    -0.1894550
  H       -3.7390610     0.0514200    -0.1666910
units angstrom
no_reorient  #important for SAPT in psi4, default
symmetry c1  #important for SAPT in psi4, default
}

set PROPERTIES_ORIGIN ["COM"]
properties('MP2/aug-cc-pvtz', properties = ['dipole'])
--------------------------------------------------------------------------

    Molecular point group: c1
  Charge       = 0
  Multiplicity = 1
  Basis Set: AUG-CC-PVTZ
    Blend: AUG-CC-PVTZ
  Basis Set: (AUG-CC-PVTZ AUX)
    Blend: AUG-CC-PVTZ-JKFIT

    Orbital Energies [Eh]
    ---------------------

    Doubly Occupied:

       1A    -11.215451     2A    -11.213764     3A    -11.212418
       4A    -11.211383     5A    -11.209950     6A    -11.209662
       7A    -11.208524     8A     -1.125681     9A     -1.034080
      10A     -0.956259    11A     -0.940235    12A     -0.833763
      13A     -0.771475    14A     -0.749645    15A     -0.652843
      16A     -0.630912    17A     -0.604660    18A     -0.568769
      19A     -0.555358    20A     -0.552244    21A     -0.514090
      22A     -0.485339    23A     -0.472812    24A     -0.464843
      25A     -0.451366    26A     -0.447833    27A     -0.441589
      28A     -0.433828

  @DF-RHF Final Energy:  -273.32464092092891

   => Energetics <=

    Nuclear Repulsion Energy =            322.8982803974856211
    One-Electron Energy =               -1008.1082887846901031
    Two-Electron Energy =                 411.8853674662755111
    Total Energy =                       -273.3246409209289141
  Basis Set: (AUG-CC-PVTZ AUX)
    Blend: AUG-CC-PVTZ-RI
    Molecular point group: c1

    Geometry (in Angstrom), charge = 0, multiplicity = 1:

       Center              X                  Y                   Z               Mass
    ------------   -----------------  -----------------  -----------------  -----------------
         C           -0.299956794360    -0.227542427630     0.258984001101    12.000000000000
         C            0.808889505640    -1.218160927630    -0.156223498899    12.000000000000
         C            0.246685505640     1.101819072370    -0.210096498899    12.000000000000
         C            2.094680505640    -0.478192927630     0.222795501101    12.000000000000
         C            1.783172505640     1.014177072370    -0.045525498899    12.000000000000
         C           -1.684114494360    -0.603991927630    -0.256675498899    12.000000000000
         C           -2.772811494360     0.368532072370     0.192334501101    12.000000000000
         H           -0.333711494360    -0.243440927630     1.371652501101     1.007825032230
         H            0.756960505640    -1.361716927630    -1.244313498899     1.007825032230
         H            0.722960505640    -2.205344927630     0.311413501101     1.007825032230
         H           -0.185025494360     1.951292072370     0.328196501101     1.007825032230
         H           -0.015533494360     1.227239072370    -1.269029498899     1.007825032230
         H            2.971207505640    -0.832459927630    -0.328831498899     1.007825032230
         H            2.302215505640    -0.634753927630     1.287318501101     1.007825032230
         H            2.134115505640     1.642918072370     0.778612501101     1.007825032230
         H            2.291687505640     1.369413072370    -0.947209498899     1.007825032230
         H           -1.944594494360    -1.619192927630     0.069723501101     1.007825032230
         H           -1.643116494360    -0.632382927630    -1.354152498899     1.007825032230
         H           -2.815864494360     0.424970072370     1.284857501101     1.007825032230
         H           -2.585915494360     1.376302072370    -0.188798498899     1.007825032230
         H           -3.757479494360     0.053438072370    -0.166034498899     1.007825032230

  Basis Set: AUG-CC-PVTZ
    Blend: AUG-CC-PVTZ
  Basis Set: (AUG-CC-PVTZ AUX)
    Blend: AUG-CC-PVTZ-JKFIT
	 Reference Energy          =    -273.3246409209289141 [Eh]
	 Singles Energy            =      -0.0000000000000000 [Eh]
	 Same-Spin Energy          =      -0.2972563197228023 [Eh]
	 Opposite-Spin Energy      =      -1.0774112295741696 [Eh]
	 Correlation Energy        =      -1.3746675492969720 [Eh]
	 Total Energy              =    -274.6993084702259011 [Eh]

	 ================> DF-SCS-MP2 Energies <==================
	-----------------------------------------------------------
	 SCS Same-Spin Scale       =       0.3333333333333333 [-]
	 SCS Opposite-Spin Scale   =       1.2000000000000000 [-]
	 SCS Same-Spin Energy      =      -0.0990854399076008 [Eh]
	 SCS Opposite-Spin Energy  =      -1.2928934754890034 [Eh]
	 SCS Correlation Energy    =      -1.3919789153966042 [Eh]
	 SCS Total Energy          =    -274.7166198363254921 [Eh]
	-----------------------------------------------------------

  Dipole Moment: [D]
     X:    -0.0058      Y:    -0.0415      Z:     0.0428     Total:     0.0599

*** Psi4 exiting successfully. Buy a developer a beer!
