                               Psi4 1.3.2 release

  ==> Input File <==

--------------------------------------------------------------------------
#psi4
#
memory 32 gb

molecule  {
0 1
  C       -0.2796410    -0.2534110     0.2699600
  C        0.8273080    -1.2201790    -0.1568800
  C        0.2651040     1.0998010    -0.2107530
  C        2.1130990    -0.4802110     0.2221390
  C        1.8015910     1.0121590    -0.0461820
  C       -1.6656960    -0.6060100    -0.2573320
  C       -2.7543930     0.3665140     0.1916780
  H       -0.3152930    -0.2454590     1.3709960
  H        0.7753790    -1.3637350    -1.2449700
  H        0.7413790    -2.2073630     0.3107570
  H       -0.1666070     1.9492740     0.3275400
  H        0.0028850     1.2252210    -1.2696860
  H        3.0354168    -0.8609190    -0.2278481
  H        2.3206340    -0.6367720     1.2866620
  H        2.1525340     1.6409000     0.7779560
  H        2.3101060     1.3673950    -0.9478660
  H       -1.9261760    -1.6212110     0.0690670
  H       -1.6246980    -0.6344010    -1.3548090
  H       -2.7974460     0.4229520     1.2842010
  H       -2.5674970     1.3742840    -0.1894550
  H       -3.7390610     0.0514200    -0.1666910
units angstrom
no_reorient  #important for SAPT in psi4, default
symmetry c1  #important for SAPT in psi4, default
}

set PROPERTIES_ORIGIN ["COM"]
properties('MP2/aug-cc-pvtz', properties = ['dipole'])
--------------------------------------------------------------------------

    Molecular point group: c1
  Charge       = 0
  Multiplicity = 1
  Basis Set: AUG-CC-PVTZ
    Blend: AUG-CC-PVTZ
  Basis Set: (AUG-CC-PVTZ AUX)
    Blend: AUG-CC-PVTZ-JKFIT

    Orbital Energies [Eh]
    ---------------------

    Doubly Occupied:

       1A    -11.215319     2A    -11.213805     3A    -11.212760
       4A    -11.211484     5A    -11.210647     6A    -11.210344
       7A    -11.208951     8A     -1.124652     9A     -1.033853
      10A     -0.956215    11A     -0.939637    12A     -0.833861
      13A     -0.773611    14A     -0.751521    15A     -0.652323
      16A     -0.629325    17A     -0.603363    18A     -0.568870
      19A     -0.555522    20A     -0.551821    21A     -0.512921
      22A     -0.485180    23A     -0.473735    24A     -0.466729
      25A     -0.449464    26A     -0.445806    27A     -0.443159
      28A     -0.435162

  @DF-RHF Final Energy:  -273.32413863323302

   => Energetics <=

    Nuclear Repulsion Energy =            322.6826916235584690
    One-Electron Energy =               -1007.6735787371110291
    Two-Electron Energy =                 411.6667484803195975
    Total Energy =                       -273.3241386332330194
  Basis Set: (AUG-CC-PVTZ AUX)
    Blend: AUG-CC-PVTZ-RI
    Molecular point group: c1

    Geometry (in Angstrom), charge = 0, multiplicity = 1:

       Center              X                  Y                   Z               Mass
    ------------   -----------------  -----------------  -----------------  -----------------
         C           -0.298761940903    -0.248204105540     0.268149613480    12.000000000000
         C            0.808187059097    -1.214972105540    -0.158690386520    12.000000000000
         C            0.245983059097     1.105007894460    -0.212563386520    12.000000000000
         C            2.093978059097    -0.475004105540     0.220328613480    12.000000000000
         C            1.782470059097     1.017365894460    -0.047992386520    12.000000000000
         C           -1.684816940903    -0.600803105540    -0.259142386520    12.000000000000
         C           -2.773513940903     0.371720894460     0.189867613480    12.000000000000
         H           -0.334413940903    -0.240252105540     1.369185613480     1.007825032230
         H            0.756258059097    -1.358528105540    -1.246780386520     1.007825032230
         H            0.722258059097    -2.202156105540     0.308946613480     1.007825032230
         H           -0.185727940903     1.954480894460     0.325729613480     1.007825032230
         H           -0.016235940903     1.230427894460    -1.271496386520     1.007825032230
         H            3.016295859097    -0.855712105540    -0.229658486520     1.007825032230
         H            2.301513059097    -0.631565105540     1.284851613480     1.007825032230
         H            2.133413059097     1.646106894460     0.776145613480     1.007825032230
         H            2.290985059097     1.372601894460    -0.949676386520     1.007825032230
         H           -1.945296940903    -1.616004105540     0.067256613480     1.007825032230
         H           -1.643818940903    -0.629194105540    -1.356619386520     1.007825032230
         H           -2.816566940903     0.428158894460     1.282390613480     1.007825032230
         H           -2.586617940903     1.379490894460    -0.191265386520     1.007825032230
         H           -3.758181940903     0.056626894460    -0.168501386520     1.007825032230

  Basis Set: AUG-CC-PVTZ
    Blend: AUG-CC-PVTZ
  Basis Set: (AUG-CC-PVTZ AUX)
    Blend: AUG-CC-PVTZ-JKFIT
	 Reference Energy          =    -273.3241386332330194 [Eh]
	 Singles Energy            =      -0.0000000000000000 [Eh]
	 Same-Spin Energy          =      -0.2971909028213370 [Eh]
	 Opposite-Spin Energy      =      -1.0772287183557370 [Eh]
	 Correlation Energy        =      -1.3744196211770738 [Eh]
	 Total Energy              =    -274.6985582544101021 [Eh]

	 ================> DF-SCS-MP2 Energies <==================
	-----------------------------------------------------------
	 SCS Same-Spin Scale       =       0.3333333333333333 [-]
	 SCS Opposite-Spin Scale   =       1.2000000000000000 [-]
	 SCS Same-Spin Energy      =      -0.0990636342737790 [Eh]
	 SCS Opposite-Spin Energy  =      -1.2926744620268844 [Eh]
	 SCS Correlation Energy    =      -1.3917380963006634 [Eh]
	 SCS Total Energy          =    -274.7158767295337043 [Eh]
	-----------------------------------------------------------

  Dipole Moment: [D]
     X:    -0.0053      Y:    -0.0504      Z:     0.0752     Total:     0.0907

*** Psi4 exiting successfully. Buy a developer a beer!
