                               Psi4 1.3.2 release

  ==> Input File <==

--------------------------------------------------------------------------
#psi4
#
memory 32 gb

molecule  {
0 1
  C       -0.2796410    -0.2534110     0.2699600
  C        0.8458649    -1.2387465    -0.0533344
  C        0.2651040     1.0998010    -0.2107530
  C        2.1130990    -0.4802110     0.2221390
  C        1.8015910     1.0121590    -0.0461820
  C       -1.6656960    -0.6060100    -0.2573320
  C       -2.7543930     0.3665140     0.1916780
  H       -0.3152930    -0.2454590     1.3709960
  H        0.7753790    -1.3637350    -1.2449700
  H        0.7413790    -2.2073630     0.3107570
  H       -0.1666070     1.9492740     0.3275400
  H        0.0028850     1.2252210    -1.2696860
  H        2.9896260    -0.8344780    -0.3294880
  H        2.3206340    -0.6367720     1.2866620
  H        2.1525340     1.6409000     0.7779560
  H        2.3101060     1.3673950    -0.9478660
  H       -1.9261760    -1.6212110     0.0690670
  H       -1.6246980    -0.6344010    -1.3548090
  H       -2.7974460     0.4229520     1.2842010
  H       -2.5674970     1.3742840    -0.1894550
  H       -3.7390610     0.0514200    -0.1666910
units angstrom
no_reorient  #important for SAPT in psi4, default
symmetry c1  #important for SAPT in psi4, default
}

set PROPERTIES_ORIGIN ["COM"]
properties('MP2/aug-cc-pvtz', properties = ['dipole'])
--------------------------------------------------------------------------

    Molecular point group: c1
  Charge       = 0
  Multiplicity = 1
  Basis Set: AUG-CC-PVTZ
    Blend: AUG-CC-PVTZ
  Basis Set: (AUG-CC-PVTZ AUX)
    Blend: AUG-CC-PVTZ-JKFIT

    Orbital Energies [Eh]
    ---------------------

    Doubly Occupied:

       1A    -11.216104     2A    -11.214494     3A    -11.213618
       4A    -11.213548     5A    -11.211447     6A    -11.211284
       7A    -11.209328     8A     -1.126126     9A     -1.035278
      10A     -0.960307    11A     -0.940497    12A     -0.834204
      13A     -0.770274    14A     -0.751764    15A     -0.658496
      16A     -0.632012    17A     -0.604912    18A     -0.563588
      19A     -0.555702    20A     -0.550357    21A     -0.514992
      22A     -0.490611    23A     -0.483031    24A     -0.466549
      25A     -0.449747    26A     -0.441939    27A     -0.440808
      28A     -0.424760

  @DF-RHF Final Energy:  -273.31372025610835

   => Energetics <=

    Nuclear Repulsion Energy =            322.7292425727017076
    One-Electron Energy =               -1007.7143720818169186
    Two-Electron Energy =                 411.6714092530069138
    Total Energy =                       -273.3137202561083541
  Basis Set: (AUG-CC-PVTZ AUX)
    Blend: AUG-CC-PVTZ-RI
    Molecular point group: c1

    Geometry (in Angstrom), charge = 0, multiplicity = 1:

       Center              X                  Y                   Z               Mass
    ------------   -----------------  -----------------  -----------------  -----------------
         C           -0.300561293613    -0.246204686550     0.256528808378    12.000000000000
         C            0.824944606387    -1.231540186550    -0.066765591622    12.000000000000
         C            0.244183706387     1.107007313450    -0.224184191622    12.000000000000
         C            2.092178706387    -0.473004686550     0.208707808378    12.000000000000
         C            1.780670706387     1.019365313450    -0.059613191622    12.000000000000
         C           -1.686616293613    -0.598803686550    -0.270763191622    12.000000000000
         C           -2.775313293613     0.373720313450     0.178246808378    12.000000000000
         H           -0.336213293613    -0.238252686550     1.357564808378     1.007825032230
         H            0.754458706387    -1.356528686550    -1.258401191622     1.007825032230
         H            0.720458706387    -2.200156686550     0.297325808378     1.007825032230
         H           -0.187527293613     1.956480313450     0.314108808378     1.007825032230
         H           -0.018035293613     1.232427313450    -1.283117191622     1.007825032230
         H            2.968705706387    -0.827271686550    -0.342919191622     1.007825032230
         H            2.299713706387    -0.629565686550     1.273230808378     1.007825032230
         H            2.131613706387     1.648106313450     0.764524808378     1.007825032230
         H            2.289185706387     1.374601313450    -0.961297191622     1.007825032230
         H           -1.947096293613    -1.614004686550     0.055635808378     1.007825032230
         H           -1.645618293613    -0.627194686550    -1.368240191622     1.007825032230
         H           -2.818366293613     0.430158313450     1.270769808378     1.007825032230
         H           -2.588417293613     1.381490313450    -0.202886191622     1.007825032230
         H           -3.759981293613     0.058626313450    -0.180122191622     1.007825032230

  Basis Set: AUG-CC-PVTZ
    Blend: AUG-CC-PVTZ
  Basis Set: (AUG-CC-PVTZ AUX)
    Blend: AUG-CC-PVTZ-JKFIT
	 Reference Energy          =    -273.3137202561083541 [Eh]
	 Singles Energy            =      -0.0000000000000000 [Eh]
	 Same-Spin Energy          =      -0.2974623949926116 [Eh]
	 Opposite-Spin Energy      =      -1.0779869261356918 [Eh]
	 Correlation Energy        =      -1.3754493211283034 [Eh]
	 Total Energy              =    -274.6891695772366688 [Eh]

	 ================> DF-SCS-MP2 Energies <==================
	-----------------------------------------------------------
	 SCS Same-Spin Scale       =       0.3333333333333333 [-]
	 SCS Opposite-Spin Scale   =       1.2000000000000000 [-]
	 SCS Same-Spin Energy      =      -0.0991541316642039 [Eh]
	 SCS Opposite-Spin Energy  =      -1.2935843113628300 [Eh]
	 SCS Correlation Energy    =      -1.3927384430270340 [Eh]
	 SCS Total Energy          =    -274.7064586991353963 [Eh]
	-----------------------------------------------------------

  Dipole Moment: [D]
     X:    -0.0142      Y:    -0.0282      Z:     0.1411     Total:     0.1446

*** Psi4 exiting successfully. Buy a developer a beer!
