                               Psi4 1.3.2 release

  ==> Input File <==

--------------------------------------------------------------------------
#psi4
#
memory 32 gb

molecule  {
0 1
  C       -0.2424455    -0.3388233     0.2185679
  C        0.8273080    -1.2201790    -0.1568800
  C        0.2651040     1.0998010    -0.2107530
  C        2.1130990    -0.4802110     0.2221390
  C        1.8015910     1.0121590    -0.0461820
  C       -1.6656960    -0.6060100    -0.2573320
  C       -2.7543930     0.3665140     0.1916780
  H       -0.3152930    -0.2454590     1.3709960
  H        0.7753790    -1.3637350    -1.2449700
  H        0.7413790    -2.2073630     0.3107570
  H       -0.1666070     1.9492740     0.3275400
  H        0.0028850     1.2252210    -1.2696860
  H        2.9896260    -0.8344780    -0.3294880
  H        2.3206340    -0.6367720     1.2866620
  H        2.1525340     1.6409000     0.7779560
  H        2.3101060     1.3673950    -0.9478660
  H       -1.9261760    -1.6212110     0.0690670
  H       -1.6246980    -0.6344010    -1.3548090
  H       -2.7974460     0.4229520     1.2842010
  H       -2.5674970     1.3742840    -0.1894550
  H       -3.7390610     0.0514200    -0.1666910
units angstrom
no_reorient  #important for SAPT in psi4, default
symmetry c1  #important for SAPT in psi4, default
}

set PROPERTIES_ORIGIN ["COM"]
properties('MP2/aug-cc-pvtz', properties = ['dipole'])
--------------------------------------------------------------------------

    Molecular point group: c1
  Charge       = 0
  Multiplicity = 1
  Basis Set: AUG-CC-PVTZ
    Blend: AUG-CC-PVTZ
  Basis Set: (AUG-CC-PVTZ AUX)
    Blend: AUG-CC-PVTZ-JKFIT

    Orbital Energies [Eh]
    ---------------------

    Doubly Occupied:

       1A    -11.218474     2A    -11.214647     3A    -11.213307
       4A    -11.211759     5A    -11.211198     6A    -11.211180
       7A    -11.207258     8A     -1.131015     9A     -1.033673
      10A     -0.964776    11A     -0.937671    12A     -0.836556
      13A     -0.772322    14A     -0.745192    15A     -0.655565
      16A     -0.630431    17A     -0.604393    18A     -0.571639
      19A     -0.559813    20A     -0.550005    21A     -0.514188
      22A     -0.484488    23A     -0.480203    24A     -0.464737
      25A     -0.461470    26A     -0.449844    27A     -0.435456
      28A     -0.418188

  @DF-RHF Final Energy:  -273.31335669187052

   => Energetics <=

    Nuclear Repulsion Energy =            323.0802483085519157
    One-Electron Energy =               -1008.4083147387142390
    Two-Electron Energy =                 412.0147097382918560
    Total Energy =                       -273.3133566918705242
  Basis Set: (AUG-CC-PVTZ AUX)
    Blend: AUG-CC-PVTZ-RI
    Molecular point group: c1

    Geometry (in Angstrom), charge = 0, multiplicity = 1:

       Center              X                  Y                   Z               Mass
    ------------   -----------------  -----------------  -----------------  -----------------
         C           -0.265645522742    -0.323441048567     0.224087487292    12.000000000000
         C            0.804107977258    -1.204796748567    -0.151360412708    12.000000000000
         C            0.241903977258     1.115183251433    -0.205233412708    12.000000000000
         C            2.089898977258    -0.464828748567     0.227658587292    12.000000000000
         C            1.778390977258     1.027541251433    -0.040662412708    12.000000000000
         C           -1.688896022742    -0.590627748567    -0.251812412708    12.000000000000
         C           -2.777593022742     0.381896251433     0.197197587292    12.000000000000
         H           -0.338493022742    -0.230076748567     1.376515587292     1.007825032230
         H            0.752178977258    -1.348352748567    -1.239450412708     1.007825032230
         H            0.718178977258    -2.191980748567     0.316276587292     1.007825032230
         H           -0.189807022742     1.964656251433     0.333059587292     1.007825032230
         H           -0.020315022742     1.240603251433    -1.264166412708     1.007825032230
         H            2.966425977258    -0.819095748567    -0.323968412708     1.007825032230
         H            2.297433977258    -0.621389748567     1.292181587292     1.007825032230
         H            2.129333977258     1.656282251433     0.783475587292     1.007825032230
         H            2.286905977258     1.382777251433    -0.942346412708     1.007825032230
         H           -1.949376022742    -1.605828748567     0.074586587292     1.007825032230
         H           -1.647898022742    -0.619018748567    -1.349289412708     1.007825032230
         H           -2.820646022742     0.438334251433     1.289720587292     1.007825032230
         H           -2.590697022742     1.389666251433    -0.183935412708     1.007825032230
         H           -3.762261022742     0.066802251433    -0.161171412708     1.007825032230

  Basis Set: AUG-CC-PVTZ
    Blend: AUG-CC-PVTZ
  Basis Set: (AUG-CC-PVTZ AUX)
    Blend: AUG-CC-PVTZ-JKFIT
	 Reference Energy          =    -273.3133566918705242 [Eh]
	 Singles Energy            =      -0.0000000000000000 [Eh]
	 Same-Spin Energy          =      -0.2979275741523930 [Eh]
	 Opposite-Spin Energy      =      -1.0784328442669919 [Eh]
	 Correlation Energy        =      -1.3763604184193849 [Eh]
	 Total Energy              =    -274.6897171102899051 [Eh]

	 ================> DF-SCS-MP2 Energies <==================
	-----------------------------------------------------------
	 SCS Same-Spin Scale       =       0.3333333333333333 [-]
	 SCS Opposite-Spin Scale   =       1.2000000000000000 [-]
	 SCS Same-Spin Energy      =      -0.0993091913841310 [Eh]
	 SCS Opposite-Spin Energy  =      -1.2941194131203904 [Eh]
	 SCS Correlation Energy    =      -1.3934286045045214 [Eh]
	 SCS Total Energy          =    -274.7067852963750738 [Eh]
	-----------------------------------------------------------

  Dipole Moment: [D]
     X:    -0.0092      Y:    -0.0541      Z:     0.0259     Total:     0.0607

*** Psi4 exiting successfully. Buy a developer a beer!
