                               Psi4 1.3.2 release

  ==> Input File <==

--------------------------------------------------------------------------
#psi4
#
memory 32 gb

molecule  {
0 1
  C       -0.2630424    -0.2581991     0.3205083
  C        0.8273080    -1.2201790    -0.1568800
  C        0.2651040     1.0998010    -0.2107530
  C        2.1130990    -0.4802110     0.2221390
  C        1.8015910     1.0121590    -0.0461820
  C       -1.6656960    -0.6060100    -0.2573320
  C       -2.7543930     0.3665140     0.1916780
  H       -0.3152930    -0.2454590     1.3709960
  H        0.7753790    -1.3637350    -1.2449700
  H        0.7413790    -2.2073630     0.3107570
  H       -0.1666070     1.9492740     0.3275400
  H        0.0028850     1.2252210    -1.2696860
  H        2.9896260    -0.8344780    -0.3294880
  H        2.3206340    -0.6367720     1.2866620
  H        2.1525340     1.6409000     0.7779560
  H        2.3101060     1.3673950    -0.9478660
  H       -1.9261760    -1.6212110     0.0690670
  H       -1.6246980    -0.6344010    -1.3548090
  H       -2.7974460     0.4229520     1.2842010
  H       -2.5674970     1.3742840    -0.1894550
  H       -3.7390610     0.0514200    -0.1666910
units angstrom
no_reorient  #important for SAPT in psi4, default
symmetry c1  #important for SAPT in psi4, default
}

set PROPERTIES_ORIGIN ["COM"]
properties('MP2/aug-cc-pvtz', properties = ['dipole'])
--------------------------------------------------------------------------

    Molecular point group: c1
  Charge       = 0
  Multiplicity = 1
  Basis Set: AUG-CC-PVTZ
    Blend: AUG-CC-PVTZ
  Basis Set: (AUG-CC-PVTZ AUX)
    Blend: AUG-CC-PVTZ-JKFIT

    Orbital Energies [Eh]
    ---------------------

    Doubly Occupied:

       1A    -11.214222     2A    -11.212810     3A    -11.211325
       4A    -11.210810     5A    -11.210248     6A    -11.209440
       7A    -11.208049     8A     -1.122796     9A     -1.030501
      10A     -0.955354    11A     -0.938353    12A     -0.829907
      13A     -0.771568    14A     -0.757882    15A     -0.650620
      16A     -0.628174    17A     -0.603072    18A     -0.570053
      19A     -0.559690    20A     -0.550449    21A     -0.510113
      22A     -0.484726    23A     -0.471967    24A     -0.464258
      25A     -0.461496    26A     -0.447788    27A     -0.434035
      28A     -0.431981

  @DF-RHF Final Energy:  -273.32269737716501

   => Energetics <=

    Nuclear Repulsion Energy =            322.4631985504950080
    One-Electron Energy =               -1007.2684194506316544
    Two-Electron Energy =                 411.4825235229716327
    Total Energy =                       -273.3226973771650137
  Basis Set: (AUG-CC-PVTZ AUX)
    Blend: AUG-CC-PVTZ-RI
    Molecular point group: c1

    Geometry (in Angstrom), charge = 0, multiplicity = 1:

       Center              X                  Y                   Z               Mass
    ------------   -----------------  -----------------  -----------------  -----------------
         C           -0.283723169531    -0.252678175987     0.313559327459    12.000000000000
         C            0.806627230469    -1.214658075987    -0.163828972541    12.000000000000
         C            0.244423230469     1.105321924013    -0.217701972541    12.000000000000
         C            2.092418230469    -0.474690075987     0.215190027459    12.000000000000
         C            1.780910230469     1.017679924013    -0.053130972541    12.000000000000
         C           -1.686376769531    -0.600489075987    -0.264280972541    12.000000000000
         C           -2.775073769531     0.372034924013     0.184729027459    12.000000000000
         H           -0.335973769531    -0.239938075987     1.364047027459     1.007825032230
         H            0.754698230469    -1.358214075987    -1.251918972541     1.007825032230
         H            0.720698230469    -2.201842075987     0.303808027459     1.007825032230
         H           -0.187287769531     1.954794924013     0.320591027459     1.007825032230
         H           -0.017795769531     1.230741924013    -1.276634972541     1.007825032230
         H            2.968945230469    -0.828957075987    -0.336436972541     1.007825032230
         H            2.299953230469    -0.631251075987     1.279713027459     1.007825032230
         H            2.131853230469     1.646420924013     0.771007027459     1.007825032230
         H            2.289425230469     1.372915924013    -0.954814972541     1.007825032230
         H           -1.946856769531    -1.615690075987     0.062118027459     1.007825032230
         H           -1.645378769531    -0.628880075987    -1.361757972541     1.007825032230
         H           -2.818126769531     0.428472924013     1.277252027459     1.007825032230
         H           -2.588177769531     1.379804924013    -0.196403972541     1.007825032230
         H           -3.759741769531     0.056940924013    -0.173639972541     1.007825032230

  Basis Set: AUG-CC-PVTZ
    Blend: AUG-CC-PVTZ
  Basis Set: (AUG-CC-PVTZ AUX)
    Blend: AUG-CC-PVTZ-JKFIT
	 Reference Energy          =    -273.3226973771650137 [Eh]
	 Singles Energy            =      -0.0000000000000000 [Eh]
	 Same-Spin Energy          =      -0.2969503430885846 [Eh]
	 Opposite-Spin Energy      =      -1.0771939738294176 [Eh]
	 Correlation Energy        =      -1.3741443169180023 [Eh]
	 Total Energy              =    -274.6968416940829911 [Eh]

	 ================> DF-SCS-MP2 Energies <==================
	-----------------------------------------------------------
	 SCS Same-Spin Scale       =       0.3333333333333333 [-]
	 SCS Opposite-Spin Scale   =       1.2000000000000000 [-]
	 SCS Same-Spin Energy      =      -0.0989834476961949 [Eh]
	 SCS Opposite-Spin Energy  =      -1.2926327685953012 [Eh]
	 SCS Correlation Energy    =      -1.3916162162914960 [Eh]
	 SCS Total Energy          =    -274.7143135934564953 [Eh]
	-----------------------------------------------------------

  Dipole Moment: [D]
     X:    -0.0096      Y:    -0.0523      Z:     0.0711     Total:     0.0887

*** Psi4 exiting successfully. Buy a developer a beer!
