                               Psi4 1.3.2 release

  ==> Input File <==

--------------------------------------------------------------------------
#psi4
#
memory 32 gb

molecule  {
0 1
  C       -0.2796410    -0.2534110     0.2699600
  C        0.7657530    -1.0769047    -0.1938924
  C        0.2651040     1.0998010    -0.2107530
  C        2.1130990    -0.4802110     0.2221390
  C        1.8015910     1.0121590    -0.0461820
  C       -1.6656960    -0.6060100    -0.2573320
  C       -2.7543930     0.3665140     0.1916780
  H       -0.3152930    -0.2454590     1.3709960
  H        0.7753790    -1.3637350    -1.2449700
  H        0.7413790    -2.2073630     0.3107570
  H       -0.1666070     1.9492740     0.3275400
  H        0.0028850     1.2252210    -1.2696860
  H        2.9896260    -0.8344780    -0.3294880
  H        2.3206340    -0.6367720     1.2866620
  H        2.1525340     1.6409000     0.7779560
  H        2.3101060     1.3673950    -0.9478660
  H       -1.9261760    -1.6212110     0.0690670
  H       -1.6246980    -0.6344010    -1.3548090
  H       -2.7974460     0.4229520     1.2842010
  H       -2.5674970     1.3742840    -0.1894550
  H       -3.7390610     0.0514200    -0.1666910
units angstrom
no_reorient  #important for SAPT in psi4, default
symmetry c1  #important for SAPT in psi4, default
}

set PROPERTIES_ORIGIN ["COM"]
properties('MP2/aug-cc-pvtz', properties = ['dipole'])
--------------------------------------------------------------------------

    Molecular point group: c1
  Charge       = 0
  Multiplicity = 1
  Basis Set: AUG-CC-PVTZ
    Blend: AUG-CC-PVTZ
  Basis Set: (AUG-CC-PVTZ AUX)
    Blend: AUG-CC-PVTZ-JKFIT

    Orbital Energies [Eh]
    ---------------------

    Doubly Occupied:

       1A    -11.217116     2A    -11.215741     3A    -11.212845
       4A    -11.211316     5A    -11.210776     6A    -11.210012
       7A    -11.209820     8A     -1.144309     9A     -1.036769
      10A     -0.957264    11A     -0.944631    12A     -0.835017
      13A     -0.769895    14A     -0.757357    15A     -0.648430
      16A     -0.637768    17A     -0.606421    18A     -0.578378
      19A     -0.560588    20A     -0.552524    21A     -0.514092
      22A     -0.486291    23A     -0.473638    24A     -0.470041
      25A     -0.449330    26A     -0.447833    27A     -0.439553
      28A     -0.419236

  @DF-RHF Final Energy:  -273.29724790955788

   => Energetics <=

    Nuclear Repulsion Energy =            325.1145848075167351
    One-Electron Energy =               -1012.3896811037005818
    Two-Electron Energy =                 413.9778483866259648
    Total Energy =                       -273.2972479095578819
  Basis Set: (AUG-CC-PVTZ AUX)
    Blend: AUG-CC-PVTZ-RI
    Molecular point group: c1

    Geometry (in Angstrom), charge = 0, multiplicity = 1:

       Center              X                  Y                   Z               Mass
    ------------   -----------------  -----------------  -----------------  -----------------
         C           -0.290762626760    -0.265999921479     0.273720773810    12.000000000000
         C            0.754631373240    -1.089493621479    -0.190131626190    12.000000000000
         C            0.253982373240     1.087212078521    -0.206992226190    12.000000000000
         C            2.101977373240    -0.492799921479     0.225899773810    12.000000000000
         C            1.790469373240     0.999570078521    -0.042421226190    12.000000000000
         C           -1.676817626760    -0.618598921479    -0.253571226190    12.000000000000
         C           -2.765514626760     0.353925078521     0.195438773810    12.000000000000
         H           -0.326414626760    -0.258047921479     1.374756773810     1.007825032230
         H            0.764257373240    -1.376323921479    -1.241209226190     1.007825032230
         H            0.730257373240    -2.219951921479     0.314517773810     1.007825032230
         H           -0.177728626760     1.936685078521     0.331300773810     1.007825032230
         H           -0.008236626760     1.212632078521    -1.265925226190     1.007825032230
         H            2.978504373240    -0.847066921479    -0.325727226190     1.007825032230
         H            2.309512373240    -0.649360921479     1.290422773810     1.007825032230
         H            2.141412373240     1.628311078521     0.781716773810     1.007825032230
         H            2.298984373240     1.354806078521    -0.944105226190     1.007825032230
         H           -1.937297626760    -1.633799921479     0.072827773810     1.007825032230
         H           -1.635819626760    -0.646989921479    -1.351048226190     1.007825032230
         H           -2.808567626760     0.410363078521     1.287961773810     1.007825032230
         H           -2.578618626760     1.361695078521    -0.185694226190     1.007825032230
         H           -3.750182626760     0.038831078521    -0.162930226190     1.007825032230

  Basis Set: AUG-CC-PVTZ
    Blend: AUG-CC-PVTZ
  Basis Set: (AUG-CC-PVTZ AUX)
    Blend: AUG-CC-PVTZ-JKFIT
	 Reference Energy          =    -273.2972479095578819 [Eh]
	 Singles Energy            =      -0.0000000000000000 [Eh]
	 Same-Spin Energy          =      -0.2989069877553871 [Eh]
	 Opposite-Spin Energy      =      -1.0795810786485542 [Eh]
	 Correlation Energy        =      -1.3784880664039414 [Eh]
	 Total Energy              =    -274.6757359759617998 [Eh]

	 ================> DF-SCS-MP2 Energies <==================
	-----------------------------------------------------------
	 SCS Same-Spin Scale       =       0.3333333333333333 [-]
	 SCS Opposite-Spin Scale   =       1.2000000000000000 [-]
	 SCS Same-Spin Energy      =      -0.0996356625851290 [Eh]
	 SCS Opposite-Spin Energy  =      -1.2954972943782650 [Eh]
	 SCS Correlation Energy    =      -1.3951329569633941 [Eh]
	 SCS Total Energy          =    -274.6923808665212619 [Eh]
	-----------------------------------------------------------

  Dipole Moment: [D]
     X:    -0.0187      Y:     0.0722      Z:    -0.0128     Total:     0.0757

*** Psi4 exiting successfully. Buy a developer a beer!
