                               Psi4 1.4a3.dev225

  ==> Input File <==

--------------------------------------------------------------------------
#psi4
#
memory 32 gb

molecule  {
0 1
  C       -0.2796410    -0.2534110     0.2699600
  C        0.8273080    -1.2201790    -0.1568800
  C        0.2651040     1.0998010    -0.2107530
  C        2.1130990    -0.4802110     0.2221390
  C        1.8015910     1.0121590    -0.0461820
  C       -1.6656960    -0.6060100    -0.2573320
  C       -2.7543930     0.3665140     0.1916780
  H       -0.3136749    -0.2458199     1.3210235
  H        0.7753790    -1.3637350    -1.2449700
  H        0.7413790    -2.2073630     0.3107570
  H       -0.1666070     1.9492740     0.3275400
  H        0.0028850     1.2252210    -1.2696860
  H        2.9896260    -0.8344780    -0.3294880
  H        2.3206340    -0.6367720     1.2866620
  H        2.1525340     1.6409000     0.7779560
  H        2.3101060     1.3673950    -0.9478660
  H       -1.9261760    -1.6212110     0.0690670
  H       -1.6246980    -0.6344010    -1.3548090
  H       -2.7974460     0.4229520     1.2842010
  H       -2.5674970     1.3742840    -0.1894550
  H       -3.7390610     0.0514200    -0.1666910
units angstrom
no_reorient  #important for SAPT in psi4, default
symmetry c1  #important for SAPT in psi4, default
}

set PROPERTIES_ORIGIN ["COM"]
properties('MP2/aug-cc-pvtz', properties = ['dipole'])
--------------------------------------------------------------------------

    Molecular point group: c1
  Charge       = 0
  Multiplicity = 1
  Basis Set: AUG-CC-PVTZ
    Blend: AUG-CC-PVTZ
  Basis Set: (AUG-CC-PVTZ AUX)
    Blend: AUG-CC-PVTZ-JKFIT

    Orbital Energies [Eh]
    ---------------------

    Doubly Occupied:

       1A    -11.213098     2A    -11.211950     3A    -11.211324
       4A    -11.209697     5A    -11.209210     6A    -11.208725
       7A    -11.208122     8A     -1.125510     9A     -1.033950
      10A     -0.955763    11A     -0.940614    12A     -0.833338
      13A     -0.771948    14A     -0.756610    15A     -0.652496
      16A     -0.629937    17A     -0.604685    18A     -0.568916
      19A     -0.559106    20A     -0.552070    21A     -0.512767
      22A     -0.484962    23A     -0.471971    24A     -0.464217
      25A     -0.453812    26A     -0.446765    27A     -0.443220
      28A     -0.434970

  @DF-RHF Final Energy:  -273.32460882124610

   => Energetics <=

    Nuclear Repulsion Energy =            323.0299095131128979
    One-Electron Energy =               -1008.3695353385519411
    Two-Electron Energy =                 412.0150170041929414
    Total Energy =                       -273.3246088212461018
  Basis Set: (AUG-CC-PVTZ AUX)
    Blend: AUG-CC-PVTZ-RI
    Molecular point group: c1

    Geometry (in Angstrom), charge = 0, multiplicity = 1:

       Center              X                  Y                   Z               Mass
    ------------   -----------------  -----------------  -----------------  -----------------
         C           -0.298308179239    -0.248472011952     0.269707043631    12.000000000000
         C            0.808640820761    -1.215240011952    -0.157132956369    12.000000000000
         C            0.246436820761     1.104739988048    -0.211005956369    12.000000000000
         C            2.094431820761    -0.475272011952     0.221886043631    12.000000000000
         C            1.782923820761     1.017097988048    -0.046434956369    12.000000000000
         C           -1.684363179239    -0.601071011952    -0.257584956369    12.000000000000
         C           -2.773060179239     0.371452988048     0.191425043631    12.000000000000
         H           -0.332342079239    -0.240880911952     1.320770543631     1.007825032230
         H            0.756711820761    -1.358796011952    -1.245222956369     1.007825032230
         H            0.722711820761    -2.202424011952     0.310504043631     1.007825032230
         H           -0.185274179239     1.954212988048     0.327287043631     1.007825032230
         H           -0.015782179239     1.230159988048    -1.269938956369     1.007825032230
         H            2.970958820761    -0.829539011952    -0.329740956369     1.007825032230
         H            2.301966820761    -0.631833011952     1.286409043631     1.007825032230
         H            2.133866820761     1.645838988048     0.777703043631     1.007825032230
         H            2.291438820761     1.372333988048    -0.948118956369     1.007825032230
         H           -1.944843179239    -1.616272011952     0.068814043631     1.007825032230
         H           -1.643365179239    -0.629462011952    -1.355061956369     1.007825032230
         H           -2.816113179239     0.427890988048     1.283948043631     1.007825032230
         H           -2.586164179239     1.379222988048    -0.189707956369     1.007825032230
         H           -3.757728179239     0.056358988048    -0.166943956369     1.007825032230

  Basis Set: AUG-CC-PVTZ
    Blend: AUG-CC-PVTZ
  Basis Set: (AUG-CC-PVTZ AUX)
    Blend: AUG-CC-PVTZ-JKFIT
	 Reference Energy          =    -273.3246088212461018 [Eh]
	 Singles Energy            =      -0.0000000000000000 [Eh]
	 Same-Spin Energy          =      -0.2971240490349669 [Eh]
	 Opposite-Spin Energy      =      -1.0769858058531399 [Eh]
	 Correlation Energy        =      -1.3741098548881068 [Eh]
	 Total Energy              =    -274.6987186761342059 [Eh]

	 ================> DF-SCS-MP2 Energies <==================
	-----------------------------------------------------------
	 SCS Same-Spin Scale       =       0.3333333333333333 [-]
	 SCS Opposite-Spin Scale   =       1.2000000000000000 [-]
	 SCS Same-Spin Energy      =      -0.0990413496783223 [Eh]
	 SCS Opposite-Spin Energy  =      -1.2923829670237679 [Eh]
	 SCS Correlation Energy    =      -1.3914243167020901 [Eh]
	 SCS Total Energy          =    -274.7160331379482159 [Eh]
	-----------------------------------------------------------

  Dipole Moment: [D]
     X:    -0.0112      Y:    -0.0465      Z:     0.0877     Total:     0.0999

*** Psi4 exiting successfully. Buy a developer a beer!
