                               Psi4 1.3.2 release

  ==> Input File <==

--------------------------------------------------------------------------
#psi4
#
memory 32 gb

molecule  {
0 1
  C       -0.2796410    -0.2534110     0.2699600
  C        0.8273080    -1.2201790    -0.1568800
  C        0.2651040     1.0998010    -0.2107530
  C        2.1130990    -0.4802110     0.2221390
  C        1.8015910     1.0121590    -0.0461820
  C       -1.6656960    -0.6060100    -0.2573320
  C       -2.7543930     0.3665140     0.1916780
  H       -0.3152930    -0.2454590     1.3709960
  H        0.7753790    -1.3637350    -1.2449700
  H        0.7413790    -2.2073630     0.3107570
  H       -0.1666070     1.9492740     0.3275400
  H        0.0028850     1.2252210    -1.2696860
  H        2.9810454    -0.8296853    -0.3458696
  H        2.3206340    -0.6367720     1.2866620
  H        2.1525340     1.6409000     0.7779560
  H        2.3101060     1.3673950    -0.9478660
  H       -1.9261760    -1.6212110     0.0690670
  H       -1.6246980    -0.6344010    -1.3548090
  H       -2.7974460     0.4229520     1.2842010
  H       -2.5674970     1.3742840    -0.1894550
  H       -3.7390610     0.0514200    -0.1666910
units angstrom
no_reorient  #important for SAPT in psi4, default
symmetry c1  #important for SAPT in psi4, default
}

set PROPERTIES_ORIGIN ["COM"]
properties('MP2/aug-cc-pvtz', properties = ['dipole'])
--------------------------------------------------------------------------

    Molecular point group: c1
  Charge       = 0
  Multiplicity = 1
  Basis Set: AUG-CC-PVTZ
    Blend: AUG-CC-PVTZ
  Basis Set: (AUG-CC-PVTZ AUX)
    Blend: AUG-CC-PVTZ-JKFIT

    Orbital Energies [Eh]
    ---------------------

    Doubly Occupied:

       1A    -11.214870     2A    -11.213539     3A    -11.212000
       4A    -11.211407     5A    -11.210056     6A    -11.209517
       7A    -11.208724     8A     -1.124675     9A     -1.033888
      10A     -0.955991    11A     -0.939506    12A     -0.833584
      13A     -0.770496    14A     -0.751428    15A     -0.652042
      16A     -0.630241    17A     -0.604710    18A     -0.569218
      19A     -0.556722    20A     -0.552069    21A     -0.513062
      22A     -0.485080    23A     -0.472017    24A     -0.463762
      25A     -0.452460    26A     -0.445939    27A     -0.442564
      28A     -0.435371

  @DF-RHF Final Energy:  -273.32541576995425

   => Energetics <=

    Nuclear Repulsion Energy =            322.7862536513128475
    One-Electron Energy =               -1007.8934597855990205
    Two-Electron Energy =                 411.7817903643318687
    Total Energy =                       -273.3254157699542475
  Basis Set: (AUG-CC-PVTZ AUX)
    Blend: AUG-CC-PVTZ-RI
    Molecular point group: c1

    Geometry (in Angstrom), charge = 0, multiplicity = 1:

       Center              X                  Y                   Z               Mass
    ------------   -----------------  -----------------  -----------------  -----------------
         C           -0.298203413647    -0.248524952029     0.269361982933    12.000000000000
         C            0.808745586353    -1.215292952029    -0.157478017067    12.000000000000
         C            0.246541586353     1.104687047971    -0.211351017067    12.000000000000
         C            2.094536586353    -0.475324952029     0.221540982933    12.000000000000
         C            1.783028586353     1.017045047971    -0.046780017067    12.000000000000
         C           -1.684258413647    -0.601123952029    -0.257930017067    12.000000000000
         C           -2.772955413647     0.371400047971     0.191079982933    12.000000000000
         H           -0.333855413647    -0.240572952029     1.370397982933     1.007825032230
         H            0.756816586353    -1.358848952029    -1.245568017067     1.007825032230
         H            0.722816586353    -2.202476952029     0.310158982933     1.007825032230
         H           -0.185169413647     1.954160047971     0.326941982933     1.007825032230
         H           -0.015677413647     1.230107047971    -1.270284017067     1.007825032230
         H            2.962482986353    -0.824799252029    -0.346467617067     1.007825032230
         H            2.302071586353    -0.631885952029     1.286063982933     1.007825032230
         H            2.133971586353     1.645786047971     0.777357982933     1.007825032230
         H            2.291543586353     1.372281047971    -0.948464017067     1.007825032230
         H           -1.944738413647    -1.616324952029     0.068468982933     1.007825032230
         H           -1.643260413647    -0.629514952029    -1.355407017067     1.007825032230
         H           -2.816008413647     0.427838047971     1.283602982933     1.007825032230
         H           -2.586059413647     1.379170047971    -0.190053017067     1.007825032230
         H           -3.757623413647     0.056306047971    -0.167289017067     1.007825032230

  Basis Set: AUG-CC-PVTZ
    Blend: AUG-CC-PVTZ
  Basis Set: (AUG-CC-PVTZ AUX)
    Blend: AUG-CC-PVTZ-JKFIT
	 Reference Energy          =    -273.3254157699542475 [Eh]
	 Singles Energy            =      -0.0000000000000000 [Eh]
	 Same-Spin Energy          =      -0.2971631786679831 [Eh]
	 Opposite-Spin Energy      =      -1.0773253917959713 [Eh]
	 Correlation Energy        =      -1.3744885704639545 [Eh]
	 Total Energy              =    -274.6999043404181862 [Eh]

	 ================> DF-SCS-MP2 Energies <==================
	-----------------------------------------------------------
	 SCS Same-Spin Scale       =       0.3333333333333333 [-]
	 SCS Opposite-Spin Scale   =       1.2000000000000000 [-]
	 SCS Same-Spin Energy      =      -0.0990543928893277 [Eh]
	 SCS Opposite-Spin Energy  =      -1.2927904701551656 [Eh]
	 SCS Correlation Energy    =      -1.3918448630444933 [Eh]
	 SCS Total Energy          =    -274.7172606329987161 [Eh]
	-----------------------------------------------------------

  Dipole Moment: [D]
     X:    -0.0107      Y:    -0.0458      Z:     0.0468     Total:     0.0664

*** Psi4 exiting successfully. Buy a developer a beer!
