                               Psi4 1.3.2 release

  ==> Input File <==

--------------------------------------------------------------------------
#psi4
#
memory 32 gb

molecule  {
0 1
  C       -0.2973334    -0.1121718     0.1978812
  C        0.8273080    -1.2201790    -0.1568800
  C        0.2651040     1.0998010    -0.2107530
  C        2.1130990    -0.4802110     0.2221390
  C        1.8015910     1.0121590    -0.0461820
  C       -1.6656960    -0.6060100    -0.2573320
  C       -2.7543930     0.3665140     0.1916780
  H       -0.3152930    -0.2454590     1.3709960
  H        0.7753790    -1.3637350    -1.2449700
  H        0.7413790    -2.2073630     0.3107570
  H       -0.1666070     1.9492740     0.3275400
  H        0.0028850     1.2252210    -1.2696860
  H        2.9896260    -0.8344780    -0.3294880
  H        2.3206340    -0.6367720     1.2866620
  H        2.1525340     1.6409000     0.7779560
  H        2.3101060     1.3673950    -0.9478660
  H       -1.9261760    -1.6212110     0.0690670
  H       -1.6246980    -0.6344010    -1.3548090
  H       -2.7974460     0.4229520     1.2842010
  H       -2.5674970     1.3742840    -0.1894550
  H       -3.7390610     0.0514200    -0.1666910
units angstrom
no_reorient  #important for SAPT in psi4, default
symmetry c1  #important for SAPT in psi4, default
}

set PROPERTIES_ORIGIN ["COM"]
properties('MP2/aug-cc-pvtz', properties = ['dipole'])
--------------------------------------------------------------------------

    Molecular point group: c1
  Charge       = 0
  Multiplicity = 1
  Basis Set: AUG-CC-PVTZ
    Blend: AUG-CC-PVTZ
  Basis Set: (AUG-CC-PVTZ AUX)
    Blend: AUG-CC-PVTZ-JKFIT

    Orbital Energies [Eh]
    ---------------------

    Doubly Occupied:

       1A    -11.220523     2A    -11.216158     3A    -11.214851
       4A    -11.212279     5A    -11.210846     6A    -11.207659
       7A    -11.206610     8A     -1.133581     9A     -1.035776
      10A     -0.966013    11A     -0.937728    12A     -0.835703
      13A     -0.774937    14A     -0.740100    15A     -0.657020
      16A     -0.636500    17A     -0.605271    18A     -0.569451
      19A     -0.553747    20A     -0.550108    21A     -0.522407
      22A     -0.490875    23A     -0.480476    24A     -0.469585
      25A     -0.462549    26A     -0.451372    27A     -0.426453
      28A     -0.404255

  @DF-RHF Final Energy:  -273.29844107911589

   => Energetics <=

    Nuclear Repulsion Energy =            323.5070068656839339
    One-Electron Energy =               -1009.2252326058141989
    Two-Electron Energy =                 412.4197846610143756
    Total Energy =                       -273.2984410791158894
  Basis Set: (AUG-CC-PVTZ AUX)
    Blend: AUG-CC-PVTZ-RI
    Molecular point group: c1

    Geometry (in Angstrom), charge = 0, multiplicity = 1:

       Center              X                  Y                   Z               Mass
    ------------   -----------------  -----------------  -----------------  -----------------
         C           -0.313819960118    -0.124511803817     0.205931024143    12.000000000000
         C            0.810821439882    -1.232519003817    -0.148830175857    12.000000000000
         C            0.248617439882     1.087460996183    -0.202703175857    12.000000000000
         C            2.096612439882    -0.492551003817     0.230188824143    12.000000000000
         C            1.785104439882     0.999818996183    -0.038132175857    12.000000000000
         C           -1.682182560118    -0.618350003817    -0.249282175857    12.000000000000
         C           -2.770879560118     0.354173996183     0.199727824143    12.000000000000
         H           -0.331779560118    -0.257799003817     1.379045824143     1.007825032230
         H            0.758892439882    -1.376075003817    -1.236920175857     1.007825032230
         H            0.724892439882    -2.219703003817     0.318806824143     1.007825032230
         H           -0.183093560118     1.936933996183     0.335589824143     1.007825032230
         H           -0.013601560118     1.212880996183    -1.261636175857     1.007825032230
         H            2.973139439882    -0.846818003817    -0.321438175857     1.007825032230
         H            2.304147439882    -0.649112003817     1.294711824143     1.007825032230
         H            2.136047439882     1.628559996183     0.786005824143     1.007825032230
         H            2.293619439882     1.355054996183    -0.939816175857     1.007825032230
         H           -1.942662560118    -1.633551003817     0.077116824143     1.007825032230
         H           -1.641184560118    -0.646741003817    -1.346759175857     1.007825032230
         H           -2.813932560118     0.410611996183     1.292250824143     1.007825032230
         H           -2.583983560118     1.361943996183    -0.181405175857     1.007825032230
         H           -3.755547560118     0.039079996183    -0.158641175857     1.007825032230

  Basis Set: AUG-CC-PVTZ
    Blend: AUG-CC-PVTZ
  Basis Set: (AUG-CC-PVTZ AUX)
    Blend: AUG-CC-PVTZ-JKFIT
	 Reference Energy          =    -273.2984410791158894 [Eh]
	 Singles Energy            =      -0.0000000000000000 [Eh]
	 Same-Spin Energy          =      -0.2986955532753318 [Eh]
	 Opposite-Spin Energy      =      -1.0796840751332901 [Eh]
	 Correlation Energy        =      -1.3783796284086218 [Eh]
	 Total Energy              =    -274.6768207075244845 [Eh]

	 ================> DF-SCS-MP2 Energies <==================
	-----------------------------------------------------------
	 SCS Same-Spin Scale       =       0.3333333333333333 [-]
	 SCS Opposite-Spin Scale   =       1.2000000000000000 [-]
	 SCS Same-Spin Energy      =      -0.0995651844251106 [Eh]
	 SCS Opposite-Spin Energy  =      -1.2956208901599482 [Eh]
	 SCS Correlation Energy    =      -1.3951860745850588 [Eh]
	 SCS Total Energy          =    -274.6936271537009588 [Eh]
	-----------------------------------------------------------

  Dipole Moment: [D]
     X:     0.0120      Y:    -0.0138      Z:    -0.0119     Total:     0.0218

*** Psi4 exiting successfully. Buy a developer a beer!
