                               Psi4 1.3.2 release

  ==> Input File <==

--------------------------------------------------------------------------
#psi4
#
memory 32 gb

molecule  {
0 1
  C       -0.2796410    -0.2534110     0.2699600
  C        0.8092584    -1.2345210    -0.1703695
  C        0.2651040     1.0998010    -0.2107530
  C        2.1130990    -0.4802110     0.2221390
  C        1.8015910     1.0121590    -0.0461820
  C       -1.6656960    -0.6060100    -0.2573320
  C       -2.7543930     0.3665140     0.1916780
  H       -0.3152930    -0.2454590     1.3709960
  H        0.7753790    -1.3637350    -1.2449700
  H        0.7413790    -2.2073630     0.3107570
  H       -0.1666070     1.9492740     0.3275400
  H        0.0028850     1.2252210    -1.2696860
  H        2.9896260    -0.8344780    -0.3294880
  H        2.3206340    -0.6367720     1.2866620
  H        2.1525340     1.6409000     0.7779560
  H        2.3101060     1.3673950    -0.9478660
  H       -1.9261760    -1.6212110     0.0690670
  H       -1.6246980    -0.6344010    -1.3548090
  H       -2.7974460     0.4229520     1.2842010
  H       -2.5674970     1.3742840    -0.1894550
  H       -3.7390610     0.0514200    -0.1666910
units angstrom
no_reorient  #important for SAPT in psi4, default
symmetry c1  #important for SAPT in psi4, default
}

set PROPERTIES_ORIGIN ["COM"]
properties('MP2/aug-cc-pvtz', properties = ['dipole'])
--------------------------------------------------------------------------

    Molecular point group: c1
  Charge       = 0
  Multiplicity = 1
  Basis Set: AUG-CC-PVTZ
    Blend: AUG-CC-PVTZ
  Basis Set: (AUG-CC-PVTZ AUX)
    Blend: AUG-CC-PVTZ-JKFIT

    Orbital Energies [Eh]
    ---------------------

    Doubly Occupied:

       1A    -11.215016     2A    -11.213125     3A    -11.212521
       4A    -11.211713     5A    -11.210251     6A    -11.208757
       7A    -11.208382     8A     -1.122886     9A     -1.032786
      10A     -0.955448    11A     -0.938684    12A     -0.833518
      13A     -0.772502    14A     -0.751082    15A     -0.652173
      16A     -0.628666    17A     -0.604082    18A     -0.570531
      19A     -0.556517    20A     -0.551453    21A     -0.513081
      22A     -0.485780    23A     -0.471038    24A     -0.464791
      25A     -0.454512    26A     -0.445743    27A     -0.440868
      28A     -0.433725

  @DF-RHF Final Energy:  -273.32500155509513

   => Energetics <=

    Nuclear Repulsion Energy =            322.5548305450238331
    One-Electron Energy =               -1007.4403990705259275
    Two-Electron Energy =                 411.5605669704069669
    Total Energy =                       -273.3250015550951275
  Basis Set: (AUG-CC-PVTZ AUX)
    Blend: AUG-CC-PVTZ-RI
    Molecular point group: c1

    Geometry (in Angstrom), charge = 0, multiplicity = 1:

       Center              X                  Y                   Z               Mass
    ------------   -----------------  -----------------  -----------------  -----------------
         C           -0.296083870182    -0.246721516968     0.270843634952    12.000000000000
         C            0.792815529818    -1.227831516968    -0.169485865048    12.000000000000
         C            0.248661129818     1.106490483032    -0.209869365048    12.000000000000
         C            2.096656129818    -0.473521516968     0.223022634952    12.000000000000
         C            1.785148129818     1.018848483032    -0.045298365048    12.000000000000
         C           -1.682138870182    -0.599320516968    -0.256448365048    12.000000000000
         C           -2.770835870182     0.373203483032     0.192561634952    12.000000000000
         H           -0.331735870182    -0.238769516968     1.371879634952     1.007825032230
         H            0.758936129818    -1.357045516968    -1.244086365048     1.007825032230
         H            0.724936129818    -2.200673516968     0.311640634952     1.007825032230
         H           -0.183049870182     1.955963483032     0.328423634952     1.007825032230
         H           -0.013557870182     1.231910483032    -1.268802365048     1.007825032230
         H            2.973183129818    -0.827788516968    -0.328604365048     1.007825032230
         H            2.304191129818    -0.630082516968     1.287545634952     1.007825032230
         H            2.136091129818     1.647589483032     0.778839634952     1.007825032230
         H            2.293663129818     1.374084483032    -0.946982365048     1.007825032230
         H           -1.942618870182    -1.614521516968     0.069950634952     1.007825032230
         H           -1.641140870182    -0.627711516968    -1.353925365048     1.007825032230
         H           -2.813888870182     0.429641483032     1.285084634952     1.007825032230
         H           -2.583939870182     1.380973483032    -0.188571365048     1.007825032230
         H           -3.755503870182     0.058109483032    -0.165807365048     1.007825032230

  Basis Set: AUG-CC-PVTZ
    Blend: AUG-CC-PVTZ
  Basis Set: (AUG-CC-PVTZ AUX)
    Blend: AUG-CC-PVTZ-JKFIT
	 Reference Energy          =    -273.3250015550951275 [Eh]
	 Singles Energy            =      -0.0000000000000000 [Eh]
	 Same-Spin Energy          =      -0.2970390012690160 [Eh]
	 Opposite-Spin Energy      =      -1.0772666021553357 [Eh]
	 Correlation Energy        =      -1.3743056034243517 [Eh]
	 Total Energy              =    -274.6993071585195025 [Eh]

	 ================> DF-SCS-MP2 Energies <==================
	-----------------------------------------------------------
	 SCS Same-Spin Scale       =       0.3333333333333333 [-]
	 SCS Opposite-Spin Scale   =       1.2000000000000000 [-]
	 SCS Same-Spin Energy      =      -0.0990130004230053 [Eh]
	 SCS Opposite-Spin Energy  =      -1.2927199225864028 [Eh]
	 SCS Correlation Energy    =      -1.3917329230094082 [Eh]
	 SCS Total Energy          =    -274.7167344781045131 [Eh]
	-----------------------------------------------------------

  Dipole Moment: [D]
     X:    -0.0065      Y:    -0.0518      Z:     0.0441     Total:     0.0684

*** Psi4 exiting successfully. Buy a developer a beer!
