                               Psi4 1.3.2 release

  ==> Input File <==

--------------------------------------------------------------------------
#psi4
#
memory 32 gb

molecule  {
0 1
  C       -0.2796410    -0.2534110     0.2699600
  C        0.8273080    -1.2201790    -0.1568800
  C        0.2651040     1.0998010    -0.2107530
  C        2.1478713    -0.4778614     0.0657042
  C        1.8015910     1.0121590    -0.0461820
  C       -1.6656960    -0.6060100    -0.2573320
  C       -2.7543930     0.3665140     0.1916780
  H       -0.3152930    -0.2454590     1.3709960
  H        0.7753790    -1.3637350    -1.2449700
  H        0.7413790    -2.2073630     0.3107570
  H       -0.1666070     1.9492740     0.3275400
  H        0.0028850     1.2252210    -1.2696860
  H        2.9896260    -0.8344780    -0.3294880
  H        2.3206340    -0.6367720     1.2866620
  H        2.1525340     1.6409000     0.7779560
  H        2.3101060     1.3673950    -0.9478660
  H       -1.9261760    -1.6212110     0.0690670
  H       -1.6246980    -0.6344010    -1.3548090
  H       -2.7974460     0.4229520     1.2842010
  H       -2.5674970     1.3742840    -0.1894550
  H       -3.7390610     0.0514200    -0.1666910
units angstrom
no_reorient  #important for SAPT in psi4, default
symmetry c1  #important for SAPT in psi4, default
}

set PROPERTIES_ORIGIN ["COM"]
properties('MP2/aug-cc-pvtz', properties = ['dipole'])
--------------------------------------------------------------------------

    Molecular point group: c1
  Charge       = 0
  Multiplicity = 1
  Basis Set: AUG-CC-PVTZ
    Blend: AUG-CC-PVTZ
  Basis Set: (AUG-CC-PVTZ AUX)
    Blend: AUG-CC-PVTZ-JKFIT

    Orbital Energies [Eh]
    ---------------------

    Doubly Occupied:

       1A    -11.217181     2A    -11.216687     3A    -11.214874
       4A    -11.213834     5A    -11.212072     6A    -11.211867
       7A    -11.209645     8A     -1.125710     9A     -1.035951
      10A     -0.957336    11A     -0.943304    12A     -0.835510
      13A     -0.772885    14A     -0.754131    15A     -0.653601
      16A     -0.637179    17A     -0.603658    18A     -0.568637
      19A     -0.559340    20A     -0.547924    21A     -0.513464
      22A     -0.491612    23A     -0.480770    24A     -0.474079
      25A     -0.450748    26A     -0.445694    27A     -0.438305
      28A     -0.410437

  @DF-RHF Final Energy:  -273.29919252199988

   => Energetics <=

    Nuclear Repulsion Energy =            322.6454779333092802
    One-Electron Energy =               -1007.4964732886612637
    Two-Electron Energy =                 411.5518028333520988
    Total Energy =                       -273.2991925219998848
  Basis Set: (AUG-CC-PVTZ AUX)
    Blend: AUG-CC-PVTZ-RI
    Molecular point group: c1

    Geometry (in Angstrom), charge = 0, multiplicity = 1:

       Center              X                  Y                   Z               Mass
    ------------   -----------------  -----------------  -----------------  -----------------
         C           -0.302544635694    -0.248763104144     0.288327596423    12.000000000000
         C            0.804404364306    -1.215531104144    -0.138512403577    12.000000000000
         C            0.242200364306     1.104448895856    -0.192385403577    12.000000000000
         C            2.124967664306    -0.473213504144     0.084071796423    12.000000000000
         C            1.778687364306     1.016806895856    -0.027814403577    12.000000000000
         C           -1.688599635694    -0.601362104144    -0.238964403577    12.000000000000
         C           -2.777296635694     0.371161895856     0.210045596423    12.000000000000
         H           -0.338196635694    -0.240811104144     1.389363596423     1.007825032230
         H            0.752475364306    -1.359087104144    -1.226602403577     1.007825032230
         H            0.718475364306    -2.202715104144     0.329124596423     1.007825032230
         H           -0.189510635694     1.953921895856     0.345907596423     1.007825032230
         H           -0.020018635694     1.229868895856    -1.251318403577     1.007825032230
         H            2.966722364306    -0.829830104144    -0.311120403577     1.007825032230
         H            2.297730364306    -0.632124104144     1.305029596423     1.007825032230
         H            2.129630364306     1.645547895856     0.796323596423     1.007825032230
         H            2.287202364306     1.372042895856    -0.929498403577     1.007825032230
         H           -1.949079635694    -1.616563104144     0.087434596423     1.007825032230
         H           -1.647601635694    -0.629753104144    -1.336441403577     1.007825032230
         H           -2.820349635694     0.427599895856     1.302568596423     1.007825032230
         H           -2.590400635694     1.378931895856    -0.171087403577     1.007825032230
         H           -3.761964635694     0.056067895856    -0.148323403577     1.007825032230

  Basis Set: AUG-CC-PVTZ
    Blend: AUG-CC-PVTZ
  Basis Set: (AUG-CC-PVTZ AUX)
    Blend: AUG-CC-PVTZ-JKFIT
	 Reference Energy          =    -273.2991925219998848 [Eh]
	 Singles Energy            =      -0.0000000000000000 [Eh]
	 Same-Spin Energy          =      -0.2975829434927386 [Eh]
	 Opposite-Spin Energy      =      -1.0786868237738441 [Eh]
	 Correlation Energy        =      -1.3762697672665827 [Eh]
	 Total Energy              =    -274.6754622892664770 [Eh]

	 ================> DF-SCS-MP2 Energies <==================
	-----------------------------------------------------------
	 SCS Same-Spin Scale       =       0.3333333333333333 [-]
	 SCS Opposite-Spin Scale   =       1.2000000000000000 [-]
	 SCS Same-Spin Energy      =      -0.0991943144975795 [Eh]
	 SCS Opposite-Spin Energy  =      -1.2944241885286127 [Eh]
	 SCS Correlation Energy    =      -1.3936185030261923 [Eh]
	 SCS Total Energy          =    -274.6928110250260602 [Eh]
	-----------------------------------------------------------

  Dipole Moment: [D]
     X:    -0.0549      Y:    -0.0182      Z:    -0.0835     Total:     0.1016

*** Psi4 exiting successfully. Buy a developer a beer!
