                               Psi4 1.3.2 release

  ==> Input File <==

--------------------------------------------------------------------------
#psi4
#
memory 32 gb

molecule  {
0 1
  C       -0.2796410    -0.2534110     0.2699600
  C        0.8996380    -1.2833493    -0.1847705
  C        0.2651040     1.0998010    -0.2107530
  C        2.1130990    -0.4802110     0.2221390
  C        1.8015910     1.0121590    -0.0461820
  C       -1.6656960    -0.6060100    -0.2573320
  C       -2.7543930     0.3665140     0.1916780
  H       -0.3152930    -0.2454590     1.3709960
  H        0.7753790    -1.3637350    -1.2449700
  H        0.7413790    -2.2073630     0.3107570
  H       -0.1666070     1.9492740     0.3275400
  H        0.0028850     1.2252210    -1.2696860
  H        2.9896260    -0.8344780    -0.3294880
  H        2.3206340    -0.6367720     1.2866620
  H        2.1525340     1.6409000     0.7779560
  H        2.3101060     1.3673950    -0.9478660
  H       -1.9261760    -1.6212110     0.0690670
  H       -1.6246980    -0.6344010    -1.3548090
  H       -2.7974460     0.4229520     1.2842010
  H       -2.5674970     1.3742840    -0.1894550
  H       -3.7390610     0.0514200    -0.1666910
units angstrom
no_reorient  #important for SAPT in psi4, default
symmetry c1  #important for SAPT in psi4, default
}

set PROPERTIES_ORIGIN ["COM"]
properties('MP2/aug-cc-pvtz', properties = ['dipole'])
--------------------------------------------------------------------------

    Molecular point group: c1
  Charge       = 0
  Multiplicity = 1
  Basis Set: AUG-CC-PVTZ
    Blend: AUG-CC-PVTZ
  Basis Set: (AUG-CC-PVTZ AUX)
    Blend: AUG-CC-PVTZ-JKFIT

    Orbital Energies [Eh]
    ---------------------

    Doubly Occupied:

       1A    -11.218390     2A    -11.213047     3A    -11.212790
       4A    -11.211285     5A    -11.209967     6A    -11.208471
       7A    -11.208140     8A     -1.116786     9A     -1.033799
      10A     -0.958933    11A     -0.934324    12A     -0.834051
      13A     -0.774275    14A     -0.748034    15A     -0.652257
      16A     -0.627214    17A     -0.604942    18A     -0.572811
      19A     -0.555445    20A     -0.550860    21A     -0.512424
      22A     -0.488460    23A     -0.482414    24A     -0.465444
      25A     -0.460110    26A     -0.444982    27A     -0.439537
      28A     -0.411722

  @DF-RHF Final Energy:  -273.31782561390060

   => Energetics <=

    Nuclear Repulsion Energy =            321.4697881833430984
    One-Electron Energy =               -1005.2733990894129192
    Two-Electron Energy =                 410.4857852921692256
    Total Energy =                       -273.3178256139005953
  Basis Set: (AUG-CC-PVTZ AUX)
    Blend: AUG-CC-PVTZ-RI
    Molecular point group: c1

    Geometry (in Angstrom), charge = 0, multiplicity = 1:

       Center              X                  Y                   Z               Mass
    ------------   -----------------  -----------------  -----------------  -----------------
         C           -0.307138402539    -0.240749217663     0.272605053684    12.000000000000
         C            0.872140597461    -1.270687517663    -0.182125446316    12.000000000000
         C            0.237606597461     1.112462782337    -0.208107946316    12.000000000000
         C            2.085601597461    -0.467549217663     0.224784053684    12.000000000000
         C            1.774093597461     1.024820782337    -0.043536946316    12.000000000000
         C           -1.693193402539    -0.593348217663    -0.254686946316    12.000000000000
         C           -2.781890402539     0.379175782337     0.194323053684    12.000000000000
         H           -0.342790402539    -0.232797217663     1.373641053684     1.007825032230
         H            0.747881597461    -1.351073217663    -1.242324946316     1.007825032230
         H            0.713881597461    -2.194701217663     0.313402053684     1.007825032230
         H           -0.194104402539     1.961935782337     0.330185053684     1.007825032230
         H           -0.024612402539     1.237882782337    -1.267040946316     1.007825032230
         H            2.962128597461    -0.821816217663    -0.326842946316     1.007825032230
         H            2.293136597461    -0.624110217663     1.289307053684     1.007825032230
         H            2.125036597461     1.653561782337     0.780601053684     1.007825032230
         H            2.282608597461     1.380056782337    -0.945220946316     1.007825032230
         H           -1.953673402539    -1.608549217663     0.071712053684     1.007825032230
         H           -1.652195402539    -0.621739217663    -1.352163946316     1.007825032230
         H           -2.824943402539     0.435613782337     1.286846053684     1.007825032230
         H           -2.594994402539     1.386945782337    -0.186809946316     1.007825032230
         H           -3.766558402539     0.064081782337    -0.164045946316     1.007825032230

  Basis Set: AUG-CC-PVTZ
    Blend: AUG-CC-PVTZ
  Basis Set: (AUG-CC-PVTZ AUX)
    Blend: AUG-CC-PVTZ-JKFIT
	 Reference Energy          =    -273.3178256139005953 [Eh]
	 Singles Energy            =      -0.0000000000000000 [Eh]
	 Same-Spin Energy          =      -0.2970970348678954 [Eh]
	 Opposite-Spin Energy      =      -1.0776926841145009 [Eh]
	 Correlation Energy        =      -1.3747897189823963 [Eh]
	 Total Energy              =    -274.6926153328830083 [Eh]

	 ================> DF-SCS-MP2 Energies <==================
	-----------------------------------------------------------
	 SCS Same-Spin Scale       =       0.3333333333333333 [-]
	 SCS Opposite-Spin Scale   =       1.2000000000000000 [-]
	 SCS Same-Spin Energy      =      -0.0990323449559651 [Eh]
	 SCS Opposite-Spin Energy  =      -1.2932312209374011 [Eh]
	 SCS Correlation Energy    =      -1.3922635658933662 [Eh]
	 SCS Total Energy          =    -274.7100891797939539 [Eh]
	-----------------------------------------------------------

  Dipole Moment: [D]
     X:    -0.0257      Y:    -0.0425      Z:     0.0543     Total:     0.0736

*** Psi4 exiting successfully. Buy a developer a beer!
