                               Psi4 1.3.2 release

  ==> Input File <==

--------------------------------------------------------------------------
#psi4
#
memory 32 gb

molecule  {
0 1
  C       -0.2796410    -0.2534110     0.2699600
  C        0.8273080    -1.2201790    -0.1568800
  C        0.2651040     1.0998010    -0.2107530
  C        2.1130990    -0.4802110     0.2221390
  C        1.8015910     1.0121590    -0.0461820
  C       -1.6656960    -0.6060100    -0.2573320
  C       -2.7543930     0.3665140     0.1916780
  H       -0.3152930    -0.2454590     1.3709960
  H        0.7753790    -1.3637350    -1.2449700
  H        0.7413790    -2.2073630     0.3107570
  H       -0.1666070     1.9492740     0.3275400
  H        0.0028850     1.2252210    -1.2696860
  H        2.9979396    -0.8391627    -0.3129384
  H        2.3206340    -0.6367720     1.2866620
  H        2.1525340     1.6409000     0.7779560
  H        2.3101060     1.3673950    -0.9478660
  H       -1.9261760    -1.6212110     0.0690670
  H       -1.6246980    -0.6344010    -1.3548090
  H       -2.7974460     0.4229520     1.2842010
  H       -2.5674970     1.3742840    -0.1894550
  H       -3.7390610     0.0514200    -0.1666910
units angstrom
no_reorient  #important for SAPT in psi4, default
symmetry c1  #important for SAPT in psi4, default
}

set PROPERTIES_ORIGIN ["COM"]
properties('MP2/aug-cc-pvtz', properties = ['dipole'])
--------------------------------------------------------------------------

    Molecular point group: c1
  Charge       = 0
  Multiplicity = 1
  Basis Set: AUG-CC-PVTZ
    Blend: AUG-CC-PVTZ
  Basis Set: (AUG-CC-PVTZ AUX)
    Blend: AUG-CC-PVTZ-JKFIT

    Orbital Energies [Eh]
    ---------------------

    Doubly Occupied:

       1A    -11.215003     2A    -11.213619     3A    -11.212182
       4A    -11.211450     5A    -11.210224     6A    -11.209747
       7A    -11.208790     8A     -1.124657     9A     -1.033867
      10A     -0.956045    11A     -0.939523    12A     -0.833660
      13A     -0.771337    14A     -0.751455    15A     -0.652045
      16A     -0.629980    17A     -0.604312    18A     -0.569024
      19A     -0.556124    20A     -0.552362    21A     -0.513021
      22A     -0.485112    23A     -0.472373    24A     -0.464743
      25A     -0.451538    26A     -0.445929    27A     -0.442854
      28A     -0.435490

  @DF-RHF Final Energy:  -273.32542195092088

   => Energetics <=

    Nuclear Repulsion Energy =            322.7540799101024049
    One-Electron Energy =               -1007.8260715280039221
    Two-Electron Energy =                 411.7465696669806334
    Total Energy =                       -273.3254219509208838
  Basis Set: (AUG-CC-PVTZ AUX)
    Blend: AUG-CC-PVTZ-RI
    Molecular point group: c1

    Geometry (in Angstrom), charge = 0, multiplicity = 1:

       Center              X                  Y                   Z               Mass
    ------------   -----------------  -----------------  -----------------  -----------------
         C           -0.298376958400    -0.248427595951     0.269023698969    12.000000000000
         C            0.808572041600    -1.215195595951    -0.157816301031    12.000000000000
         C            0.246368041600     1.104784404049    -0.211689301031    12.000000000000
         C            2.094363041600    -0.475227595951     0.221202698969    12.000000000000
         C            1.782855041600     1.017142404049    -0.047118301031    12.000000000000
         C           -1.684431958400    -0.601026595951    -0.258268301031    12.000000000000
         C           -2.773128958400     0.371497404049     0.190741698969    12.000000000000
         H           -0.334028958400    -0.240475595951     1.370059698969     1.007825032230
         H            0.756643041600    -1.358751595951    -1.245906301031     1.007825032230
         H            0.722643041600    -2.202379595951     0.309820698969     1.007825032230
         H           -0.185342958400     1.954257404049     0.326603698969     1.007825032230
         H           -0.015850958400     1.230204404049    -1.270622301031     1.007825032230
         H            2.979203641600    -0.834179295951    -0.313874701031     1.007825032230
         H            2.301898041600    -0.631788595951     1.285725698969     1.007825032230
         H            2.133798041600     1.645883404049     0.777019698969     1.007825032230
         H            2.291370041600     1.372378404049    -0.948802301031     1.007825032230
         H           -1.944911958400    -1.616227595951     0.068130698969     1.007825032230
         H           -1.643433958400    -0.629417595951    -1.355745301031     1.007825032230
         H           -2.816181958400     0.427935404049     1.283264698969     1.007825032230
         H           -2.586232958400     1.379267404049    -0.190391301031     1.007825032230
         H           -3.757796958400     0.056403404049    -0.167627301031     1.007825032230

  Basis Set: AUG-CC-PVTZ
    Blend: AUG-CC-PVTZ
  Basis Set: (AUG-CC-PVTZ AUX)
    Blend: AUG-CC-PVTZ-JKFIT
	 Reference Energy          =    -273.3254219509208838 [Eh]
	 Singles Energy            =      -0.0000000000000000 [Eh]
	 Same-Spin Energy          =      -0.2971533425876990 [Eh]
	 Opposite-Spin Energy      =      -1.0772708387730914 [Eh]
	 Correlation Energy        =      -1.3744241813607903 [Eh]
	 Total Energy              =    -274.6998461322816638 [Eh]

	 ================> DF-SCS-MP2 Energies <==================
	-----------------------------------------------------------
	 SCS Same-Spin Scale       =       0.3333333333333333 [-]
	 SCS Opposite-Spin Scale   =       1.2000000000000000 [-]
	 SCS Same-Spin Energy      =      -0.0990511141958997 [Eh]
	 SCS Opposite-Spin Energy  =      -1.2927250065277096 [Eh]
	 SCS Correlation Energy    =      -1.3917761207236092 [Eh]
	 SCS Total Energy          =    -274.7171980716444750 [Eh]
	-----------------------------------------------------------

  Dipole Moment: [D]
     X:    -0.0088      Y:    -0.0472      Z:     0.0537     Total:     0.0720

*** Psi4 exiting successfully. Buy a developer a beer!
