                               Psi4 1.3.2 release

  ==> Input File <==

--------------------------------------------------------------------------
#psi4
#
memory 32 gb

molecule  {
0 1
  O        0.3935890    -1.1834810     0.6928250
  C       -1.1363630     0.3083220    -0.3952430
  C        0.2489750    -0.1877140    -0.0130640
  C        1.4343240     0.6136100    -0.5100380
  C       -1.6230330     1.2650800     0.7040440
  C       -2.0923464    -0.8708237    -0.5237910
  C        2.7660710     0.0938090     0.0047360
  H       -1.0314439     0.8957858    -1.3191410
  H        1.2791640     1.6640640    -0.2248860
  H        1.4031030     0.6104820    -1.6083150
  H       -0.9521060     2.1204610     0.8293460
  H       -1.6846230     0.7313890     1.6588270
  H       -2.6168740     1.6507050     0.4584890
  H       -1.7562200    -1.5424760    -1.3562160
  H       -2.1750630    -1.4236530     0.3564710
  H       -3.0946750    -0.4900390    -0.8506910
  H        2.7911150     0.1168120     1.0954440
  H        2.9171760    -0.9417660    -0.3044500
  H        3.5913670     0.6986870    -0.3779970
units angstrom
no_reorient  #important for SAPT in psi4, default
symmetry c1  #important for SAPT in psi4, default
}

set PROPERTIES_ORIGIN ["COM"]
properties('MP2/aug-cc-pvtz', properties = ['dipole'])
--------------------------------------------------------------------------

    Molecular point group: c1
  Charge       = 0
  Multiplicity = 1
  Basis Set: AUG-CC-PVTZ
    Blend: AUG-CC-PVTZ
  Basis Set: (AUG-CC-PVTZ AUX)
    Blend: AUG-CC-PVTZ-JKFIT

    Orbital Energies [Eh]
    ---------------------

    Doubly Occupied:

       1A    -20.540195     2A    -11.324126     3A    -11.242430
       4A    -11.239235     5A    -11.228273     6A    -11.217092
       7A    -11.215361     8A     -1.372813     9A     -1.091761
      10A     -1.047460    11A     -0.937319    12A     -0.907760
      13A     -0.823477    14A     -0.720920    15A     -0.672797
      16A     -0.632092    17A     -0.622421    18A     -0.607297
      19A     -0.567341    20A     -0.553849    21A     -0.547075
      22A     -0.520470    23A     -0.511210    24A     -0.502521
      25A     -0.493388    26A     -0.484852    27A     -0.467380
      28A     -0.401143

  @DF-RHF Final Energy:  -309.17296168061569

   => Energetics <=

    Nuclear Repulsion Energy =            315.2835179921243025
    One-Electron Energy =               -1043.9288465805477699
    Two-Electron Energy =                 419.4723669078077819
    Total Energy =                       -309.1729616806156855
  Basis Set: (AUG-CC-PVTZ AUX)
    Blend: AUG-CC-PVTZ-RI
    Molecular point group: c1

    Geometry (in Angstrom), charge = 0, multiplicity = 1:

       Center              X                  Y                   Z               Mass
    ------------   -----------------  -----------------  -----------------  -----------------
         O            0.392315394581    -1.182084058377     0.686576267191    15.994914619570
         C           -1.137636605419     0.309718941623    -0.401491732809    12.000000000000
         C            0.247701394581    -0.186317058377    -0.019312732809    12.000000000000
         C            1.433050394581     0.615006941623    -0.516286732809    12.000000000000
         C           -1.624306605419     1.266476941623     0.697795267191    12.000000000000
         C           -2.093620005419    -0.869426758377    -0.530039732809    12.000000000000
         C            2.764797394581     0.095205941623    -0.001512732809    12.000000000000
         H           -1.032717505419     0.897182741623    -1.325389732809     1.007825032230
         H            1.277890394581     1.665460941623    -0.231134732809     1.007825032230
         H            1.401829394581     0.611878941623    -1.614563732809     1.007825032230
         H           -0.953379605419     2.121857941623     0.823097267191     1.007825032230
         H           -1.685896605419     0.732785941623     1.652578267191     1.007825032230
         H           -2.618147605419     1.652101941623     0.452240267191     1.007825032230
         H           -1.757493605419    -1.541079058377    -1.362464732809     1.007825032230
         H           -2.176336605419    -1.422256058377     0.350222267191     1.007825032230
         H           -3.095948605419    -0.488642058377    -0.856939732809     1.007825032230
         H            2.789841394581     0.118208941623     1.089195267191     1.007825032230
         H            2.915902394581    -0.940369058377    -0.310698732809     1.007825032230
         H            3.590093394581     0.700083941623    -0.384245732809     1.007825032230

  Basis Set: AUG-CC-PVTZ
    Blend: AUG-CC-PVTZ
  Basis Set: (AUG-CC-PVTZ AUX)
    Blend: AUG-CC-PVTZ-JKFIT
	 Reference Energy          =    -309.1729616806156855 [Eh]
	 Singles Energy            =      -0.0000000000000000 [Eh]
	 Same-Spin Energy          =      -0.3171484452215525 [Eh]
	 Opposite-Spin Energy      =      -1.1036830044484474 [Eh]
	 Correlation Energy        =      -1.4208314496699999 [Eh]
	 Total Energy              =    -310.5937931302856896 [Eh]

	 ================> DF-SCS-MP2 Energies <==================
	-----------------------------------------------------------
	 SCS Same-Spin Scale       =       0.3333333333333333 [-]
	 SCS Opposite-Spin Scale   =       1.2000000000000000 [-]
	 SCS Same-Spin Energy      =      -0.1057161484071842 [Eh]
	 SCS Opposite-Spin Energy  =      -1.3244196053381367 [Eh]
	 SCS Correlation Energy    =      -1.4301357537453210 [Eh]
	 SCS Total Energy          =    -310.6030974343610183 [Eh]
	-----------------------------------------------------------

  Dipole Moment: [D]
     X:    -0.3683      Y:     2.2221      Z:    -1.4410     Total:     2.6739

*** Psi4 exiting successfully. Buy a developer a beer!
