                               Psi4 1.3.2 release

  ==> Input File <==

--------------------------------------------------------------------------
#psi4
#
memory 32 gb

molecule  {
0 1
  O        0.3935890    -1.1834810     0.6928250
  C       -1.1363630     0.3083220    -0.3952430
  C        0.2283660    -0.1432228     0.0067066
  C        1.4343240     0.6136100    -0.5100380
  C       -1.6230330     1.2650800     0.7040440
  C       -2.1008890    -0.8571740    -0.5744690
  C        2.7660710     0.0938090     0.0047360
  H       -1.0562100     0.8719860    -1.3362890
  H        1.2459094     1.6540229    -0.2085737
  H        1.4031030     0.6104820    -1.6083150
  H       -0.9521060     2.1204610     0.8293460
  H       -1.6846230     0.7313890     1.6588270
  H       -2.6168740     1.6507050     0.4584890
  H       -1.7562200    -1.5424760    -1.3562160
  H       -2.1750630    -1.4236530     0.3564710
  H       -3.0946750    -0.4900390    -0.8506910
  H        2.7911150     0.1168120     1.0954440
  H        2.9171760    -0.9417660    -0.3044500
  H        3.5913670     0.6986870    -0.3779970
units angstrom
no_reorient  #important for SAPT in psi4, default
symmetry c1  #important for SAPT in psi4, default
}

set PROPERTIES_ORIGIN ["COM"]
properties('MP2/aug-cc-pvtz', properties = ['dipole'])
--------------------------------------------------------------------------

    Molecular point group: c1
  Charge       = 0
  Multiplicity = 1
  Basis Set: AUG-CC-PVTZ
    Blend: AUG-CC-PVTZ
  Basis Set: (AUG-CC-PVTZ AUX)
    Blend: AUG-CC-PVTZ-JKFIT

    Orbital Energies [Eh]
    ---------------------

    Doubly Occupied:

       1A    -20.537337     2A    -11.326726     3A    -11.243317
       4A    -11.240691     5A    -11.230535     6A    -11.217454
       7A    -11.215832     8A     -1.354296     9A     -1.096266
      10A     -1.047390    11A     -0.939715    12A     -0.910871
      13A     -0.827233    14A     -0.719589    15A     -0.670204
      16A     -0.633238    17A     -0.623662    18A     -0.599954
      19A     -0.569278    20A     -0.553688    21A     -0.545594
      22A     -0.517699    23A     -0.510747    24A     -0.505234
      25A     -0.493918    26A     -0.482410    27A     -0.461127
      28A     -0.405690

  @DF-RHF Final Energy:  -309.17062896433100

   => Energetics <=

    Nuclear Repulsion Energy =            315.0394928782162083
    One-Electron Energy =               -1043.4608550384259615
    Two-Electron Energy =                 419.2507331958788086
    Total Energy =                       -309.1706289643310015
  Basis Set: (AUG-CC-PVTZ AUX)
    Blend: AUG-CC-PVTZ-RI
    Molecular point group: c1

    Geometry (in Angstrom), charge = 0, multiplicity = 1:

       Center              X                  Y                   Z               Mass
    ------------   -----------------  -----------------  -----------------  -----------------
         O            0.396394710675    -1.188714020914     0.690290278985    15.994914619570
         C           -1.133557289325     0.303088979086    -0.397777721015    12.000000000000
         C            0.231171710675    -0.148455820914     0.004171878985    12.000000000000
         C            1.437129710675     0.608376979086    -0.512572721015    12.000000000000
         C           -1.620227289325     1.259846979086     0.701509278985    12.000000000000
         C           -2.098083289325    -0.862407020914    -0.577003721015    12.000000000000
         C            2.768876710675     0.088575979086     0.002201278985    12.000000000000
         H           -1.053404289325     0.866752979086    -1.338823721015     1.007825032230
         H            1.248715110675     1.648789879086    -0.211108421015     1.007825032230
         H            1.405908710675     0.605248979086    -1.610849721015     1.007825032230
         H           -0.949300289325     2.115227979086     0.826811278985     1.007825032230
         H           -1.681817289325     0.726155979086     1.656292278985     1.007825032230
         H           -2.614068289325     1.645471979086     0.455954278985     1.007825032230
         H           -1.753414289325    -1.547709020914    -1.358750721015     1.007825032230
         H           -2.172257289325    -1.428886020914     0.353936278985     1.007825032230
         H           -3.091869289325    -0.495272020914    -0.853225721015     1.007825032230
         H            2.793920710675     0.111578979086     1.092909278985     1.007825032230
         H            2.919981710675    -0.946999020914    -0.306984721015     1.007825032230
         H            3.594172710675     0.693453979086    -0.380531721015     1.007825032230

  Basis Set: AUG-CC-PVTZ
    Blend: AUG-CC-PVTZ
  Basis Set: (AUG-CC-PVTZ AUX)
    Blend: AUG-CC-PVTZ-JKFIT
	 Reference Energy          =    -309.1706289643310015 [Eh]
	 Singles Energy            =      -0.0000000000000000 [Eh]
	 Same-Spin Energy          =      -0.3180838661720129 [Eh]
	 Opposite-Spin Energy      =      -1.1054551928447447 [Eh]
	 Correlation Energy        =      -1.4235390590167576 [Eh]
	 Total Energy              =    -310.5941680233477769 [Eh]

	 ================> DF-SCS-MP2 Energies <==================
	-----------------------------------------------------------
	 SCS Same-Spin Scale       =       0.3333333333333333 [-]
	 SCS Opposite-Spin Scale   =       1.2000000000000000 [-]
	 SCS Same-Spin Energy      =      -0.1060279553906710 [Eh]
	 SCS Opposite-Spin Energy  =      -1.3265462314136935 [Eh]
	 SCS Correlation Energy    =      -1.4325741868043644 [Eh]
	 SCS Total Energy          =    -310.6032031511353466 [Eh]
	-----------------------------------------------------------

  Dipole Moment: [D]
     X:    -0.4742      Y:     2.2962      Z:    -1.4902     Total:     2.7782

*** Psi4 exiting successfully. Buy a developer a beer!
