                               Psi4 1.3.2 release

  ==> Input File <==

--------------------------------------------------------------------------
#psi4
#
memory 32 gb

molecule  {
0 1
  O        0.3935890    -1.1834810     0.6928250
  C       -1.1363630     0.3083220    -0.3952430
  C        0.2400180    -0.2126756    -0.0139155
  C        1.4343240     0.6136100    -0.5100380
  C       -1.6230330     1.2650800     0.7040440
  C       -2.0812380    -0.8740540    -0.5684819
  C        2.7660710     0.0938090     0.0047360
  H       -1.0562100     0.8719860    -1.3362890
  H        1.2791640     1.6640640    -0.2248860
  H        1.4031030     0.6104820    -1.6083150
  H       -0.9521060     2.1204610     0.8293460
  H       -1.6846230     0.7313890     1.6588270
  H       -2.6168740     1.6507050     0.4584890
  H       -1.7562200    -1.5424760    -1.3562160
  H       -2.1750630    -1.4236530     0.3564710
  H       -3.0946750    -0.4900390    -0.8506910
  H        2.7911150     0.1168120     1.0954440
  H        2.9171760    -0.9417660    -0.3044500
  H        3.5913670     0.6986870    -0.3779970
units angstrom
no_reorient  #important for SAPT in psi4, default
symmetry c1  #important for SAPT in psi4, default
}

set PROPERTIES_ORIGIN ["COM"]
properties('MP2/aug-cc-pvtz', properties = ['dipole'])
--------------------------------------------------------------------------

    Molecular point group: c1
  Charge       = 0
  Multiplicity = 1
  Basis Set: AUG-CC-PVTZ
    Blend: AUG-CC-PVTZ
  Basis Set: (AUG-CC-PVTZ AUX)
    Blend: AUG-CC-PVTZ-JKFIT

    Orbital Energies [Eh]
    ---------------------

    Doubly Occupied:

       1A    -20.542208     2A    -11.322904     3A    -11.241469
       4A    -11.237665     5A    -11.229016     6A    -11.215935
       7A    -11.214262     8A     -1.385679     9A     -1.090529
      10A     -1.043883    11A     -0.938355    12A     -0.904047
      13A     -0.821343    14A     -0.721165    15A     -0.673465
      16A     -0.630729    17A     -0.625653    18A     -0.609852
      19A     -0.567830    20A     -0.551740    21A     -0.543804
      22A     -0.519939    23A     -0.514498    24A     -0.504130
      25A     -0.493734    26A     -0.483455    27A     -0.474836
      28A     -0.397339

  @DF-RHF Final Energy:  -309.17703480796325

   => Energetics <=

    Nuclear Repulsion Energy =            315.2677958654793429
    One-Electron Energy =               -1043.8907339071490696
    Two-Electron Energy =                 419.4459032337064741
    Total Energy =                       -309.1770348079632527
  Basis Set: (AUG-CC-PVTZ AUX)
    Blend: AUG-CC-PVTZ-RI
    Molecular point group: c1

    Geometry (in Angstrom), charge = 0, multiplicity = 1:

       Center              X                  Y                   Z               Mass
    ------------   -----------------  -----------------  -----------------  -----------------
         O            0.392306833140    -1.178464384848     0.692209174161    15.994914619570
         C           -1.137645166860     0.313338615152    -0.395858825839    12.000000000000
         C            0.238735833140    -0.207658984848    -0.014531325839    12.000000000000
         C            1.433041833140     0.618626615152    -0.510653825839    12.000000000000
         C           -1.624315166860     1.270096615152     0.703428174161    12.000000000000
         C           -2.082520166860    -0.869037384848    -0.569097725839    12.000000000000
         C            2.764788833140     0.098825615152     0.004120174161    12.000000000000
         H           -1.057492166860     0.877002615152    -1.336904825839     1.007825032230
         H            1.277881833140     1.669080615152    -0.225501825839     1.007825032230
         H            1.401820833140     0.615498615152    -1.608930825839     1.007825032230
         H           -0.953388166860     2.125477615152     0.828730174161     1.007825032230
         H           -1.685905166860     0.736405615152     1.658211174161     1.007825032230
         H           -2.618156166860     1.655721615152     0.457873174161     1.007825032230
         H           -1.757502166860    -1.537459384848    -1.356831825839     1.007825032230
         H           -2.176345166860    -1.418636384848     0.355855174161     1.007825032230
         H           -3.095957166860    -0.485022384848    -0.851306825839     1.007825032230
         H            2.789832833140     0.121828615152     1.094828174161     1.007825032230
         H            2.915893833140    -0.936749384848    -0.305065825839     1.007825032230
         H            3.590084833140     0.703703615152    -0.378612825839     1.007825032230

  Basis Set: AUG-CC-PVTZ
    Blend: AUG-CC-PVTZ
  Basis Set: (AUG-CC-PVTZ AUX)
    Blend: AUG-CC-PVTZ-JKFIT
	 Reference Energy          =    -309.1770348079632527 [Eh]
	 Singles Energy            =      -0.0000000000000000 [Eh]
	 Same-Spin Energy          =      -0.3165516476491937 [Eh]
	 Opposite-Spin Energy      =      -1.1024900194513196 [Eh]
	 Correlation Energy        =      -1.4190416671005133 [Eh]
	 Total Energy              =    -310.5960764750637395 [Eh]

	 ================> DF-SCS-MP2 Energies <==================
	-----------------------------------------------------------
	 SCS Same-Spin Scale       =       0.3333333333333333 [-]
	 SCS Opposite-Spin Scale   =       1.2000000000000000 [-]
	 SCS Same-Spin Energy      =      -0.1055172158830646 [Eh]
	 SCS Opposite-Spin Energy  =      -1.3229880233415836 [Eh]
	 SCS Correlation Energy    =      -1.4285052392246482 [Eh]
	 SCS Total Energy          =    -310.6055400471879011 [Eh]
	-----------------------------------------------------------

  Dipole Moment: [D]
     X:    -0.4150      Y:     2.1459      Z:    -1.4064     Total:     2.5990

*** Psi4 exiting successfully. Buy a developer a beer!
