                               Psi4 1.3.2 release

  ==> Input File <==

--------------------------------------------------------------------------
#psi4
#
memory 32 gb

molecule  {
0 1
  O        0.3722864    -1.1859442     0.6933885
  C       -1.1363630     0.3083220    -0.3952430
  C        0.2489750    -0.1877140    -0.0130640
  C        1.4177296     0.6300236    -0.5224494
  C       -1.6230330     1.2650800     0.7040440
  C       -2.1008890    -0.8571740    -0.5744690
  C        2.7660710     0.0938090     0.0047360
  H       -1.0562100     0.8719860    -1.3362890
  H        1.2791640     1.6640640    -0.2248860
  H        1.4031030     0.6104820    -1.6083150
  H       -0.9521060     2.1204610     0.8293460
  H       -1.6846230     0.7313890     1.6588270
  H       -2.6168740     1.6507050     0.4584890
  H       -1.7562200    -1.5424760    -1.3562160
  H       -2.1750630    -1.4236530     0.3564710
  H       -3.0946750    -0.4900390    -0.8506910
  H        2.7911150     0.1168120     1.0954440
  H        2.9171760    -0.9417660    -0.3044500
  H        3.5913670     0.6986870    -0.3779970
units angstrom
no_reorient  #important for SAPT in psi4, default
symmetry c1  #important for SAPT in psi4, default
}

set PROPERTIES_ORIGIN ["COM"]
properties('MP2/aug-cc-pvtz', properties = ['dipole'])
--------------------------------------------------------------------------

    Molecular point group: c1
  Charge       = 0
  Multiplicity = 1
  Basis Set: AUG-CC-PVTZ
    Blend: AUG-CC-PVTZ
  Basis Set: (AUG-CC-PVTZ AUX)
    Blend: AUG-CC-PVTZ-JKFIT

    Orbital Energies [Eh]
    ---------------------

    Doubly Occupied:

       1A    -20.541563     2A    -11.325155     3A    -11.240312
       4A    -11.239129     5A    -11.228152     6A    -11.217020
       7A    -11.214844     8A     -1.373283     9A     -1.090620
      10A     -1.045098    11A     -0.936988    12A     -0.907224
      13A     -0.823460    14A     -0.721502    15A     -0.672260
      16A     -0.634627    17A     -0.623157    18A     -0.606651
      19A     -0.567600    20A     -0.549804    21A     -0.543237
      22A     -0.520832    23A     -0.513197    24A     -0.503719
      25A     -0.495161    26A     -0.480589    27A     -0.470393
      28A     -0.401536

  @DF-RHF Final Energy:  -309.17597121486142

   => Energetics <=

    Nuclear Repulsion Energy =            314.9542358126521435
    One-Electron Energy =               -1043.2861877654165710
    Two-Electron Energy =                 419.1559807379030644
    Total Energy =                       -309.1759712148614199
  Basis Set: (AUG-CC-PVTZ AUX)
    Blend: AUG-CC-PVTZ-RI
    Molecular point group: c1

    Geometry (in Angstrom), charge = 0, multiplicity = 1:

       Center              X                  Y                   Z               Mass
    ------------   -----------------  -----------------  -----------------  -----------------
         O            0.377680244522    -1.187518368506     0.694786394331    15.994914619570
         C           -1.130969155478     0.306747831494    -0.393845105669    12.000000000000
         C            0.254368844522    -0.189288168506    -0.011666105669    12.000000000000
         C            1.423123444522     0.628449431494    -0.521051505669    12.000000000000
         C           -1.617639155478     1.263505831494     0.705441894331    12.000000000000
         C           -2.095495155478    -0.858748168506    -0.573071105669    12.000000000000
         C            2.771464844522     0.092234831494     0.006133894331    12.000000000000
         H           -1.050816155478     0.870411831494    -1.334891105669     1.007825032230
         H            1.284557844522     1.662489831494    -0.223488105669     1.007825032230
         H            1.408496844522     0.608907831494    -1.606917105669     1.007825032230
         H           -0.946712155478     2.118886831494     0.830743894331     1.007825032230
         H           -1.679229155478     0.729814831494     1.660224894331     1.007825032230
         H           -2.611480155478     1.649130831494     0.459886894331     1.007825032230
         H           -1.750826155478    -1.544050168506    -1.354818105669     1.007825032230
         H           -2.169669155478    -1.425227168506     0.357868894331     1.007825032230
         H           -3.089281155478    -0.491613168506    -0.849293105669     1.007825032230
         H            2.796508844522     0.115237831494     1.096841894331     1.007825032230
         H            2.922569844522    -0.943340168506    -0.303052105669     1.007825032230
         H            3.596760844522     0.697112831494    -0.376599105669     1.007825032230

  Basis Set: AUG-CC-PVTZ
    Blend: AUG-CC-PVTZ
  Basis Set: (AUG-CC-PVTZ AUX)
    Blend: AUG-CC-PVTZ-JKFIT
	 Reference Energy          =    -309.1759712148614199 [Eh]
	 Singles Energy            =      -0.0000000000000000 [Eh]
	 Same-Spin Energy          =      -0.3169497344933354 [Eh]
	 Opposite-Spin Energy      =      -1.1034947566057547 [Eh]
	 Correlation Energy        =      -1.4204444910990901 [Eh]
	 Total Energy              =    -310.5964157059605100 [Eh]

	 ================> DF-SCS-MP2 Energies <==================
	-----------------------------------------------------------
	 SCS Same-Spin Scale       =       0.3333333333333333 [-]
	 SCS Opposite-Spin Scale   =       1.2000000000000000 [-]
	 SCS Same-Spin Energy      =      -0.1056499114977785 [Eh]
	 SCS Opposite-Spin Energy  =      -1.3241937079269055 [Eh]
	 SCS Correlation Energy    =      -1.4298436194246840 [Eh]
	 SCS Total Energy          =    -310.6058148342860932 [Eh]
	-----------------------------------------------------------

  Dipole Moment: [D]
     X:    -0.3099      Y:     2.2252      Z:    -1.4554     Total:     2.6769

*** Psi4 exiting successfully. Buy a developer a beer!
