                               Psi4 1.3.2 release

  ==> Input File <==

--------------------------------------------------------------------------
#psi4
#
memory 32 gb

molecule  {
0 1
  O        0.3935890    -1.1834810     0.6928250
  C       -1.1363630     0.3083220    -0.3952430
  C        0.2489750    -0.1877140    -0.0130640
  C        1.4343240     0.6136100    -0.5100380
  C       -1.6230330     1.2650800     0.7040440
  C       -2.1028414    -0.8535390    -0.5871068
  C        2.7660710     0.0938090     0.0047360
  H       -1.0624180     0.8659276    -1.3403977
  H        1.2791640     1.6640640    -0.2248860
  H        1.4031030     0.6104820    -1.6083150
  H       -0.9521060     2.1204610     0.8293460
  H       -1.6846230     0.7313890     1.6588270
  H       -2.6168740     1.6507050     0.4584890
  H       -1.7562200    -1.5424760    -1.3562160
  H       -2.1750630    -1.4236530     0.3564710
  H       -3.0946750    -0.4900390    -0.8506910
  H        2.7911150     0.1168120     1.0954440
  H        2.9171760    -0.9417660    -0.3044500
  H        3.5913670     0.6986870    -0.3779970
units angstrom
no_reorient  #important for SAPT in psi4, default
symmetry c1  #important for SAPT in psi4, default
}

set PROPERTIES_ORIGIN ["COM"]
properties('MP2/aug-cc-pvtz', properties = ['dipole'])
--------------------------------------------------------------------------

    Molecular point group: c1
  Charge       = 0
  Multiplicity = 1
  Basis Set: AUG-CC-PVTZ
    Blend: AUG-CC-PVTZ
  Basis Set: (AUG-CC-PVTZ AUX)
    Blend: AUG-CC-PVTZ-JKFIT

    Orbital Energies [Eh]
    ---------------------

    Doubly Occupied:

       1A    -20.540774     2A    -11.324950     3A    -11.241964
       4A    -11.239289     5A    -11.228840     6A    -11.215667
       7A    -11.215385     8A     -1.373056     9A     -1.091027
      10A     -1.047291    11A     -0.937942    12A     -0.907349
      13A     -0.822666    14A     -0.720682    15A     -0.672420
      16A     -0.632126    17A     -0.624002    18A     -0.606330
      19A     -0.569138    20A     -0.552766    21A     -0.543058
      22A     -0.519930    23A     -0.512582    24A     -0.506343
      25A     -0.493117    26A     -0.479256    27A     -0.470185
      28A     -0.402187

  @DF-RHF Final Energy:  -309.17642716825696

   => Energetics <=

    Nuclear Repulsion Energy =            314.9850242953647808
    One-Electron Energy =               -1043.3422560859564783
    Two-Electron Energy =                 419.1808046223346764
    Total Energy =                       -309.1764271682569643
  Basis Set: (AUG-CC-PVTZ AUX)
    Blend: AUG-CC-PVTZ-RI
    Molecular point group: c1

    Geometry (in Angstrom), charge = 0, multiplicity = 1:

       Center              X                  Y                   Z               Mass
    ------------   -----------------  -----------------  -----------------  -----------------
         O            0.393885564768    -1.183855730452     0.694381461351    15.994914619570
         C           -1.136066435232     0.307947269548    -0.393686538649    12.000000000000
         C            0.249271564768    -0.188088730452    -0.011507538649    12.000000000000
         C            1.434620564768     0.613235269548    -0.508481538649    12.000000000000
         C           -1.622736435232     1.264705269548     0.705600461351    12.000000000000
         C           -2.102544835232    -0.853913730452    -0.585550338649    12.000000000000
         C            2.766367564768     0.093434269548     0.006292461351    12.000000000000
         H           -1.062121435232     0.865552869548    -1.338841238649     1.007825032230
         H            1.279460564768     1.663689269548    -0.223329538649     1.007825032230
         H            1.403399564768     0.610107269548    -1.606758538649     1.007825032230
         H           -0.951809435232     2.120086269548     0.830902461351     1.007825032230
         H           -1.684326435232     0.731014269548     1.660383461351     1.007825032230
         H           -2.616577435232     1.650330269548     0.460045461351     1.007825032230
         H           -1.755923435232    -1.542850730452    -1.354659538649     1.007825032230
         H           -2.174766435232    -1.424027730452     0.358027461351     1.007825032230
         H           -3.094378435232    -0.490413730452    -0.849134538649     1.007825032230
         H            2.791411564768     0.116437269548     1.097000461351     1.007825032230
         H            2.917472564768    -0.942140730452    -0.302893538649     1.007825032230
         H            3.591663564768     0.698312269548    -0.376440538649     1.007825032230

  Basis Set: AUG-CC-PVTZ
    Blend: AUG-CC-PVTZ
  Basis Set: (AUG-CC-PVTZ AUX)
    Blend: AUG-CC-PVTZ-JKFIT
	 Reference Energy          =    -309.1764271682569643 [Eh]
	 Singles Energy            =      -0.0000000000000000 [Eh]
	 Same-Spin Energy          =      -0.3170613629377392 [Eh]
	 Opposite-Spin Energy      =      -1.1035179387240306 [Eh]
	 Correlation Energy        =      -1.4205793016617698 [Eh]
	 Total Energy              =    -310.5970064699187105 [Eh]

	 ================> DF-SCS-MP2 Energies <==================
	-----------------------------------------------------------
	 SCS Same-Spin Scale       =       0.3333333333333333 [-]
	 SCS Opposite-Spin Scale   =       1.2000000000000000 [-]
	 SCS Same-Spin Energy      =      -0.1056871209792464 [Eh]
	 SCS Opposite-Spin Energy  =      -1.3242215264688366 [Eh]
	 SCS Correlation Energy    =      -1.4299086474480831 [Eh]
	 SCS Total Energy          =    -310.6063358157050516 [Eh]
	-----------------------------------------------------------

  Dipole Moment: [D]
     X:    -0.3669      Y:     2.2218      Z:    -1.4575     Total:     2.6824

*** Psi4 exiting successfully. Buy a developer a beer!
