                               Psi4 1.3.2 release

  ==> Input File <==

--------------------------------------------------------------------------
#psi4
#
memory 32 gb

molecule  {
0 1
  O        0.3935890    -1.1834810     0.6928250
  C       -1.1363630     0.3083220    -0.3952430
  C        0.2725062    -0.3497428     0.1017966
  C        1.4343240     0.6136100    -0.5100380
  C       -1.6230330     1.2650800     0.7040440
  C       -2.1008890    -0.8571740    -0.5744690
  C        2.7660710     0.0938090     0.0047360
  H       -1.0562100     0.8719860    -1.3362890
  H        1.2791640     1.6640640    -0.2248860
  H        1.4031030     0.6104820    -1.6083150
  H       -0.9521060     2.1204610     0.8293460
  H       -1.6846230     0.7313890     1.6588270
  H       -2.6168740     1.6507050     0.4584890
  H       -1.7562200    -1.5424760    -1.3562160
  H       -2.1750630    -1.4236530     0.3564710
  H       -3.0946750    -0.4900390    -0.8506910
  H        2.7911150     0.1168120     1.0954440
  H        2.9171760    -0.9417660    -0.3044500
  H        3.5913670     0.6986870    -0.3779970
units angstrom
no_reorient  #important for SAPT in psi4, default
symmetry c1  #important for SAPT in psi4, default
}

set PROPERTIES_ORIGIN ["COM"]
properties('MP2/aug-cc-pvtz', properties = ['dipole'])
--------------------------------------------------------------------------

    Molecular point group: c1
  Charge       = 0
  Multiplicity = 1
  Basis Set: AUG-CC-PVTZ
    Blend: AUG-CC-PVTZ
  Basis Set: (AUG-CC-PVTZ AUX)
    Blend: AUG-CC-PVTZ-JKFIT

    Orbital Energies [Eh]
    ---------------------

    Doubly Occupied:

       1A    -20.561388     2A    -11.310208     3A    -11.229209
       4A    -11.225288     5A    -11.220659     6A    -11.210751
       7A    -11.209794     8A     -1.534062     9A     -1.071256
      10A     -1.030871    11A     -0.931521    12A     -0.876000
      13A     -0.802858    14A     -0.739316    15A     -0.705876
      16A     -0.658630    17A     -0.648696    18A     -0.608579
      19A     -0.585225    20A     -0.552305    21A     -0.549872
      22A     -0.536138    23A     -0.531332    24A     -0.510714
      25A     -0.490623    26A     -0.480192    27A     -0.474974
      28A     -0.343538

  @DF-RHF Final Energy:  -309.10479951022126

   => Energetics <=

    Nuclear Repulsion Energy =            316.6878352238258572
    One-Electron Energy =               -1046.3255179501745715
    Two-Electron Energy =                 420.5328832161274022
    Total Energy =                       -309.1047995102212553
  Basis Set: (AUG-CC-PVTZ AUX)
    Blend: AUG-CC-PVTZ-RI
    Molecular point group: c1

    Geometry (in Angstrom), charge = 0, multiplicity = 1:

       Center              X                  Y                   Z               Mass
    ------------   -----------------  -----------------  -----------------  -----------------
         O            0.390767736090    -1.164054718794     0.679053858055    15.994914619570
         C           -1.139184263910     0.327748281206    -0.409014141945    12.000000000000
         C            0.269684936090    -0.330316518794     0.088025458055    12.000000000000
         C            1.431502736090     0.633036281206    -0.523809141945    12.000000000000
         C           -1.625854263910     1.284506281206     0.690272858055    12.000000000000
         C           -2.103710263910    -0.837747718794    -0.588240141945    12.000000000000
         C            2.763249736090     0.113235281206    -0.009035141945    12.000000000000
         H           -1.059031263910     0.891412281206    -1.350060141945     1.007825032230
         H            1.276342736090     1.683490281206    -0.238657141945     1.007825032230
         H            1.400281736090     0.629908281206    -1.622086141945     1.007825032230
         H           -0.954927263910     2.139887281206     0.815574858055     1.007825032230
         H           -1.687444263910     0.750815281206     1.645055858055     1.007825032230
         H           -2.619695263910     1.670131281206     0.444717858055     1.007825032230
         H           -1.759041263910    -1.523049718794    -1.369987141945     1.007825032230
         H           -2.177884263910    -1.404226718794     0.342699858055     1.007825032230
         H           -3.097496263910    -0.470612718794    -0.864462141945     1.007825032230
         H            2.788293736090     0.136238281206     1.081672858055     1.007825032230
         H            2.914354736090    -0.922339718794    -0.318221141945     1.007825032230
         H            3.588545736090     0.718113281206    -0.391768141945     1.007825032230

  Basis Set: AUG-CC-PVTZ
    Blend: AUG-CC-PVTZ
  Basis Set: (AUG-CC-PVTZ AUX)
    Blend: AUG-CC-PVTZ-JKFIT
	 Reference Energy          =    -309.1047995102212553 [Eh]
	 Singles Energy            =      -0.0000000000000000 [Eh]
	 Same-Spin Energy          =      -0.3129629318790059 [Eh]
	 Opposite-Spin Energy      =      -1.0946212683688195 [Eh]
	 Correlation Energy        =      -1.4075842002478254 [Eh]
	 Total Energy              =    -310.5123837104690665 [Eh]

	 ================> DF-SCS-MP2 Energies <==================
	-----------------------------------------------------------
	 SCS Same-Spin Scale       =       0.3333333333333333 [-]
	 SCS Opposite-Spin Scale   =       1.2000000000000000 [-]
	 SCS Same-Spin Energy      =      -0.1043209772930020 [Eh]
	 SCS Opposite-Spin Energy  =      -1.3135455220425833 [Eh]
	 SCS Correlation Energy    =      -1.4178664993355854 [Eh]
	 SCS Total Energy          =    -310.5226660095568150 [Eh]
	-----------------------------------------------------------

  Dipole Moment: [D]
     X:    -0.2167      Y:     1.3421      Z:    -0.9120     Total:     1.6370

*** Psi4 exiting successfully. Buy a developer a beer!
