                               Psi4 1.3.2 release

  ==> Input File <==

--------------------------------------------------------------------------
#psi4
#
memory 32 gb

molecule  {
0 1
  O        0.3935890    -1.1834810     0.6928250
  C       -1.1363630     0.3083220    -0.3952430
  C        0.2489750    -0.1877140    -0.0130640
  C        1.4343240     0.6136100    -0.5100380
  C       -1.6230330     1.2650800     0.7040440
  C       -2.1047202    -0.8498156    -0.5997300
  C        2.7660710     0.0938090     0.0047360
  H       -1.0686315     0.8598267    -1.3444343
  H        1.2791640     1.6640640    -0.2248860
  H        1.4031030     0.6104820    -1.6083150
  H       -0.9521060     2.1204610     0.8293460
  H       -1.6846230     0.7313890     1.6588270
  H       -2.6168740     1.6507050     0.4584890
  H       -1.7562200    -1.5424760    -1.3562160
  H       -2.1750630    -1.4236530     0.3564710
  H       -3.0946750    -0.4900390    -0.8506910
  H        2.7911150     0.1168120     1.0954440
  H        2.9171760    -0.9417660    -0.3044500
  H        3.5913670     0.6986870    -0.3779970
units angstrom
no_reorient  #important for SAPT in psi4, default
symmetry c1  #important for SAPT in psi4, default
}

set PROPERTIES_ORIGIN ["COM"]
properties('MP2/aug-cc-pvtz', properties = ['dipole'])
--------------------------------------------------------------------------

    Molecular point group: c1
  Charge       = 0
  Multiplicity = 1
  Basis Set: AUG-CC-PVTZ
    Blend: AUG-CC-PVTZ
  Basis Set: (AUG-CC-PVTZ AUX)
    Blend: AUG-CC-PVTZ-JKFIT

    Orbital Energies [Eh]
    ---------------------

    Doubly Occupied:

       1A    -20.540909     2A    -11.325136     3A    -11.241956
       4A    -11.239315     5A    -11.228977     6A    -11.215582
       7A    -11.215401     8A     -1.373125     9A     -1.090950
      10A     -1.047286    11A     -0.938191    12A     -0.907304
      13A     -0.822613    14A     -0.720723    15A     -0.672370
      16A     -0.632177    17A     -0.624465    18A     -0.606161
      19A     -0.570245    20A     -0.553224    21A     -0.541749
      22A     -0.519962    23A     -0.512908    24A     -0.506722
      25A     -0.493677    26A     -0.476598    27A     -0.470622
      28A     -0.402401

  @DF-RHF Final Energy:  -309.17577971422702

   => Energetics <=

    Nuclear Repulsion Energy =            314.9286331159228212
    One-Electron Energy =               -1043.2273237806255111
    Two-Electron Energy =                 419.1229109504756707
    Total Energy =                       -309.1757797142270192
  Basis Set: (AUG-CC-PVTZ AUX)
    Blend: AUG-CC-PVTZ-RI
    Molecular point group: c1

    Geometry (in Angstrom), charge = 0, multiplicity = 1:

       Center              X                  Y                   Z               Mass
    ------------   -----------------  -----------------  -----------------  -----------------
         O            0.394173386347    -1.184240710135     0.695935546955    15.994914619570
         C           -1.135778613653     0.307562289865    -0.392132453045    12.000000000000
         C            0.249559386347    -0.188473710135    -0.009953453045    12.000000000000
         C            1.434908386347     0.612850289865    -0.506927453045    12.000000000000
         C           -1.622448613653     1.264320289865     0.707154546955    12.000000000000
         C           -2.104135813653    -0.850575310135    -0.596619453045    12.000000000000
         C            2.766655386347     0.093049289865     0.007846546955    12.000000000000
         H           -1.068047113653     0.859066989865    -1.341323753045     1.007825032230
         H            1.279748386347     1.663304289865    -0.221775453045     1.007825032230
         H            1.403687386347     0.609722289865    -1.605204453045     1.007825032230
         H           -0.951521613653     2.119701289865     0.832456546955     1.007825032230
         H           -1.684038613653     0.730629289865     1.661937546955     1.007825032230
         H           -2.616289613653     1.649945289865     0.461599546955     1.007825032230
         H           -1.755635613653    -1.543235710135    -1.353105453045     1.007825032230
         H           -2.174478613653    -1.424412710135     0.359581546955     1.007825032230
         H           -3.094090613653    -0.490798710135    -0.847580453045     1.007825032230
         H            2.791699386347     0.116052289865     1.098554546955     1.007825032230
         H            2.917760386347    -0.942525710135    -0.301339453045     1.007825032230
         H            3.591951386347     0.697927289865    -0.374886453045     1.007825032230

  Basis Set: AUG-CC-PVTZ
    Blend: AUG-CC-PVTZ
  Basis Set: (AUG-CC-PVTZ AUX)
    Blend: AUG-CC-PVTZ-JKFIT
	 Reference Energy          =    -309.1757797142270192 [Eh]
	 Singles Energy            =      -0.0000000000000000 [Eh]
	 Same-Spin Energy          =      -0.3170714870404207 [Eh]
	 Opposite-Spin Energy      =      -1.1035532368485168 [Eh]
	 Correlation Energy        =      -1.4206247238889373 [Eh]
	 Total Energy              =    -310.5964044381159397 [Eh]

	 ================> DF-SCS-MP2 Energies <==================
	-----------------------------------------------------------
	 SCS Same-Spin Scale       =       0.3333333333333333 [-]
	 SCS Opposite-Spin Scale   =       1.2000000000000000 [-]
	 SCS Same-Spin Energy      =      -0.1056904956801402 [Eh]
	 SCS Opposite-Spin Energy  =      -1.3242638842182202 [Eh]
	 SCS Correlation Energy    =      -1.4299543798983603 [Eh]
	 SCS Total Energy          =    -310.6057340941253528 [Eh]
	-----------------------------------------------------------

  Dipole Moment: [D]
     X:    -0.3651      Y:     2.2233      Z:    -1.4612     Total:     2.6854

*** Psi4 exiting successfully. Buy a developer a beer!
