                               Psi4 1.3.2 release

  ==> Input File <==

--------------------------------------------------------------------------
#psi4
#
memory 32 gb

molecule  {
0 1
  O        0.3935890    -1.1834810     0.6928250
  C       -1.1308595     0.3184292    -0.4018437
  C        0.2489750    -0.1877140    -0.0130640
  C        1.4260595     0.6220339    -0.5159915
  C       -1.6230330     1.2650800     0.7040440
  C       -2.1008890    -0.8571740    -0.5744690
  C        2.7660710     0.0938090     0.0047360
  H       -1.0562100     0.8719860    -1.3362890
  H        1.2791640     1.6640640    -0.2248860
  H        1.4031030     0.6104820    -1.6083150
  H       -0.9521060     2.1204610     0.8293460
  H       -1.6846230     0.7313890     1.6588270
  H       -2.6168740     1.6507050     0.4584890
  H       -1.7562200    -1.5424760    -1.3562160
  H       -2.1750630    -1.4236530     0.3564710
  H       -3.0946750    -0.4900390    -0.8506910
  H        2.7911150     0.1168120     1.0954440
  H        2.9171760    -0.9417660    -0.3044500
  H        3.5913670     0.6986870    -0.3779970
units angstrom
no_reorient  #important for SAPT in psi4, default
symmetry c1  #important for SAPT in psi4, default
}

set PROPERTIES_ORIGIN ["COM"]
properties('MP2/aug-cc-pvtz', properties = ['dipole'])
--------------------------------------------------------------------------

    Molecular point group: c1
  Charge       = 0
  Multiplicity = 1
  Basis Set: AUG-CC-PVTZ
    Blend: AUG-CC-PVTZ
  Basis Set: (AUG-CC-PVTZ AUX)
    Blend: AUG-CC-PVTZ-JKFIT

    Orbital Energies [Eh]
    ---------------------

    Doubly Occupied:

       1A    -20.541316     2A    -11.325066     3A    -11.241236
       4A    -11.238355     5A    -11.228744     6A    -11.216043
       7A    -11.215662     8A     -1.373056     9A     -1.090759
      10A     -1.045357    11A     -0.936586    12A     -0.907363
      13A     -0.823500    14A     -0.722310    15A     -0.672659
      16A     -0.633011    17A     -0.622720    18A     -0.606432
      19A     -0.567532    20A     -0.550929    21A     -0.543983
      22A     -0.519998    23A     -0.512522    24A     -0.504764
      25A     -0.492740    26A     -0.483875    27A     -0.469403
      28A     -0.401717

  @DF-RHF Final Energy:  -309.17649713974913

   => Energetics <=

    Nuclear Repulsion Energy =            314.9130400905524425
    One-Electron Energy =               -1043.2037994615568550
    Two-Electron Energy =                 419.1142622312553385
    Total Energy =                       -309.1764971397491308
  Basis Set: (AUG-CC-PVTZ AUX)
    Blend: AUG-CC-PVTZ-RI
    Molecular point group: c1

    Geometry (in Angstrom), charge = 0, multiplicity = 1:

       Center              X                  Y                   Z               Mass
    ------------   -----------------  -----------------  -----------------  -----------------
         O            0.393920000406    -1.185702680155     0.694330066490    15.994914619570
         C           -1.130528499594     0.316207519845    -0.400338633510    12.000000000000
         C            0.249306000406    -0.189935680155    -0.011558933510    12.000000000000
         C            1.426390500406     0.619812219845    -0.514486433510    12.000000000000
         C           -1.622701999594     1.262858319845     0.705549066490    12.000000000000
         C           -2.100557999594    -0.859395680155    -0.572963933510    12.000000000000
         C            2.766402000406     0.091587319845     0.006241066490    12.000000000000
         H           -1.055878999594     0.869764319845    -1.334783933510     1.007825032230
         H            1.279495000406     1.661842319845    -0.223380933510     1.007825032230
         H            1.403434000406     0.608260319845    -1.606809933510     1.007825032230
         H           -0.951774999594     2.118239319845     0.830851066490     1.007825032230
         H           -1.684291999594     0.729167319845     1.660332066490     1.007825032230
         H           -2.616542999594     1.648483319845     0.459994066490     1.007825032230
         H           -1.755888999594    -1.544697680155    -1.354710933510     1.007825032230
         H           -2.174731999594    -1.425874680155     0.357976066490     1.007825032230
         H           -3.094343999594    -0.492260680155    -0.849185933510     1.007825032230
         H            2.791446000406     0.114590319845     1.096949066490     1.007825032230
         H            2.917507000406    -0.943987680155    -0.302944933510     1.007825032230
         H            3.591698000406     0.696465319845    -0.376491933510     1.007825032230

  Basis Set: AUG-CC-PVTZ
    Blend: AUG-CC-PVTZ
  Basis Set: (AUG-CC-PVTZ AUX)
    Blend: AUG-CC-PVTZ-JKFIT
	 Reference Energy          =    -309.1764971397491308 [Eh]
	 Singles Energy            =      -0.0000000000000000 [Eh]
	 Same-Spin Energy          =      -0.3169550311693864 [Eh]
	 Opposite-Spin Energy      =      -1.1034415781830504 [Eh]
	 Correlation Energy        =      -1.4203966093524367 [Eh]
	 Total Energy              =    -310.5968937491015822 [Eh]

	 ================> DF-SCS-MP2 Energies <==================
	-----------------------------------------------------------
	 SCS Same-Spin Scale       =       0.3333333333333333 [-]
	 SCS Opposite-Spin Scale   =       1.2000000000000000 [-]
	 SCS Same-Spin Energy      =      -0.1056516770564621 [Eh]
	 SCS Opposite-Spin Energy  =      -1.3241298938196604 [Eh]
	 SCS Correlation Energy    =      -1.4297815708761226 [Eh]
	 SCS Total Energy          =    -310.6062787106252472 [Eh]
	-----------------------------------------------------------

  Dipole Moment: [D]
     X:    -0.3762      Y:     2.2246      Z:    -1.4558     Total:     2.6851

*** Psi4 exiting successfully. Buy a developer a beer!
