                               Psi4 1.3.2 release

  ==> Input File <==

--------------------------------------------------------------------------
#psi4
#
memory 32 gb

molecule  {
0 1
  O        0.3935890    -1.1834810     0.6928250
  C       -1.1363630     0.3083220    -0.3952430
  C        0.2168261    -0.2213676     0.0515032
  C        1.4343240     0.6136100    -0.5100380
  C       -1.6230330     1.2650800     0.7040440
  C       -2.1008890    -0.8571740    -0.5744690
  C        2.7660710     0.0938090     0.0047360
  H       -1.1130003     0.8811868    -1.3338533
  H        1.2791640     1.6640640    -0.2248860
  H        1.4031030     0.6104820    -1.6083150
  H       -0.9521060     2.1204610     0.8293460
  H       -1.6846230     0.7313890     1.6588270
  H       -2.6168740     1.6507050     0.4584890
  H       -1.7562200    -1.5424760    -1.3562160
  H       -2.1750630    -1.4236530     0.3564710
  H       -3.0946750    -0.4900390    -0.8506910
  H        2.7911150     0.1168120     1.0954440
  H        2.9171760    -0.9417660    -0.3044500
  H        3.5913670     0.6986870    -0.3779970
units angstrom
no_reorient  #important for SAPT in psi4, default
symmetry c1  #important for SAPT in psi4, default
}

set PROPERTIES_ORIGIN ["COM"]
properties('MP2/aug-cc-pvtz', properties = ['dipole'])
--------------------------------------------------------------------------

    Molecular point group: c1
  Charge       = 0
  Multiplicity = 1
  Basis Set: AUG-CC-PVTZ
    Blend: AUG-CC-PVTZ
  Basis Set: (AUG-CC-PVTZ AUX)
    Blend: AUG-CC-PVTZ-JKFIT

    Orbital Energies [Eh]
    ---------------------

    Doubly Occupied:

       1A    -20.546766     2A    -11.321361     3A    -11.240013
       4A    -11.234168     5A    -11.227978     6A    -11.215697
       7A    -11.212043     8A     -1.416025     9A     -1.090358
      10A     -1.036876    11A     -0.938172    12A     -0.896262
      13A     -0.818136    14A     -0.725124    15A     -0.679505
      16A     -0.634336    17A     -0.625959    18A     -0.610404
      19A     -0.570733    20A     -0.549996    21A     -0.543804
      22A     -0.526081    23A     -0.519449    24A     -0.508431
      25A     -0.492246    26A     -0.480352    27A     -0.479730
      28A     -0.387764

  @DF-RHF Final Energy:  -309.17371053425330

   => Energetics <=

    Nuclear Repulsion Energy =            315.4808126547401343
    One-Electron Energy =               -1044.2535053740537023
    Two-Electron Energy =                 419.5989821850602652
    Total Energy =                       -309.1737105342533027
  Basis Set: (AUG-CC-PVTZ AUX)
    Blend: AUG-CC-PVTZ-RI
    Molecular point group: c1

    Geometry (in Angstrom), charge = 0, multiplicity = 1:

       Center              X                  Y                   Z               Mass
    ------------   -----------------  -----------------  -----------------  -----------------
         O            0.398015258062    -1.179538718644     0.685059184830    15.994914619570
         C           -1.131936741938     0.312264281356    -0.403008815170    12.000000000000
         C            0.221252358062    -0.217425318644     0.043737384830    12.000000000000
         C            1.438750258062     0.617552281356    -0.517803815170    12.000000000000
         C           -1.618606741938     1.269022281356     0.696278184830    12.000000000000
         C           -2.096462741938    -0.853231718644    -0.582234815170    12.000000000000
         C            2.770497258062     0.097751281356    -0.003029815170    12.000000000000
         H           -1.108574041938     0.885129081356    -1.341619115170     1.007825032230
         H            1.283590258062     1.668006281356    -0.232651815170     1.007825032230
         H            1.407529258062     0.614424281356    -1.616080815170     1.007825032230
         H           -0.947679741938     2.124403281356     0.821580184830     1.007825032230
         H           -1.680196741938     0.735331281356     1.651061184830     1.007825032230
         H           -2.612447741938     1.654647281356     0.450723184830     1.007825032230
         H           -1.751793741938    -1.538533718644    -1.363981815170     1.007825032230
         H           -2.170636741938    -1.419710718644     0.348705184830     1.007825032230
         H           -3.090248741938    -0.486096718644    -0.858456815170     1.007825032230
         H            2.795541258062     0.120754281356     1.087678184830     1.007825032230
         H            2.921602258062    -0.937823718644    -0.312215815170     1.007825032230
         H            3.595793258062     0.702629281356    -0.385762815170     1.007825032230

  Basis Set: AUG-CC-PVTZ
    Blend: AUG-CC-PVTZ
  Basis Set: (AUG-CC-PVTZ AUX)
    Blend: AUG-CC-PVTZ-JKFIT
	 Reference Energy          =    -309.1737105342533027 [Eh]
	 Singles Energy            =      -0.0000000000000000 [Eh]
	 Same-Spin Energy          =      -0.3156461520860298 [Eh]
	 Opposite-Spin Energy      =      -1.1005413227215306 [Eh]
	 Correlation Energy        =      -1.4161874748075602 [Eh]
	 Total Energy              =    -310.5898980090608461 [Eh]

	 ================> DF-SCS-MP2 Energies <==================
	-----------------------------------------------------------
	 SCS Same-Spin Scale       =       0.3333333333333333 [-]
	 SCS Opposite-Spin Scale   =       1.2000000000000000 [-]
	 SCS Same-Spin Energy      =      -0.1052153840286766 [Eh]
	 SCS Opposite-Spin Energy  =      -1.3206495872658366 [Eh]
	 SCS Correlation Energy    =      -1.4258649712945131 [Eh]
	 SCS Total Energy          =    -310.5995755055478185 [Eh]
	-----------------------------------------------------------

  Dipole Moment: [D]
     X:    -0.5585      Y:     1.9975      Z:    -1.2969     Total:     2.4462

*** Psi4 exiting successfully. Buy a developer a beer!
