                               Psi4 1.3.2 release

  ==> Input File <==

--------------------------------------------------------------------------
#psi4
#
memory 32 gb

molecule  {
0 1
  O        0.3935890    -1.1834810     0.6928250
  C       -1.1363630     0.3083220    -0.3952430
  C        0.2489750    -0.1877140    -0.0130640
  C        1.4343240     0.6136100    -0.5100380
  C       -1.6230330     1.2650800     0.7040440
  C       -2.0988631    -0.8607202    -0.5618176
  C        2.7660710     0.0938090     0.0047360
  H       -1.0500081     0.8780015    -1.3321087
  H        1.2791640     1.6640640    -0.2248860
  H        1.4031030     0.6104820    -1.6083150
  H       -0.9521060     2.1204610     0.8293460
  H       -1.6846230     0.7313890     1.6588270
  H       -2.6168740     1.6507050     0.4584890
  H       -1.7562200    -1.5424760    -1.3562160
  H       -2.1750630    -1.4236530     0.3564710
  H       -3.0946750    -0.4900390    -0.8506910
  H        2.7911150     0.1168120     1.0954440
  H        2.9171760    -0.9417660    -0.3044500
  H        3.5913670     0.6986870    -0.3779970
units angstrom
no_reorient  #important for SAPT in psi4, default
symmetry c1  #important for SAPT in psi4, default
}

set PROPERTIES_ORIGIN ["COM"]
properties('MP2/aug-cc-pvtz', properties = ['dipole'])
--------------------------------------------------------------------------

    Molecular point group: c1
  Charge       = 0
  Multiplicity = 1
  Basis Set: AUG-CC-PVTZ
    Blend: AUG-CC-PVTZ
  Basis Set: (AUG-CC-PVTZ AUX)
    Blend: AUG-CC-PVTZ-JKFIT

    Orbital Energies [Eh]
    ---------------------

    Doubly Occupied:

       1A    -20.540522     2A    -11.324599     3A    -11.242065
       4A    -11.239251     5A    -11.228589     6A    -11.216040
       7A    -11.215364     8A     -1.372937     9A     -1.091252
      10A     -1.047329    11A     -0.937562    12A     -0.907475
      13A     -0.822874    14A     -0.720689    15A     -0.672552
      16A     -0.632065    17A     -0.623201    18A     -0.606703
      19A     -0.567530    20A     -0.552101    21A     -0.545750
      22A     -0.520093    23A     -0.511889    24A     -0.505185
      25A     -0.492291    26A     -0.483363    27A     -0.469200
      28A     -0.401764

  @DF-RHF Final Energy:  -309.17642664727646

   => Energetics <=

    Nuclear Repulsion Energy =            315.1009767126973315
    One-Electron Energy =               -1043.5743398505426285
    Two-Electron Energy =                 419.2969364905688963
    Total Energy =                       -309.1764266472764575
  Basis Set: (AUG-CC-PVTZ AUX)
    Blend: AUG-CC-PVTZ-RI
    Molecular point group: c1

    Geometry (in Angstrom), charge = 0, multiplicity = 1:

       Center              X                  Y                   Z               Mass
    ------------   -----------------  -----------------  -----------------  -----------------
         O            0.393283633295    -1.183116326940     0.691265985744    15.994914619570
         C           -1.136668366705     0.308686673060    -0.396802014256    12.000000000000
         C            0.248669633295    -0.187349326940    -0.014623014256    12.000000000000
         C            1.434018633295     0.613974673060    -0.511597014256    12.000000000000
         C           -1.623338366705     1.265444673060     0.702484985744    12.000000000000
         C           -2.099168466705    -0.860355526940    -0.563376614256    12.000000000000
         C            2.765765633295     0.094173673060     0.003176985744    12.000000000000
         H           -1.050313466705     0.878366173060    -1.333667714256     1.007825032230
         H            1.278858633295     1.664428673060    -0.226445014256     1.007825032230
         H            1.402797633295     0.610846673060    -1.609874014256     1.007825032230
         H           -0.952411366705     2.120825673060     0.827786985744     1.007825032230
         H           -1.684928366705     0.731753673060     1.657267985744     1.007825032230
         H           -2.617179366705     1.651069673060     0.456929985744     1.007825032230
         H           -1.756525366705    -1.542111326940    -1.357775014256     1.007825032230
         H           -2.175368366705    -1.423288326940     0.354911985744     1.007825032230
         H           -3.094980366705    -0.489674326940    -0.852250014256     1.007825032230
         H            2.790809633295     0.117176673060     1.093884985744     1.007825032230
         H            2.916870633295    -0.941401326940    -0.306009014256     1.007825032230
         H            3.591061633295     0.699051673060    -0.379556014256     1.007825032230

  Basis Set: AUG-CC-PVTZ
    Blend: AUG-CC-PVTZ
  Basis Set: (AUG-CC-PVTZ AUX)
    Blend: AUG-CC-PVTZ-JKFIT
	 Reference Energy          =    -309.1764266472764575 [Eh]
	 Singles Energy            =      -0.0000000000000000 [Eh]
	 Same-Spin Energy          =      -0.3170685635149985 [Eh]
	 Opposite-Spin Energy      =      -1.1035148583429466 [Eh]
	 Correlation Energy        =      -1.4205834218579452 [Eh]
	 Total Energy              =    -310.5970100691343987 [Eh]

	 ================> DF-SCS-MP2 Energies <==================
	-----------------------------------------------------------
	 SCS Same-Spin Scale       =       0.3333333333333333 [-]
	 SCS Opposite-Spin Scale   =       1.2000000000000000 [-]
	 SCS Same-Spin Energy      =      -0.1056895211716662 [Eh]
	 SCS Opposite-Spin Energy  =      -1.3242178300115359 [Eh]
	 SCS Correlation Energy    =      -1.4299073511832021 [Eh]
	 SCS Total Energy          =    -310.6063339984596610 [Eh]
	-----------------------------------------------------------

  Dipole Moment: [D]
     X:    -0.3689      Y:     2.2204      Z:    -1.4505     Total:     2.6777

*** Psi4 exiting successfully. Buy a developer a beer!
