                               Psi4 1.3.2 release

  ==> Input File <==

--------------------------------------------------------------------------
#psi4
#
memory 32 gb

molecule  {
0 1
  O        0.3935890    -1.1834810     0.6928250
  C       -1.1363630     0.3083220    -0.3952430
  C        0.2408483    -0.1797688    -0.0198123
  C        1.4343240     0.6136100    -0.5100380
  C       -1.6230330     1.2650800     0.7040440
  C       -2.1008890    -0.8571740    -0.5744690
  C        2.7723307     0.1034034    -0.0019409
  H       -1.0562100     0.8719860    -1.3362890
  H        1.2791640     1.6640640    -0.2248860
  H        1.4031030     0.6104820    -1.6083150
  H       -0.9521060     2.1204610     0.8293460
  H       -1.6846230     0.7313890     1.6588270
  H       -2.6168740     1.6507050     0.4584890
  H       -1.7562200    -1.5424760    -1.3562160
  H       -2.1750630    -1.4236530     0.3564710
  H       -3.0946750    -0.4900390    -0.8506910
  H        2.7911150     0.1168120     1.0954440
  H        2.9171760    -0.9417660    -0.3044500
  H        3.5913670     0.6986870    -0.3779970
units angstrom
no_reorient  #important for SAPT in psi4, default
symmetry c1  #important for SAPT in psi4, default
}

set PROPERTIES_ORIGIN ["COM"]
properties('MP2/aug-cc-pvtz', properties = ['dipole'])
--------------------------------------------------------------------------

    Molecular point group: c1
  Charge       = 0
  Multiplicity = 1
  Basis Set: AUG-CC-PVTZ
    Blend: AUG-CC-PVTZ
  Basis Set: (AUG-CC-PVTZ AUX)
    Blend: AUG-CC-PVTZ-JKFIT

    Orbital Energies [Eh]
    ---------------------

    Doubly Occupied:

       1A    -20.539624     2A    -11.325965     3A    -11.242686
       4A    -11.239709     5A    -11.229563     6A    -11.216434
       7A    -11.215467     8A     -1.365491     9A     -1.093072
      10A     -1.047260    11A     -0.938469    12A     -0.908993
      13A     -0.824734    14A     -0.720214    15A     -0.671982
      16A     -0.630975    17A     -0.623624    18A     -0.604765
      19A     -0.568623    20A     -0.553839    21A     -0.545376
      22A     -0.520919    23A     -0.510150    24A     -0.504191
      25A     -0.491804    26A     -0.481855    27A     -0.466642
      28A     -0.404469

  @DF-RHF Final Energy:  -309.17490590366344

   => Energetics <=

    Nuclear Repulsion Energy =            314.9225702329766250
    One-Electron Energy =               -1043.2211635200790170
    Two-Electron Energy =                 419.1236873834390053
    Total Energy =                       -309.1749059036634435
  Basis Set: (AUG-CC-PVTZ AUX)
    Blend: AUG-CC-PVTZ-RI
    Molecular point group: c1

    Geometry (in Angstrom), charge = 0, multiplicity = 1:

       Center              X                  Y                   Z               Mass
    ------------   -----------------  -----------------  -----------------  -----------------
         O            0.393812815602    -1.185583805734     0.694434493743    15.994914619570
         C           -1.136139184398     0.306219194266    -0.393633506257    12.000000000000
         C            0.241072115602    -0.181871605734    -0.018202806257    12.000000000000
         C            1.434547815602     0.611507194266    -0.508428506257    12.000000000000
         C           -1.622809184398     1.262977194266     0.705653493743    12.000000000000
         C           -2.100665184398    -0.859276805734    -0.572859506257    12.000000000000
         C            2.772554515602     0.101300594266    -0.000331406257    12.000000000000
         H           -1.055986184398     0.869883194266    -1.334679506257     1.007825032230
         H            1.279387815602     1.661961194266    -0.223276506257     1.007825032230
         H            1.403326815602     0.608379194266    -1.606705506257     1.007825032230
         H           -0.951882184398     2.118358194266     0.830955493743     1.007825032230
         H           -1.684399184398     0.729286194266     1.660436493743     1.007825032230
         H           -2.616650184398     1.648602194266     0.460098493743     1.007825032230
         H           -1.755996184398    -1.544578805734    -1.354606506257     1.007825032230
         H           -2.174839184398    -1.425755805734     0.358080493743     1.007825032230
         H           -3.094451184398    -0.492141805734    -0.849081506257     1.007825032230
         H            2.791338815602     0.114709194266     1.097053493743     1.007825032230
         H            2.917399815602    -0.943868805734    -0.302840506257     1.007825032230
         H            3.591590815602     0.696584194266    -0.376387506257     1.007825032230

  Basis Set: AUG-CC-PVTZ
    Blend: AUG-CC-PVTZ
  Basis Set: (AUG-CC-PVTZ AUX)
    Blend: AUG-CC-PVTZ-JKFIT
	 Reference Energy          =    -309.1749059036634435 [Eh]
	 Singles Energy            =      -0.0000000000000000 [Eh]
	 Same-Spin Energy          =      -0.3174174704419581 [Eh]
	 Opposite-Spin Energy      =      -1.1042224196794166 [Eh]
	 Correlation Energy        =      -1.4216398901213747 [Eh]
	 Total Energy              =    -310.5965457937847987 [Eh]

	 ================> DF-SCS-MP2 Energies <==================
	-----------------------------------------------------------
	 SCS Same-Spin Scale       =       0.3333333333333333 [-]
	 SCS Opposite-Spin Scale   =       1.2000000000000000 [-]
	 SCS Same-Spin Energy      =      -0.1058058234806527 [Eh]
	 SCS Opposite-Spin Energy  =      -1.3250669036152998 [Eh]
	 SCS Correlation Energy    =      -1.4308727270959525 [Eh]
	 SCS Total Energy          =    -310.6057786307594029 [Eh]
	-----------------------------------------------------------

  Dipole Moment: [D]
     X:    -0.4090      Y:     2.2581      Z:    -1.4739     Total:     2.7274

*** Psi4 exiting successfully. Buy a developer a beer!
