                               Psi4 1.4a3.dev225

  ==> Input File <==

--------------------------------------------------------------------------
#psi4
#
memory 32 gb

molecule  {
0 1
  O        0.3867680    -1.0807900     0.9052720
  C       -1.1214160     0.2406750    -0.4118090
  C        0.2636879    -0.2581643     0.0684960
  C        1.4564740     0.4415910    -0.6154860
  C       -1.6022690     1.3118620     0.5765650
  C       -2.0946590    -0.9328810    -0.4718410
  C        2.7794930     0.0533630     0.0271350
  H       -1.0310200     0.6977280    -1.4061650
  H        1.3003680     1.5285790    -0.5907700
  H        1.4393040     0.1721120    -1.6810660
  H       -0.9145280     2.1623330     0.6220120
  H       -1.6816780     0.8793070     1.5782240
  H       -2.5863060     1.6880250     0.2813590
  H       -1.7648280    -1.6840550    -1.1955420
  H       -2.1566630    -1.4129490     0.5070730
  H       -3.0917530    -0.5897300    -0.7635520
  H        2.7964250     0.3427930     1.0801170
  H        2.9252090    -1.0274260    -0.0178250
  H        3.6147550     0.5417630    -0.4816370
units angstrom
no_reorient  #important for SAPT in psi4, default
symmetry c1  #important for SAPT in psi4, default
}

set PROPERTIES_ORIGIN ["COM"]
properties('MP2/aug-cc-pvtz', properties = ['dipole'])
--------------------------------------------------------------------------

    Molecular point group: c1
  Charge       = 0
  Multiplicity = 1
  Basis Set: AUG-CC-PVTZ
    Blend: AUG-CC-PVTZ
  Basis Set: (AUG-CC-PVTZ AUX)
    Blend: AUG-CC-PVTZ-JKFIT

    Orbital Energies [Eh]
    ---------------------

    Doubly Occupied:

       1A    -20.545142     2A    -11.321064     3A    -11.239401
       4A    -11.237085     5A    -11.225832     6A    -11.215086
       7A    -11.214631     8A     -1.407703     9A     -1.085796
      10A     -1.042779    11A     -0.936459    12A     -0.900001
      13A     -0.816854    14A     -0.722929    15A     -0.676117
      16A     -0.633149    17A     -0.625773    18A     -0.610665
      19A     -0.568899    20A     -0.550687    21A     -0.543951
      22A     -0.525290    23A     -0.518237    24A     -0.508646
      25A     -0.492894    26A     -0.481319    27A     -0.478322
      28A     -0.389868

  @DF-RHF Final Energy:  -309.17793262820203

   => Energetics <=

    Nuclear Repulsion Energy =            315.1539504322204266
    One-Electron Energy =               -1043.6346043618148087
    Two-Electron Energy =                 419.3027213013923529
    Total Energy =                       -309.1779326282020293
  Basis Set: (AUG-CC-PVTZ AUX)
    Blend: AUG-CC-PVTZ-RI
    Molecular point group: c1

    Geometry (in Angstrom), charge = 0, multiplicity = 1:

       Center              X                  Y                   Z               Mass
    ------------   -----------------  -----------------  -----------------  -----------------
         O            0.374755343485    -1.043967657172     0.880568780517    15.994914619570
         C           -1.133428656515     0.277497342828    -0.436512219483    12.000000000000
         C            0.251675243485    -0.221341957172     0.043792780517    12.000000000000
         C            1.444461343485     0.478413342828    -0.640189219483    12.000000000000
         C           -1.614281656515     1.348684342828     0.551861780517    12.000000000000
         C           -2.106671656515    -0.896058657172    -0.496544219483    12.000000000000
         C            2.767480343485     0.090185342828     0.002431780517    12.000000000000
         H           -1.043032656515     0.734550342828    -1.430868219483     1.007825032230
         H            1.288355343485     1.565401342828    -0.615473219483     1.007825032230
         H            1.427291343485     0.208934342828    -1.705769219483     1.007825032230
         H           -0.926540656515     2.199155342828     0.597308780517     1.007825032230
         H           -1.693690656515     0.916129342828     1.553520780517     1.007825032230
         H           -2.598318656515     1.724847342828     0.256655780517     1.007825032230
         H           -1.776840656515    -1.647232657172    -1.220245219483     1.007825032230
         H           -2.168675656515    -1.376126657172     0.482369780517     1.007825032230
         H           -3.103765656515    -0.552907657172    -0.788255219483     1.007825032230
         H            2.784412343485     0.379615342828     1.055413780517     1.007825032230
         H            2.913196343485    -0.990603657172    -0.042528219483     1.007825032230
         H            3.602742343485     0.578585342828    -0.506340219483     1.007825032230

  Basis Set: AUG-CC-PVTZ
    Blend: AUG-CC-PVTZ
  Basis Set: (AUG-CC-PVTZ AUX)
    Blend: AUG-CC-PVTZ-JKFIT
	 Reference Energy          =    -309.1779326282020293 [Eh]
	 Singles Energy            =      -0.0000000000000000 [Eh]
	 Same-Spin Energy          =      -0.3156466347834639 [Eh]
	 Opposite-Spin Energy      =      -1.1007179601807549 [Eh]
	 Correlation Energy        =      -1.4163645949642187 [Eh]
	 Total Energy              =    -310.5942972231662225 [Eh]

	 ================> DF-SCS-MP2 Energies <==================
	-----------------------------------------------------------
	 SCS Same-Spin Scale       =       0.3333333333333333 [-]
	 SCS Opposite-Spin Scale   =       1.2000000000000000 [-]
	 SCS Same-Spin Energy      =      -0.1052155449278213 [Eh]
	 SCS Opposite-Spin Energy  =      -1.3208615522169058 [Eh]
	 SCS Correlation Energy    =      -1.4260770971447272 [Eh]
	 SCS Total Energy          =    -310.6040097253467707 [Eh]
	-----------------------------------------------------------

  Dipole Moment: [D]
     X:    -0.2994      Y:     1.7630      Z:    -1.6885     Total:     2.4594

*** Psi4 exiting successfully. Buy a developer a beer!
