                               Psi4 1.4a3.dev225

  ==> Input File <==

--------------------------------------------------------------------------
#psi4
#
memory 32 gb

molecule  {
0 1
  O        0.3867680    -1.0807900     0.9052720
  C       -1.1214160     0.2406750    -0.4118090
  C        0.2584720    -0.2233030     0.0330350
  C        1.4722801     0.4503634    -0.6240424
  C       -1.6022690     1.3118620     0.5765650
  C       -2.0946590    -0.9328810    -0.4718410
  C        2.7794930     0.0533630     0.0271350
  H       -1.0310200     0.6977280    -1.4061650
  H        1.3003680     1.5285790    -0.5907700
  H        1.4393040     0.1721120    -1.6810660
  H       -0.9145280     2.1623330     0.6220120
  H       -1.6816780     0.8793070     1.5782240
  H       -2.5863060     1.6880250     0.2813590
  H       -1.7648280    -1.6840550    -1.1955420
  H       -2.1566630    -1.4129490     0.5070730
  H       -3.0917530    -0.5897300    -0.7635520
  H        2.7964250     0.3427930     1.0801170
  H        2.9252090    -1.0274260    -0.0178250
  H        3.6147550     0.5417630    -0.4816370
units angstrom
no_reorient  #important for SAPT in psi4, default
symmetry c1  #important for SAPT in psi4, default
}

set PROPERTIES_ORIGIN ["COM"]
properties('MP2/aug-cc-pvtz', properties = ['dipole'])
--------------------------------------------------------------------------

    Molecular point group: c1
  Charge       = 0
  Multiplicity = 1
  Basis Set: AUG-CC-PVTZ
    Blend: AUG-CC-PVTZ
  Basis Set: (AUG-CC-PVTZ AUX)
    Blend: AUG-CC-PVTZ-JKFIT

    Orbital Energies [Eh]
    ---------------------

    Doubly Occupied:

       1A    -20.540808     2A    -11.325872     3A    -11.242067
       4A    -11.239524     5A    -11.227842     6A    -11.216479
       7A    -11.215507     8A     -1.372021     9A     -1.090208
      10A     -1.047223    11A     -0.937974    12A     -0.905784
      13A     -0.822820    14A     -0.720262    15A     -0.670696
      16A     -0.633028    17A     -0.622572    18A     -0.605032
      19A     -0.569066    20A     -0.552907    21A     -0.544586
      22A     -0.519605    23A     -0.513134    24A     -0.508198
      25A     -0.493446    26A     -0.482364    27A     -0.469642
      28A     -0.399178

  @DF-RHF Final Energy:  -309.17640903294176

   => Energetics <=

    Nuclear Repulsion Energy =            314.6001700884082766
    One-Electron Energy =               -1042.5774638865639190
    Two-Electron Energy =                 418.8008847652138797
    Total Energy =                       -309.1764090329417627
  Basis Set: (AUG-CC-PVTZ AUX)
    Blend: AUG-CC-PVTZ-RI
    Molecular point group: c1

    Geometry (in Angstrom), charge = 0, multiplicity = 1:

       Center              X                  Y                   Z               Mass
    ------------   -----------------  -----------------  -----------------  -----------------
         O            0.373485647166    -1.049199054906     0.885846181393    15.994914619570
         C           -1.134698352834     0.272265945094    -0.431234818607    12.000000000000
         C            0.245189647166    -0.191712054906     0.013609181393    12.000000000000
         C            1.458997747166     0.481954345094    -0.643468218607    12.000000000000
         C           -1.615551352834     1.343452945094     0.557139181393    12.000000000000
         C           -2.107941352834    -0.901290054906    -0.491266818607    12.000000000000
         C            2.766210647166     0.084953945094     0.007709181393    12.000000000000
         H           -1.044302352834     0.729318945094    -1.425590818607     1.007825032230
         H            1.287085647166     1.560169945094    -0.610195818607     1.007825032230
         H            1.426021647166     0.203702945094    -1.700491818607     1.007825032230
         H           -0.927810352834     2.193923945094     0.602586181393     1.007825032230
         H           -1.694960352834     0.910897945094     1.558798181393     1.007825032230
         H           -2.599588352834     1.719615945094     0.261933181393     1.007825032230
         H           -1.778110352834    -1.652464054906    -1.214967818607     1.007825032230
         H           -2.169945352834    -1.381358054906     0.487647181393     1.007825032230
         H           -3.105035352834    -0.558139054906    -0.782977818607     1.007825032230
         H            2.783142647166     0.374383945094     1.060691181393     1.007825032230
         H            2.911926647166    -0.995835054906    -0.037250818607     1.007825032230
         H            3.601472647166     0.573353945094    -0.501062818607     1.007825032230

  Basis Set: AUG-CC-PVTZ
    Blend: AUG-CC-PVTZ
  Basis Set: (AUG-CC-PVTZ AUX)
    Blend: AUG-CC-PVTZ-JKFIT
	 Reference Energy          =    -309.1764090329417627 [Eh]
	 Singles Energy            =      -0.0000000000000000 [Eh]
	 Same-Spin Energy          =      -0.3169729209658972 [Eh]
	 Opposite-Spin Energy      =      -1.1035098772451266 [Eh]
	 Correlation Energy        =      -1.4204827982110237 [Eh]
	 Total Energy              =    -310.5968918311527887 [Eh]

	 ================> DF-SCS-MP2 Energies <==================
	-----------------------------------------------------------
	 SCS Same-Spin Scale       =       0.3333333333333333 [-]
	 SCS Opposite-Spin Scale   =       1.2000000000000000 [-]
	 SCS Same-Spin Energy      =      -0.1056576403219657 [Eh]
	 SCS Opposite-Spin Energy  =      -1.3242118526941520 [Eh]
	 SCS Correlation Energy    =      -1.4298694930161178 [Eh]
	 SCS Total Energy          =    -310.6062785259578618 [Eh]
	-----------------------------------------------------------

  Dipole Moment: [D]
     X:    -0.3498      Y:     1.9039      Z:    -1.8090     Total:     2.6495

*** Psi4 exiting successfully. Buy a developer a beer!
