                               Psi4 1.4a3.dev225

  ==> Input File <==

--------------------------------------------------------------------------
#psi4
#
memory 32 gb

molecule  {
0 1
  O        0.3867680    -1.0807900     0.9052720
  C       -1.1214160     0.2406750    -0.4118090
  C        0.2584720    -0.2233030     0.0330350
  C        1.4169588     0.4196599    -0.5940950
  C       -1.6022690     1.3118620     0.5765650
  C       -2.0946590    -0.9328810    -0.4718410
  C        2.7794930     0.0533630     0.0271350
  H       -1.0310200     0.6977280    -1.4061650
  H        1.3003680     1.5285790    -0.5907700
  H        1.4393040     0.1721120    -1.6810660
  H       -0.9145280     2.1623330     0.6220120
  H       -1.6816780     0.8793070     1.5782240
  H       -2.5863060     1.6880250     0.2813590
  H       -1.7648280    -1.6840550    -1.1955420
  H       -2.1566630    -1.4129490     0.5070730
  H       -3.0917530    -0.5897300    -0.7635520
  H        2.7964250     0.3427930     1.0801170
  H        2.9252090    -1.0274260    -0.0178250
  H        3.6147550     0.5417630    -0.4816370
units angstrom
no_reorient  #important for SAPT in psi4, default
symmetry c1  #important for SAPT in psi4, default
}

set PROPERTIES_ORIGIN ["COM"]
properties('MP2/aug-cc-pvtz', properties = ['dipole'])
--------------------------------------------------------------------------

    Molecular point group: c1
  Charge       = 0
  Multiplicity = 1
  Basis Set: AUG-CC-PVTZ
    Blend: AUG-CC-PVTZ
  Basis Set: (AUG-CC-PVTZ AUX)
    Blend: AUG-CC-PVTZ-JKFIT

    Orbital Energies [Eh]
    ---------------------

    Doubly Occupied:

       1A    -20.539628     2A    -11.322990     3A    -11.241460
       4A    -11.241272     5A    -11.227422     6A    -11.217664
       7A    -11.216129     8A     -1.373170     9A     -1.092228
      10A     -1.047214    11A     -0.937686    12A     -0.912073
      13A     -0.821917    14A     -0.722236    15A     -0.675196
      16A     -0.630711    17A     -0.623020    18A     -0.605901
      19A     -0.567793    20A     -0.554671    21A     -0.544507
      22A     -0.521729    23A     -0.513078    24A     -0.498580
      25A     -0.490299    26A     -0.481081    27A     -0.466888
      28A     -0.406133

  @DF-RHF Final Energy:  -309.17414677699884

   => Energetics <=

    Nuclear Repulsion Energy =            315.5035497444904991
    One-Electron Energy =               -1044.3700401557557598
    Two-Electron Energy =                 419.6923436342663649
    Total Energy =                       -309.1741467769988390
  Basis Set: (AUG-CC-PVTZ AUX)
    Blend: AUG-CC-PVTZ-RI
    Molecular point group: c1

    Geometry (in Angstrom), charge = 0, multiplicity = 1:

       Center              X                  Y                   Z               Mass
    ------------   -----------------  -----------------  -----------------  -----------------
         O            0.380118312364    -1.045517904320     0.882255682295    15.994914619570
         C           -1.128065687636     0.275947095680    -0.434825317705    12.000000000000
         C            0.251822312364    -0.188030904320     0.010018682295    12.000000000000
         C            1.410309112364     0.454931995680    -0.617111317705    12.000000000000
         C           -1.608918687636     1.347134095680     0.553548682295    12.000000000000
         C           -2.101308687636    -0.897608904320    -0.494857317705    12.000000000000
         C            2.772843312364     0.088635095680     0.004118682295    12.000000000000
         H           -1.037669687636     0.733000095680    -1.429181317705     1.007825032230
         H            1.293718312364     1.563851095680    -0.613786317705     1.007825032230
         H            1.432654312364     0.207384095680    -1.704082317705     1.007825032230
         H           -0.921177687636     2.197605095680     0.598995682295     1.007825032230
         H           -1.688327687636     0.914579095680     1.555207682295     1.007825032230
         H           -2.592955687636     1.723297095680     0.258342682295     1.007825032230
         H           -1.771477687636    -1.648782904320    -1.218558317705     1.007825032230
         H           -2.163312687636    -1.377676904320     0.484056682295     1.007825032230
         H           -3.098402687636    -0.554457904320    -0.786568317705     1.007825032230
         H            2.789775312364     0.378065095680     1.057100682295     1.007825032230
         H            2.918559312364    -0.992153904320    -0.040841317705     1.007825032230
         H            3.608105312364     0.577035095680    -0.504653317705     1.007825032230

  Basis Set: AUG-CC-PVTZ
    Blend: AUG-CC-PVTZ
  Basis Set: (AUG-CC-PVTZ AUX)
    Blend: AUG-CC-PVTZ-JKFIT
	 Reference Energy          =    -309.1741467769988390 [Eh]
	 Singles Energy            =      -0.0000000000000000 [Eh]
	 Same-Spin Energy          =      -0.3172761660223934 [Eh]
	 Opposite-Spin Energy      =      -1.1038037145837798 [Eh]
	 Correlation Energy        =      -1.4210798806061731 [Eh]
	 Total Energy              =    -310.5952266576049965 [Eh]

	 ================> DF-SCS-MP2 Energies <==================
	-----------------------------------------------------------
	 SCS Same-Spin Scale       =       0.3333333333333333 [-]
	 SCS Opposite-Spin Scale   =       1.2000000000000000 [-]
	 SCS Same-Spin Energy      =      -0.1057587220074645 [Eh]
	 SCS Opposite-Spin Energy  =      -1.3245644575005358 [Eh]
	 SCS Correlation Energy    =      -1.4303231795080003 [Eh]
	 SCS Total Energy          =    -310.6044699565068186 [Eh]
	-----------------------------------------------------------

  Dipole Moment: [D]
     X:    -0.2622      Y:     1.9524      Z:    -1.8664     Total:     2.7137

*** Psi4 exiting successfully. Buy a developer a beer!
