                               Psi4 1.3.2 release

  ==> Input File <==

--------------------------------------------------------------------------
#psi4
#
memory 32 gb

molecule  {
0 1
  O        0.3935890    -1.1834810     0.6928250
  C       -1.1363630     0.3083220    -0.3952430
  C        0.2438783    -0.1934199    -0.0022252
  C        1.4343240     0.6136100    -0.5100380
  C       -1.6230330     1.2650800     0.7040440
  C       -2.1008890    -0.8571740    -0.5744690
  C        2.7660710     0.0938090     0.0047360
  H       -1.0656640     0.8736275    -1.3360621
  H        1.2791640     1.6640640    -0.2248860
  H        1.4031030     0.6104820    -1.6083150
  H       -0.9521060     2.1204610     0.8293460
  H       -1.6846230     0.7313890     1.6588270
  H       -2.6168740     1.6507050     0.4584890
  H       -1.7562200    -1.5424760    -1.3562160
  H       -2.1750630    -1.4236530     0.3564710
  H       -3.0946750    -0.4900390    -0.8506910
  H        2.7911150     0.1168120     1.0954440
  H        2.9171760    -0.9417660    -0.3044500
  H        3.5913670     0.6986870    -0.3779970
units angstrom
no_reorient  #important for SAPT in psi4, default
symmetry c1  #important for SAPT in psi4, default
}

set PROPERTIES_ORIGIN ["COM"]
properties('MP2/aug-cc-pvtz', properties = ['dipole'])
--------------------------------------------------------------------------

    Molecular point group: c1
  Charge       = 0
  Multiplicity = 1
  Basis Set: AUG-CC-PVTZ
    Blend: AUG-CC-PVTZ
  Basis Set: (AUG-CC-PVTZ AUX)
    Blend: AUG-CC-PVTZ-JKFIT

    Orbital Energies [Eh]
    ---------------------

    Doubly Occupied:

       1A    -20.541644     2A    -11.324116     3A    -11.241580
       4A    -11.238549     5A    -11.228557     6A    -11.215769
       7A    -11.214837     8A     -1.380007     9A     -1.090859
      10A     -1.045585    11A     -0.937771    12A     -0.905537
      13A     -0.821937    14A     -0.721262    15A     -0.673464
      16A     -0.631629    17A     -0.624094    18A     -0.607721
      19A     -0.568553    20A     -0.551665    21A     -0.544528
      22A     -0.520646    23A     -0.513008    24A     -0.506408
      25A     -0.492804    26A     -0.481255    27A     -0.472116
      28A     -0.400051

  @DF-RHF Final Energy:  -309.17750185749662

   => Energetics <=

    Nuclear Repulsion Energy =            315.1118396406613442
    One-Electron Energy =               -1043.5867786679266374
    Two-Electron Energy =                 419.2974371697686138
    Total Energy =                       -309.1775018574966225
  Basis Set: (AUG-CC-PVTZ AUX)
    Blend: AUG-CC-PVTZ-RI
    Molecular point group: c1

    Geometry (in Angstrom), charge = 0, multiplicity = 1:

       Center              X                  Y                   Z               Mass
    ------------   -----------------  -----------------  -----------------  -----------------
         O            0.394295230923    -1.182813349762     0.691523112731    15.994914619570
         C           -1.135656769077     0.308989650238    -0.396544887269    12.000000000000
         C            0.244584530923    -0.192752249762    -0.003527087269    12.000000000000
         C            1.435030230923     0.614277650238    -0.511339887269    12.000000000000
         C           -1.622326769077     1.265747650238     0.702742112731    12.000000000000
         C           -2.100182769077    -0.856506349762    -0.575770887269    12.000000000000
         C            2.766777230923     0.094476650238     0.003434112731    12.000000000000
         H           -1.064957769077     0.874295150238    -1.337363987269     1.007825032230
         H            1.279870230923     1.664731650238    -0.226187887269     1.007825032230
         H            1.403809230923     0.611149650238    -1.609616887269     1.007825032230
         H           -0.951399769077     2.121128650238     0.828044112731     1.007825032230
         H           -1.683916769077     0.732056650238     1.657525112731     1.007825032230
         H           -2.616167769077     1.651372650238     0.457187112731     1.007825032230
         H           -1.755513769077    -1.541808349762    -1.357517887269     1.007825032230
         H           -2.174356769077    -1.422985349762     0.355169112731     1.007825032230
         H           -3.093968769077    -0.489371349762    -0.851992887269     1.007825032230
         H            2.791821230923     0.117479650238     1.094142112731     1.007825032230
         H            2.917882230923    -0.941098349762    -0.305751887269     1.007825032230
         H            3.592073230923     0.699354650238    -0.379298887269     1.007825032230

  Basis Set: AUG-CC-PVTZ
    Blend: AUG-CC-PVTZ
  Basis Set: (AUG-CC-PVTZ AUX)
    Blend: AUG-CC-PVTZ-JKFIT
	 Reference Energy          =    -309.1775018574966225 [Eh]
	 Singles Energy            =      -0.0000000000000000 [Eh]
	 Same-Spin Energy          =      -0.3167719715027223 [Eh]
	 Opposite-Spin Energy      =      -1.1029134755299173 [Eh]
	 Correlation Energy        =      -1.4196854470326397 [Eh]
	 Total Energy              =    -310.5971873045292568 [Eh]

	 ================> DF-SCS-MP2 Energies <==================
	-----------------------------------------------------------
	 SCS Same-Spin Scale       =       0.3333333333333333 [-]
	 SCS Opposite-Spin Scale   =       1.2000000000000000 [-]
	 SCS Same-Spin Energy      =      -0.1055906571675741 [Eh]
	 SCS Opposite-Spin Energy  =      -1.3234961706359007 [Eh]
	 SCS Correlation Energy    =      -1.4290868278034750 [Eh]
	 SCS Total Energy          =    -310.6065886853000961 [Eh]
	-----------------------------------------------------------

  Dipole Moment: [D]
     X:    -0.3966      Y:     2.1862      Z:    -1.4304     Total:     2.6425

*** Psi4 exiting successfully. Buy a developer a beer!
