                               Psi4 1.3.2 release

  ==> Input File <==

--------------------------------------------------------------------------
#psi4
#
memory 32 gb

molecule  {
0 1
  O        0.3935890    -1.1834810     0.6928250
  C       -1.1363630     0.3083220    -0.3952430
  C        0.2254438    -0.0256852    -0.1279246
  C        1.4343240     0.6136100    -0.5100380
  C       -1.6230330     1.2650800     0.7040440
  C       -2.1008890    -0.8571740    -0.5744690
  C        2.7660710     0.0938090     0.0047360
  H       -1.0562100     0.8719860    -1.3362890
  H        1.2791640     1.6640640    -0.2248860
  H        1.4031030     0.6104820    -1.6083150
  H       -0.9521060     2.1204610     0.8293460
  H       -1.6846230     0.7313890     1.6588270
  H       -2.6168740     1.6507050     0.4584890
  H       -1.7562200    -1.5424760    -1.3562160
  H       -2.1750630    -1.4236530     0.3564710
  H       -3.0946750    -0.4900390    -0.8506910
  H        2.7911150     0.1168120     1.0954440
  H        2.9171760    -0.9417660    -0.3044500
  H        3.5913670     0.6986870    -0.3779970
units angstrom
no_reorient  #important for SAPT in psi4, default
symmetry c1  #important for SAPT in psi4, default
}

set PROPERTIES_ORIGIN ["COM"]
properties('MP2/aug-cc-pvtz', properties = ['dipole'])
--------------------------------------------------------------------------

    Molecular point group: c1
  Charge       = 0
  Multiplicity = 1
  Basis Set: AUG-CC-PVTZ
    Blend: AUG-CC-PVTZ
  Basis Set: (AUG-CC-PVTZ AUX)
    Blend: AUG-CC-PVTZ-JKFIT

    Orbital Energies [Eh]
    ---------------------

    Doubly Occupied:

       1A    -20.518840     2A    -11.340698     3A    -11.249934
       4A    -11.249038     5A    -11.237052     6A    -11.221085
       7A    -11.220931     8A     -1.266264     9A     -1.107998
      10A     -1.065617    11A     -0.943693    12A     -0.933209
      13A     -0.849521    14A     -0.716518    15A     -0.668805
      16A     -0.641545    17A     -0.629499    18A     -0.581756
      19A     -0.565089    20A     -0.560697    21A     -0.546556
      22A     -0.515943    23A     -0.513108    24A     -0.505534
      25A     -0.493569    26A     -0.465982    27A     -0.411837
      28A     -0.407551

  @DF-RHF Final Energy:  -309.10474763719122

   => Energetics <=

    Nuclear Repulsion Energy =            314.3054979376528308
    One-Electron Energy =               -1041.9647530291133535
    Two-Electron Energy =                 418.5545074542692987
    Total Energy =                       -309.1047476371912239
  Basis Set: (AUG-CC-PVTZ AUX)
    Blend: AUG-CC-PVTZ-RI
    Molecular point group: c1

    Geometry (in Angstrom), charge = 0, multiplicity = 1:

       Center              X                  Y                   Z               Mass
    ------------   -----------------  -----------------  -----------------  -----------------
         O            0.396410212724    -1.202907124028     0.706595940553    15.994914619570
         C           -1.133541787276     0.288895875972    -0.381472059447    12.000000000000
         C            0.228265012724    -0.045111324028    -0.114153659447    12.000000000000
         C            1.437145212724     0.594183875972    -0.496267059447    12.000000000000
         C           -1.620211787276     1.245653875972     0.717814940553    12.000000000000
         C           -2.098067787276    -0.876600124028    -0.560698059447    12.000000000000
         C            2.768892212724     0.074382875972     0.018506940553    12.000000000000
         H           -1.053388787276     0.852559875972    -1.322518059447     1.007825032230
         H            1.281985212724     1.644637875972    -0.211115059447     1.007825032230
         H            1.405924212724     0.591055875972    -1.594544059447     1.007825032230
         H           -0.949284787276     2.101034875972     0.843116940553     1.007825032230
         H           -1.681801787276     0.711962875972     1.672597940553     1.007825032230
         H           -2.614052787276     1.631278875972     0.472259940553     1.007825032230
         H           -1.753398787276    -1.561902124028    -1.342445059447     1.007825032230
         H           -2.172241787276    -1.443079124028     0.370241940553     1.007825032230
         H           -3.091853787276    -0.509465124028    -0.836920059447     1.007825032230
         H            2.793936212724     0.097385875972     1.109214940553     1.007825032230
         H            2.919997212724    -0.961192124028    -0.290679059447     1.007825032230
         H            3.594188212724     0.679260875972    -0.364226059447     1.007825032230

  Basis Set: AUG-CC-PVTZ
    Blend: AUG-CC-PVTZ
  Basis Set: (AUG-CC-PVTZ AUX)
    Blend: AUG-CC-PVTZ-JKFIT
	 Reference Energy          =    -309.1047476371912239 [Eh]
	 Singles Energy            =      -0.0000000000000000 [Eh]
	 Same-Spin Energy          =      -0.3246692632284001 [Eh]
	 Opposite-Spin Energy      =      -1.1179648938337503 [Eh]
	 Correlation Energy        =      -1.4426341570621504 [Eh]
	 Total Energy              =    -310.5473817942533969 [Eh]

	 ================> DF-SCS-MP2 Energies <==================
	-----------------------------------------------------------
	 SCS Same-Spin Scale       =       0.3333333333333333 [-]
	 SCS Opposite-Spin Scale   =       1.2000000000000000 [-]
	 SCS Same-Spin Energy      =      -0.1082230877428000 [Eh]
	 SCS Opposite-Spin Energy  =      -1.3415578726005004 [Eh]
	 SCS Correlation Energy    =      -1.4497809603433005 [Eh]
	 SCS Total Energy          =    -310.5545285975344996 [Eh]
	-----------------------------------------------------------

  Dipole Moment: [D]
     X:    -0.4370      Y:     2.6949      Z:    -1.7272     Total:     3.2306

*** Psi4 exiting successfully. Buy a developer a beer!
