                               Psi4 1.3.2 release

  ==> Input File <==

--------------------------------------------------------------------------
#psi4
#
memory 32 gb

molecule  {
0 1
  O        0.3935890    -1.1834810     0.6928250
  C       -1.1363630     0.3083220    -0.3952430
  C        0.2532954    -0.1751760    -0.0126819
  C        1.4343240     0.6136100    -0.5100380
  C       -1.6230330     1.2650800     0.7040440
  C       -2.1106047    -0.8486006    -0.5774422
  C        2.7660710     0.0938090     0.0047360
  H       -1.0562100     0.8719860    -1.3362890
  H        1.2791640     1.6640640    -0.2248860
  H        1.4031030     0.6104820    -1.6083150
  H       -0.9521060     2.1204610     0.8293460
  H       -1.6846230     0.7313890     1.6588270
  H       -2.6168740     1.6507050     0.4584890
  H       -1.7562200    -1.5424760    -1.3562160
  H       -2.1750630    -1.4236530     0.3564710
  H       -3.0946750    -0.4900390    -0.8506910
  H        2.7911150     0.1168120     1.0954440
  H        2.9171760    -0.9417660    -0.3044500
  H        3.5913670     0.6986870    -0.3779970
units angstrom
no_reorient  #important for SAPT in psi4, default
symmetry c1  #important for SAPT in psi4, default
}

set PROPERTIES_ORIGIN ["COM"]
properties('MP2/aug-cc-pvtz', properties = ['dipole'])
--------------------------------------------------------------------------

    Molecular point group: c1
  Charge       = 0
  Multiplicity = 1
  Basis Set: AUG-CC-PVTZ
    Blend: AUG-CC-PVTZ
  Basis Set: (AUG-CC-PVTZ AUX)
    Blend: AUG-CC-PVTZ-JKFIT

    Orbital Energies [Eh]
    ---------------------

    Doubly Occupied:

       1A    -20.539893     2A    -11.325782     3A    -11.242355
       4A    -11.240013     5A    -11.228584     6A    -11.215925
       7A    -11.215881     8A     -1.366742     9A     -1.091543
      10A     -1.049014    11A     -0.937528    12A     -0.909083
      13A     -0.823524    14A     -0.720522    15A     -0.672097
      16A     -0.632920    17A     -0.622626    18A     -0.604745
      19A     -0.569123    20A     -0.553351    21A     -0.543996
      22A     -0.520313    23A     -0.511068    24A     -0.506407
      25A     -0.491757    26A     -0.480454    27A     -0.466951
      28A     -0.403978

  @DF-RHF Final Energy:  -309.17514974565267

   => Energetics <=

    Nuclear Repulsion Energy =            314.9332763173872536
    One-Electron Energy =               -1043.2445056339356597
    Two-Electron Energy =                 419.1360795708957312
    Total Energy =                       -309.1751497456526749
  Basis Set: (AUG-CC-PVTZ AUX)
    Blend: AUG-CC-PVTZ-RI
    Molecular point group: c1

    Geometry (in Angstrom), charge = 0, multiplicity = 1:

       Center              X                  Y                   Z               Mass
    ------------   -----------------  -----------------  -----------------  -----------------
         O            0.394235835896    -1.186012041396     0.693135555395    15.994914619570
         C           -1.135716164104     0.305790958604    -0.394932444605    12.000000000000
         C            0.253942235896    -0.177707041396    -0.012371344605    12.000000000000
         C            1.434970835896     0.611078958604    -0.509727444605    12.000000000000
         C           -1.622386164104     1.262548958604     0.704354555395    12.000000000000
         C           -2.109957864104    -0.851131641396    -0.577131644605    12.000000000000
         C            2.766717835896     0.091277958604     0.005046555395    12.000000000000
         H           -1.055563164104     0.869454958604    -1.335978444605     1.007825032230
         H            1.279810835896     1.661532958604    -0.224575444605     1.007825032230
         H            1.403749835896     0.607950958604    -1.608004444605     1.007825032230
         H           -0.951459164104     2.117929958604     0.829656555395     1.007825032230
         H           -1.683976164104     0.728857958604     1.659137555395     1.007825032230
         H           -2.616227164104     1.648173958604     0.458799555395     1.007825032230
         H           -1.755573164104    -1.545007041396    -1.355905444605     1.007825032230
         H           -2.174416164104    -1.426184041396     0.356781555395     1.007825032230
         H           -3.094028164104    -0.492570041396    -0.850380444605     1.007825032230
         H            2.791761835896     0.114280958604     1.095754555395     1.007825032230
         H            2.917822835896    -0.944297041396    -0.304139444605     1.007825032230
         H            3.592013835896     0.696155958604    -0.377686444605     1.007825032230

  Basis Set: AUG-CC-PVTZ
    Blend: AUG-CC-PVTZ
  Basis Set: (AUG-CC-PVTZ AUX)
    Blend: AUG-CC-PVTZ-JKFIT
	 Reference Energy          =    -309.1751497456526749 [Eh]
	 Singles Energy            =      -0.0000000000000000 [Eh]
	 Same-Spin Energy          =      -0.3173569872198734 [Eh]
	 Opposite-Spin Energy      =      -1.1041006170841268 [Eh]
	 Correlation Energy        =      -1.4214576043040001 [Eh]
	 Total Energy              =    -310.5966073499566846 [Eh]

	 ================> DF-SCS-MP2 Energies <==================
	-----------------------------------------------------------
	 SCS Same-Spin Scale       =       0.3333333333333333 [-]
	 SCS Opposite-Spin Scale   =       1.2000000000000000 [-]
	 SCS Same-Spin Energy      =      -0.1057856624066245 [Eh]
	 SCS Opposite-Spin Energy  =      -1.3249207405009520 [Eh]
	 SCS Correlation Energy    =      -1.4307064029075764 [Eh]
	 SCS Total Energy          =    -310.6058561485602354 [Eh]
	-----------------------------------------------------------

  Dipole Moment: [D]
     X:    -0.3451      Y:     2.2568      Z:    -1.4765     Total:     2.7189

*** Psi4 exiting successfully. Buy a developer a beer!
