                               Psi4 1.3.2 release

  ==> Input File <==

--------------------------------------------------------------------------
#psi4
#
memory 32 gb

molecule  {
0 1
  O        0.3935890    -1.1834810     0.6928250
  C       -1.1363630     0.3083220    -0.3952430
  C        0.2489750    -0.1877140    -0.0130640
  C        1.4343240     0.6136100    -0.5100380
  C       -1.6230330     1.2650800     0.7040440
  C       -2.1114967    -0.8340427    -0.6500574
  C        2.7660710     0.0938090     0.0047360
  H       -1.0935328     0.8350080    -1.3598552
  H        1.2791640     1.6640640    -0.2248860
  H        1.4031030     0.6104820    -1.6083150
  H       -0.9521060     2.1204610     0.8293460
  H       -1.6846230     0.7313890     1.6588270
  H       -2.6168740     1.6507050     0.4584890
  H       -1.7562200    -1.5424760    -1.3562160
  H       -2.1750630    -1.4236530     0.3564710
  H       -3.0946750    -0.4900390    -0.8506910
  H        2.7911150     0.1168120     1.0954440
  H        2.9171760    -0.9417660    -0.3044500
  H        3.5913670     0.6986870    -0.3779970
units angstrom
no_reorient  #important for SAPT in psi4, default
symmetry c1  #important for SAPT in psi4, default
}

set PROPERTIES_ORIGIN ["COM"]
properties('MP2/aug-cc-pvtz', properties = ['dipole'])
--------------------------------------------------------------------------

    Molecular point group: c1
  Charge       = 0
  Multiplicity = 1
  Basis Set: AUG-CC-PVTZ
    Blend: AUG-CC-PVTZ
  Basis Set: (AUG-CC-PVTZ AUX)
    Blend: AUG-CC-PVTZ-JKFIT

    Orbital Energies [Eh]
    ---------------------

    Doubly Occupied:

       1A    -20.541514     2A    -11.325942     3A    -11.242188
       4A    -11.239468     5A    -11.229598     6A    -11.215936
       7A    -11.215496     8A     -1.373468     9A     -1.090875
      10A     -1.047363    11A     -0.939526    12A     -0.907236
      13A     -0.822697    14A     -0.721183    15A     -0.672340
      16A     -0.632515    17A     -0.626629    18A     -0.605666
      19A     -0.575977    20A     -0.554928    21A     -0.537942
      22A     -0.521455    23A     -0.513184    24A     -0.507241
      25A     -0.495939    26A     -0.472130    27A     -0.463222
      28A     -0.403261

  @DF-RHF Final Energy:  -309.16922964482063

   => Energetics <=

    Nuclear Repulsion Energy =            314.7125079905464986
    One-Electron Energy =               -1042.7736357871631299
    Two-Electron Energy =                 418.8918981517959423
    Total Energy =                       -309.1692296448206321
  Basis Set: (AUG-CC-PVTZ AUX)
    Blend: AUG-CC-PVTZ-RI
    Molecular point group: c1

    Geometry (in Angstrom), charge = 0, multiplicity = 1:

       Center              X                  Y                   Z               Mass
    ------------   -----------------  -----------------  -----------------  -----------------
         O            0.395236583603    -1.185881871466     0.702124753701    15.994914619570
         C           -1.134715416397     0.305921128534    -0.385943246299    12.000000000000
         C            0.250622583603    -0.190114871466    -0.003764246299    12.000000000000
         C            1.435971583603     0.611209128534    -0.500738246299    12.000000000000
         C           -1.621385416397     1.262679128534     0.713343753701    12.000000000000
         C           -2.109849116397    -0.836443571466    -0.640757646299    12.000000000000
         C            2.767718583603     0.091408128534     0.014035753701    12.000000000000
         H           -1.091885216397     0.832607128534    -1.350555446299     1.007825032230
         H            1.280811583603     1.661663128534    -0.215586246299     1.007825032230
         H            1.404750583603     0.608081128534    -1.599015246299     1.007825032230
         H           -0.950458416397     2.118060128534     0.838645753701     1.007825032230
         H           -1.682975416397     0.728988128534     1.668126753701     1.007825032230
         H           -2.615226416397     1.648304128534     0.467788753701     1.007825032230
         H           -1.754572416397    -1.544876871466    -1.346916246299     1.007825032230
         H           -2.173415416397    -1.426053871466     0.365770753701     1.007825032230
         H           -3.093027416397    -0.492439871466    -0.841391246299     1.007825032230
         H            2.792762583603     0.114411128534     1.104743753701     1.007825032230
         H            2.918823583603    -0.944166871466    -0.295150246299     1.007825032230
         H            3.593014583603     0.696286128534    -0.368697246299     1.007825032230

  Basis Set: AUG-CC-PVTZ
    Blend: AUG-CC-PVTZ
  Basis Set: (AUG-CC-PVTZ AUX)
    Blend: AUG-CC-PVTZ-JKFIT
	 Reference Energy          =    -309.1692296448206321 [Eh]
	 Singles Energy            =      -0.0000000000000000 [Eh]
	 Same-Spin Energy          =      -0.3172032673053841 [Eh]
	 Opposite-Spin Energy      =      -1.1039161682151049 [Eh]
	 Correlation Energy        =      -1.4211194355204890 [Eh]
	 Total Energy              =    -310.5903490803411273 [Eh]

	 ================> DF-SCS-MP2 Energies <==================
	-----------------------------------------------------------
	 SCS Same-Spin Scale       =       0.3333333333333333 [-]
	 SCS Opposite-Spin Scale   =       1.2000000000000000 [-]
	 SCS Same-Spin Energy      =      -0.1057344224351280 [Eh]
	 SCS Opposite-Spin Energy  =      -1.3246994018581257 [Eh]
	 SCS Correlation Energy    =      -1.4304338242932537 [Eh]
	 SCS Total Energy          =    -310.5996634691138638 [Eh]
	-----------------------------------------------------------

  Dipole Moment: [D]
     X:    -0.3537      Y:     2.2335      Z:    -1.4776     Total:     2.7013

*** Psi4 exiting successfully. Buy a developer a beer!
