                               Psi4 1.3.2 release

  ==> Input File <==

--------------------------------------------------------------------------
#psi4
#
memory 32 gb

molecule  {
0 1
  O        0.3935890    -1.1834810     0.6928250
  C       -1.1363630     0.3083220    -0.3952430
  C        0.2656204    -0.1373451    -0.0117104
  C        1.4343240     0.6136100    -0.5100380
  C       -1.6230330     1.2650800     0.7040440
  C       -2.1393038    -0.8223543    -0.5862777
  C        2.7660710     0.0938090     0.0047360
  H       -1.0562100     0.8719860    -1.3362890
  H        1.2791640     1.6640640    -0.2248860
  H        1.4031030     0.6104820    -1.6083150
  H       -0.9521060     2.1204610     0.8293460
  H       -1.6846230     0.7313890     1.6588270
  H       -2.6168740     1.6507050     0.4584890
  H       -1.7562200    -1.5424760    -1.3562160
  H       -2.1750630    -1.4236530     0.3564710
  H       -3.0946750    -0.4900390    -0.8506910
  H        2.7911150     0.1168120     1.0954440
  H        2.9171760    -0.9417660    -0.3044500
  H        3.5913670     0.6986870    -0.3779970
units angstrom
no_reorient  #important for SAPT in psi4, default
symmetry c1  #important for SAPT in psi4, default
}

set PROPERTIES_ORIGIN ["COM"]
properties('MP2/aug-cc-pvtz', properties = ['dipole'])
--------------------------------------------------------------------------

    Molecular point group: c1
  Charge       = 0
  Multiplicity = 1
  Basis Set: AUG-CC-PVTZ
    Blend: AUG-CC-PVTZ
  Basis Set: (AUG-CC-PVTZ AUX)
    Blend: AUG-CC-PVTZ-JKFIT

    Orbital Energies [Eh]
    ---------------------

    Doubly Occupied:

       1A    -20.537718     2A    -11.329071     3A    -11.243759
       4A    -11.242054     5A    -11.228310     6A    -11.217571
       7A    -11.216515     8A     -1.348429     9A     -1.093250
      10A     -1.054107    11A     -0.937406    12A     -0.914030
      13A     -0.826131    14A     -0.720468    15A     -0.671272
      16A     -0.635796    17A     -0.620327    18A     -0.599204
      19A     -0.574945    20A     -0.556234    21A     -0.541646
      22A     -0.521392    23A     -0.509132    24A     -0.506868
      25A     -0.487913    26A     -0.476480    27A     -0.458134
      28A     -0.408680

  @DF-RHF Final Energy:  -309.16533118928834

   => Energetics <=

    Nuclear Repulsion Energy =            314.6205144183544462
    One-Electron Energy =               -1042.6180022104963427
    Two-Electron Energy =                 418.8321566028535585
    Total Energy =                       -309.1653311892883380
  Basis Set: (AUG-CC-PVTZ AUX)
    Blend: AUG-CC-PVTZ-RI
    Molecular point group: c1

    Geometry (in Angstrom), charge = 0, multiplicity = 1:

       Center              X                  Y                   Z               Mass
    ------------   -----------------  -----------------  -----------------  -----------------
         O            0.396198984326    -1.193694482236     0.694078398009    15.994914619570
         C           -1.133753015674     0.298108517764    -0.393989601991    12.000000000000
         C            0.268230384326    -0.147558582236    -0.010457001991    12.000000000000
         C            1.436933984326     0.603396517764    -0.508784601991    12.000000000000
         C           -1.620423015674     1.254866517764     0.705297398009    12.000000000000
         C           -2.136693815674    -0.832567782236    -0.585024301991    12.000000000000
         C            2.768680984326     0.083595517764     0.005989398009    12.000000000000
         H           -1.053600015674     0.861772517764    -1.335035601991     1.007825032230
         H            1.281773984326     1.653850517764    -0.223632601991     1.007825032230
         H            1.405712984326     0.600268517764    -1.607061601991     1.007825032230
         H           -0.949496015674     2.110247517764     0.830599398009     1.007825032230
         H           -1.682013015674     0.721175517764     1.660080398009     1.007825032230
         H           -2.614264015674     1.640491517764     0.459742398009     1.007825032230
         H           -1.753610015674    -1.552689482236    -1.354962601991     1.007825032230
         H           -2.172453015674    -1.433866482236     0.357724398009     1.007825032230
         H           -3.092065015674    -0.500252482236    -0.849437601991     1.007825032230
         H            2.793724984326     0.106598517764     1.096697398009     1.007825032230
         H            2.919785984326    -0.951979482236    -0.303196601991     1.007825032230
         H            3.593976984326     0.688473517764    -0.376743601991     1.007825032230

  Basis Set: AUG-CC-PVTZ
    Blend: AUG-CC-PVTZ
  Basis Set: (AUG-CC-PVTZ AUX)
    Blend: AUG-CC-PVTZ-JKFIT
	 Reference Energy          =    -309.1653311892883380 [Eh]
	 Singles Energy            =      -0.0000000000000000 [Eh]
	 Same-Spin Energy          =      -0.3184137985862100 [Eh]
	 Opposite-Spin Energy      =      -1.1062363310542744 [Eh]
	 Correlation Energy        =      -1.4246501296404843 [Eh]
	 Total Energy              =    -310.5899813189288352 [Eh]

	 ================> DF-SCS-MP2 Energies <==================
	-----------------------------------------------------------
	 SCS Same-Spin Scale       =       0.3333333333333333 [-]
	 SCS Opposite-Spin Scale   =       1.2000000000000000 [-]
	 SCS Same-Spin Energy      =      -0.1061379328620700 [Eh]
	 SCS Opposite-Spin Energy  =      -1.3274835972651293 [Eh]
	 SCS Correlation Energy    =      -1.4336215301271993 [Eh]
	 SCS Total Energy          =    -310.5989527194155357 [Eh]
	-----------------------------------------------------------

  Dipole Moment: [D]
     X:    -0.2767      Y:     2.3585      Z:    -1.5393     Total:     2.8299

*** Psi4 exiting successfully. Buy a developer a beer!
