                               Psi4 1.3.2 release

  ==> Input File <==

--------------------------------------------------------------------------
#psi4
#
memory 32 gb

molecule  {
0 1
  O        0.3935890    -1.1834810     0.6928250
  C       -1.1363630     0.3083220    -0.3952430
  C        0.2489750    -0.1877140    -0.0130640
  C        1.5908422     0.7194200    -0.5756604
  C       -1.6230330     1.2650800     0.7040440
  C       -2.1008890    -0.8571740    -0.5744690
  C        2.7660710     0.0938090     0.0047360
  H       -1.0562100     0.8719860    -1.3362890
  H        1.2791640     1.6640640    -0.2248860
  H        1.4031030     0.6104820    -1.6083150
  H       -0.9521060     2.1204610     0.8293460
  H       -1.6846230     0.7313890     1.6588270
  H       -2.6168740     1.6507050     0.4584890
  H       -1.7562200    -1.5424760    -1.3562160
  H       -2.1750630    -1.4236530     0.3564710
  H       -3.0946750    -0.4900390    -0.8506910
  H        2.7911150     0.1168120     1.0954440
  H        2.9171760    -0.9417660    -0.3044500
  H        3.5913670     0.6986870    -0.3779970
units angstrom
no_reorient  #important for SAPT in psi4, default
symmetry c1  #important for SAPT in psi4, default
}

set PROPERTIES_ORIGIN ["COM"]
properties('MP2/aug-cc-pvtz', properties = ['dipole'])
--------------------------------------------------------------------------

    Molecular point group: c1
  Charge       = 0
  Multiplicity = 1
  Basis Set: AUG-CC-PVTZ
    Blend: AUG-CC-PVTZ
  Basis Set: (AUG-CC-PVTZ AUX)
    Blend: AUG-CC-PVTZ-JKFIT

    Orbital Energies [Eh]
    ---------------------

    Doubly Occupied:

       1A    -20.542967     2A    -11.327653     3A    -11.242791
       4A    -11.239824     5A    -11.229279     6A    -11.216086
       7A    -11.212381     8A     -1.369997     9A     -1.087399
      10A     -1.052643    11A     -0.937917    12A     -0.893065
      13A     -0.826179    14A     -0.716121    15A     -0.660250
      16A     -0.641976    17A     -0.622305    18A     -0.603437
      19A     -0.570069    20A     -0.560050    21A     -0.545270
      22A     -0.525394    23A     -0.513062    24A     -0.509430
      25A     -0.500657    26A     -0.480492    27A     -0.472436
      28A     -0.371161

  @DF-RHF Final Energy:  -309.14731049102437

   => Energetics <=

    Nuclear Repulsion Energy =            312.6215459911396124
    One-Electron Energy =               -1038.5971278481272293
    Two-Electron Energy =                 416.8282713659633032
    Total Energy =                       -309.1473104910243705
  Basis Set: (AUG-CC-PVTZ AUX)
    Blend: AUG-CC-PVTZ-RI
    Molecular point group: c1

    Geometry (in Angstrom), charge = 0, multiplicity = 1:

       Center              X                  Y                   Z               Mass
    ------------   -----------------  -----------------  -----------------  -----------------
         O            0.374823457002    -1.196166854398     0.700692599606    15.994914619570
         C           -1.155128542998     0.295636145602    -0.387375400394    12.000000000000
         C            0.230209457002    -0.200399854398    -0.005196400394    12.000000000000
         C            1.572076657002     0.706734145602    -0.567792800394    12.000000000000
         C           -1.641798542998     1.252394145602     0.711911599606    12.000000000000
         C           -2.119654542998    -0.869859854398    -0.566601400394    12.000000000000
         C            2.747305457002     0.081123145602     0.012603599606    12.000000000000
         H           -1.074975542998     0.859300145602    -1.328421400394     1.007825032230
         H            1.260398457002     1.651378145602    -0.217018400394     1.007825032230
         H            1.384337457002     0.597796145602    -1.600447400394     1.007825032230
         H           -0.970871542998     2.107775145602     0.837213599606     1.007825032230
         H           -1.703388542998     0.718703145602     1.666694599606     1.007825032230
         H           -2.635639542998     1.638019145602     0.466356599606     1.007825032230
         H           -1.774985542998    -1.555161854398    -1.348348400394     1.007825032230
         H           -2.193828542998    -1.436338854398     0.364338599606     1.007825032230
         H           -3.113440542998    -0.502724854398    -0.842823400394     1.007825032230
         H            2.772349457002     0.104126145602     1.103311599606     1.007825032230
         H            2.898410457002    -0.954451854398    -0.296582400394     1.007825032230
         H            3.572601457002     0.686001145602    -0.370129400394     1.007825032230

  Basis Set: AUG-CC-PVTZ
    Blend: AUG-CC-PVTZ
  Basis Set: (AUG-CC-PVTZ AUX)
    Blend: AUG-CC-PVTZ-JKFIT
	 Reference Energy          =    -309.1473104910243705 [Eh]
	 Singles Energy            =      -0.0000000000000000 [Eh]
	 Same-Spin Energy          =      -0.3181990760812833 [Eh]
	 Opposite-Spin Energy      =      -1.1060634441896282 [Eh]
	 Correlation Energy        =      -1.4242625202709114 [Eh]
	 Total Energy              =    -310.5715730112952997 [Eh]

	 ================> DF-SCS-MP2 Energies <==================
	-----------------------------------------------------------
	 SCS Same-Spin Scale       =       0.3333333333333333 [-]
	 SCS Opposite-Spin Scale   =       1.2000000000000000 [-]
	 SCS Same-Spin Energy      =      -0.1060663586937611 [Eh]
	 SCS Opposite-Spin Energy  =      -1.3272761330275538 [Eh]
	 SCS Correlation Energy    =      -1.4333424917213149 [Eh]
	 SCS Total Energy          =    -310.5806529827456757 [Eh]
	-----------------------------------------------------------

  Dipole Moment: [D]
     X:    -0.5844      Y:     2.0451      Z:    -1.3289     Total:     2.5080

*** Psi4 exiting successfully. Buy a developer a beer!
