                               Psi4 1.4a3.dev225

  ==> Input File <==

--------------------------------------------------------------------------
#psi4
#
memory 32 gb

molecule  {
0 1
  O        0.3867680    -1.0807900     0.9052720
  C       -1.1214160     0.2406750    -0.4118090
  C        0.2584720    -0.2233030     0.0330350
  C        1.4959892     0.4635221    -0.6368770
  C       -1.6022690     1.3118620     0.5765650
  C       -2.0946590    -0.9328810    -0.4718410
  C        2.7794930     0.0533630     0.0271350
  H       -1.0310200     0.6977280    -1.4061650
  H        1.3003680     1.5285790    -0.5907700
  H        1.4393040     0.1721120    -1.6810660
  H       -0.9145280     2.1623330     0.6220120
  H       -1.6816780     0.8793070     1.5782240
  H       -2.5863060     1.6880250     0.2813590
  H       -1.7648280    -1.6840550    -1.1955420
  H       -2.1566630    -1.4129490     0.5070730
  H       -3.0917530    -0.5897300    -0.7635520
  H        2.7964250     0.3427930     1.0801170
  H        2.9252090    -1.0274260    -0.0178250
  H        3.6147550     0.5417630    -0.4816370
units angstrom
no_reorient  #important for SAPT in psi4, default
symmetry c1  #important for SAPT in psi4, default
}

set PROPERTIES_ORIGIN ["COM"]
properties('MP2/aug-cc-pvtz', properties = ['dipole'])
--------------------------------------------------------------------------

    Molecular point group: c1
  Charge       = 0
  Multiplicity = 1
  Basis Set: AUG-CC-PVTZ
    Blend: AUG-CC-PVTZ
  Basis Set: (AUG-CC-PVTZ AUX)
    Blend: AUG-CC-PVTZ-JKFIT

    Orbital Energies [Eh]
    ---------------------

    Doubly Occupied:

       1A    -20.541228     2A    -11.326718     3A    -11.242262
       4A    -11.239108     5A    -11.227972     6A    -11.216579
       7A    -11.214784     8A     -1.371551     9A     -1.089530
      10A     -1.047633    11A     -0.938053    12A     -0.903318
      13A     -0.823287    14A     -0.719473    15A     -0.668731
      16A     -0.634347    17A     -0.622386    18A     -0.604538
      19A     -0.569505    20A     -0.552803    21A     -0.544662
      22A     -0.518811    23A     -0.514658    24A     -0.510188
      25A     -0.494861    26A     -0.482433    27A     -0.470368
      28A     -0.395447

  @DF-RHF Final Energy:  -309.17459156858831

   => Energetics <=

    Nuclear Repulsion Energy =            314.2264622430138843
    One-Electron Energy =               -1041.8316405602727173
    Two-Electron Energy =                 418.4305867486705210
    Total Energy =                       -309.1745915685883119
  Basis Set: (AUG-CC-PVTZ AUX)
    Blend: AUG-CC-PVTZ-RI
    Molecular point group: c1

    Geometry (in Angstrom), charge = 0, multiplicity = 1:

       Center              X                  Y                   Z               Mass
    ------------   -----------------  -----------------  -----------------  -----------------
         O            0.370643079793    -1.050776697723     0.887384966720    15.994914619570
         C           -1.137540920207     0.270688302277    -0.429696033280    12.000000000000
         C            0.242347079793    -0.193289697723     0.015147966720    12.000000000000
         C            1.479864279793     0.493535402277    -0.654764033280    12.000000000000
         C           -1.618393920207     1.341875302277     0.558677966720    12.000000000000
         C           -2.110783920207    -0.902867697723    -0.489728033280    12.000000000000
         C            2.763368079793     0.083376302277     0.009247966720    12.000000000000
         H           -1.047144920207     0.727741302277    -1.424052033280     1.007825032230
         H            1.284243079793     1.558592302277    -0.608657033280     1.007825032230
         H            1.423179079793     0.202125302277    -1.698953033280     1.007825032230
         H           -0.930652920207     2.192346302277     0.604124966720     1.007825032230
         H           -1.697802920207     0.909320302277     1.560336966720     1.007825032230
         H           -2.602430920207     1.718038302277     0.263471966720     1.007825032230
         H           -1.780952920207    -1.654041697723    -1.213429033280     1.007825032230
         H           -2.172787920207    -1.382935697723     0.489185966720     1.007825032230
         H           -3.107877920207    -0.559716697723    -0.781439033280     1.007825032230
         H            2.780300079793     0.372806302277     1.062229966720     1.007825032230
         H            2.909084079793    -0.997412697723    -0.035712033280     1.007825032230
         H            3.598630079793     0.571776302277    -0.499524033280     1.007825032230

  Basis Set: AUG-CC-PVTZ
    Blend: AUG-CC-PVTZ
  Basis Set: (AUG-CC-PVTZ AUX)
    Blend: AUG-CC-PVTZ-JKFIT
	 Reference Energy          =    -309.1745915685883119 [Eh]
	 Singles Energy            =      -0.0000000000000000 [Eh]
	 Same-Spin Energy          =      -0.3169866752286041 [Eh]
	 Opposite-Spin Energy      =      -1.1036210043819259 [Eh]
	 Correlation Energy        =      -1.4206076796105300 [Eh]
	 Total Energy              =    -310.5951992481988668 [Eh]

	 ================> DF-SCS-MP2 Energies <==================
	-----------------------------------------------------------
	 SCS Same-Spin Scale       =       0.3333333333333333 [-]
	 SCS Opposite-Spin Scale   =       1.2000000000000000 [-]
	 SCS Same-Spin Energy      =      -0.1056622250762013 [Eh]
	 SCS Opposite-Spin Energy  =      -1.3243452052583111 [Eh]
	 SCS Correlation Energy    =      -1.4300074303345125 [Eh]
	 SCS Total Energy          =    -310.6045989989228246 [Eh]
	-----------------------------------------------------------

  Dipole Moment: [D]
     X:    -0.3840      Y:     1.8836      Z:    -1.7852     Total:     2.6234

*** Psi4 exiting successfully. Buy a developer a beer!
