                               Psi4 1.3.2 release

  ==> Input File <==

--------------------------------------------------------------------------
#psi4
#
memory 32 gb

molecule  {
0 1
  O        0.3935890    -1.1834810     0.6928250
  C       -1.1363630     0.3083220    -0.3952430
  C        0.2186109    -0.1206280     0.0163572
  C        1.4343240     0.6136100    -0.5100380
  C       -1.6230330     1.2650800     0.7040440
  C       -2.1008890    -0.8571740    -0.5744690
  C        2.7660710     0.0938090     0.0047360
  H       -1.0562100     0.8719860    -1.3362890
  H        1.2293656     1.6485262    -0.2005540
  H        1.4031030     0.6104820    -1.6083150
  H       -0.9521060     2.1204610     0.8293460
  H       -1.6846230     0.7313890     1.6588270
  H       -2.6168740     1.6507050     0.4584890
  H       -1.7562200    -1.5424760    -1.3562160
  H       -2.1750630    -1.4236530     0.3564710
  H       -3.0946750    -0.4900390    -0.8506910
  H        2.7911150     0.1168120     1.0954440
  H        2.9171760    -0.9417660    -0.3044500
  H        3.5913670     0.6986870    -0.3779970
units angstrom
no_reorient  #important for SAPT in psi4, default
symmetry c1  #important for SAPT in psi4, default
}

set PROPERTIES_ORIGIN ["COM"]
properties('MP2/aug-cc-pvtz', properties = ['dipole'])
--------------------------------------------------------------------------

    Molecular point group: c1
  Charge       = 0
  Multiplicity = 1
  Basis Set: AUG-CC-PVTZ
    Blend: AUG-CC-PVTZ
  Basis Set: (AUG-CC-PVTZ AUX)
    Blend: AUG-CC-PVTZ-JKFIT

    Orbital Energies [Eh]
    ---------------------

    Doubly Occupied:

       1A    -20.535726     2A    -11.327931     3A    -11.243933
       4A    -11.241523     5A    -11.231494     6A    -11.218250
       7A    -11.216088     8A     -1.344880     9A     -1.098852
      10A     -1.047503    11A     -0.940739    12A     -0.912606
      13A     -0.829438    14A     -0.719331    15A     -0.669032
      16A     -0.633897    17A     -0.624008    18A     -0.596401
      19A     -0.569714    20A     -0.554382    21A     -0.546203
      22A     -0.516594    23A     -0.510457    24A     -0.505204
      25A     -0.494397    26A     -0.482605    27A     -0.456041
      28A     -0.406853

  @DF-RHF Final Energy:  -309.16536365443164

   => Energetics <=

    Nuclear Repulsion Energy =            315.0274162559794604
    One-Electron Energy =               -1043.4373957299799258
    Two-Electron Energy =                 419.2446158195688213
    Total Energy =                       -309.1653636544316441
  Basis Set: (AUG-CC-PVTZ AUX)
    Blend: AUG-CC-PVTZ-RI
    Molecular point group: c1

    Geometry (in Angstrom), charge = 0, multiplicity = 1:

       Center              X                  Y                   Z               Mass
    ------------   -----------------  -----------------  -----------------  -----------------
         O            0.397730868524    -1.191367642981     0.689052481790    15.994914619570
         C           -1.132221131476     0.300435357019    -0.399015518210    12.000000000000
         C            0.222752768524    -0.128514642981     0.012584681790    12.000000000000
         C            1.438465868524     0.605723357019    -0.513810518210    12.000000000000
         C           -1.618891131476     1.257193357019     0.700271481790    12.000000000000
         C           -2.096747131476    -0.865060642981    -0.578241518210    12.000000000000
         C            2.770212868524     0.085922357019     0.000963481790    12.000000000000
         H           -1.052068131476     0.864099357019    -1.340061518210     1.007825032230
         H            1.233507468524     1.640639557019    -0.204326518210     1.007825032230
         H            1.407244868524     0.602595357019    -1.612087518210     1.007825032230
         H           -0.947964131476     2.112574357019     0.825573481790     1.007825032230
         H           -1.680481131476     0.723502357019     1.655054481790     1.007825032230
         H           -2.612732131476     1.642818357019     0.454716481790     1.007825032230
         H           -1.752078131476    -1.550362642981    -1.359988518210     1.007825032230
         H           -2.170921131476    -1.431539642981     0.352698481790     1.007825032230
         H           -3.090533131476    -0.497925642981    -0.854463518210     1.007825032230
         H            2.795256868524     0.108925357019     1.091671481790     1.007825032230
         H            2.921317868524    -0.949652642981    -0.308222518210     1.007825032230
         H            3.595508868524     0.690800357019    -0.381769518210     1.007825032230

  Basis Set: AUG-CC-PVTZ
    Blend: AUG-CC-PVTZ
  Basis Set: (AUG-CC-PVTZ AUX)
    Blend: AUG-CC-PVTZ-JKFIT
	 Reference Energy          =    -309.1653636544316441 [Eh]
	 Singles Energy            =      -0.0000000000000000 [Eh]
	 Same-Spin Energy          =      -0.3187041353426279 [Eh]
	 Opposite-Spin Energy      =      -1.1066544147809880 [Eh]
	 Correlation Energy        =      -1.4253585501236159 [Eh]
	 Total Energy              =    -310.5907222045552771 [Eh]

	 ================> DF-SCS-MP2 Energies <==================
	-----------------------------------------------------------
	 SCS Same-Spin Scale       =       0.3333333333333333 [-]
	 SCS Opposite-Spin Scale   =       1.2000000000000000 [-]
	 SCS Same-Spin Energy      =      -0.1062347117808760 [Eh]
	 SCS Opposite-Spin Energy  =      -1.3279852977371855 [Eh]
	 SCS Correlation Energy    =      -1.4342200095180615 [Eh]
	 SCS Total Energy          =    -310.5995836639497156 [Eh]
	-----------------------------------------------------------

  Dipole Moment: [D]
     X:    -0.5233      Y:     2.3300      Z:    -1.5076     Total:     2.8241

*** Psi4 exiting successfully. Buy a developer a beer!
