                               Psi4 1.3.2 release

  ==> Input File <==

--------------------------------------------------------------------------
#psi4
#
memory 32 gb

molecule  {
0 1
  O        0.3935890    -1.1834810     0.6928250
  C       -1.1363630     0.3083220    -0.3952430
  C        0.2015900    -0.1391490    -0.0541033
  C        1.4343240     0.6136100    -0.5100380
  C       -1.6230330     1.2650800     0.7040440
  C       -2.1008890    -0.8571740    -0.5744690
  C        2.8020918     0.1519437    -0.0358958
  H       -1.0562100     0.8719860    -1.3362890
  H        1.2791640     1.6640640    -0.2248860
  H        1.4031030     0.6104820    -1.6083150
  H       -0.9521060     2.1204610     0.8293460
  H       -1.6846230     0.7313890     1.6588270
  H       -2.6168740     1.6507050     0.4584890
  H       -1.7562200    -1.5424760    -1.3562160
  H       -2.1750630    -1.4236530     0.3564710
  H       -3.0946750    -0.4900390    -0.8506910
  H        2.7911150     0.1168120     1.0954440
  H        2.9171760    -0.9417660    -0.3044500
  H        3.5913670     0.6986870    -0.3779970
units angstrom
no_reorient  #important for SAPT in psi4, default
symmetry c1  #important for SAPT in psi4, default
}

set PROPERTIES_ORIGIN ["COM"]
properties('MP2/aug-cc-pvtz', properties = ['dipole'])
--------------------------------------------------------------------------

    Molecular point group: c1
  Charge       = 0
  Multiplicity = 1
  Basis Set: AUG-CC-PVTZ
    Blend: AUG-CC-PVTZ
  Basis Set: (AUG-CC-PVTZ AUX)
    Blend: AUG-CC-PVTZ-JKFIT

    Orbital Energies [Eh]
    ---------------------

    Doubly Occupied:

       1A    -20.534436     2A    -11.332335     3A    -11.245305
       4A    -11.242857     5A    -11.233990     6A    -11.219539
       7A    -11.217029     8A     -1.330116     9A     -1.103389
      10A     -1.047708    11A     -0.942162    12A     -0.917971
      13A     -0.835418    14A     -0.718809    15A     -0.669939
      16A     -0.627492    17A     -0.626673    18A     -0.595381
      19A     -0.576148    20A     -0.561092    21A     -0.548408
      22A     -0.522887    23A     -0.504740    24A     -0.496501
      25A     -0.487651    26A     -0.479066    27A     -0.448437
      28A     -0.412550

  @DF-RHF Final Energy:  -309.15167417178174

   => Energetics <=

    Nuclear Repulsion Energy =            314.3885939544349526
    One-Electron Energy =               -1042.1244802136034195
    Two-Electron Energy =                 418.5842120873866747
    Total Energy =                       -309.1516741717817354
  Basis Set: (AUG-CC-PVTZ AUX)
    Blend: AUG-CC-PVTZ-RI
    Molecular point group: c1

    Geometry (in Angstrom), charge = 0, multiplicity = 1:

       Center              X                  Y                   Z               Mass
    ------------   -----------------  -----------------  -----------------  -----------------
         O            0.394951468308    -1.196273523660     0.702616734685    15.994914619570
         C           -1.135000531692     0.295529476340    -0.385451265315    12.000000000000
         C            0.202952468308    -0.151941523660    -0.044311565315    12.000000000000
         C            1.435686468308     0.600817476340    -0.500246265315    12.000000000000
         C           -1.621670531692     1.252287476340     0.713835734685    12.000000000000
         C           -2.099526531692    -0.869966523660    -0.564677265315    12.000000000000
         C            2.803454268308     0.139151176340    -0.026104065315    12.000000000000
         H           -1.054847531692     0.859193476340    -1.326497265315     1.007825032230
         H            1.280526468308     1.651271476340    -0.215094265315     1.007825032230
         H            1.404465468308     0.597689476340    -1.598523265315     1.007825032230
         H           -0.950743531692     2.107668476340     0.839137734685     1.007825032230
         H           -1.683260531692     0.718596476340     1.668618734685     1.007825032230
         H           -2.615511531692     1.637912476340     0.468280734685     1.007825032230
         H           -1.754857531692    -1.555268523660    -1.346424265315     1.007825032230
         H           -2.173700531692    -1.436445523660     0.366262734685     1.007825032230
         H           -3.093312531692    -0.502831523660    -0.840899265315     1.007825032230
         H            2.792477468308     0.104019476340     1.105235734685     1.007825032230
         H            2.918538468308    -0.954558523660    -0.294658265315     1.007825032230
         H            3.592729468308     0.685894476340    -0.368205265315     1.007825032230

  Basis Set: AUG-CC-PVTZ
    Blend: AUG-CC-PVTZ
  Basis Set: (AUG-CC-PVTZ AUX)
    Blend: AUG-CC-PVTZ-JKFIT
	 Reference Energy          =    -309.1516741717817354 [Eh]
	 Singles Energy            =      -0.0000000000000000 [Eh]
	 Same-Spin Energy          =      -0.3196398989609409 [Eh]
	 Opposite-Spin Energy      =      -1.1086588579854035 [Eh]
	 Correlation Energy        =      -1.4282987569463446 [Eh]
	 Total Energy              =    -310.5799729287280684 [Eh]

	 ================> DF-SCS-MP2 Energies <==================
	-----------------------------------------------------------
	 SCS Same-Spin Scale       =       0.3333333333333333 [-]
	 SCS Opposite-Spin Scale   =       1.2000000000000000 [-]
	 SCS Same-Spin Energy      =      -0.1065466329869803 [Eh]
	 SCS Opposite-Spin Energy  =      -1.3303906295824841 [Eh]
	 SCS Correlation Energy    =      -1.4369372625694643 [Eh]
	 SCS Total Energy          =    -310.5886114343512077 [Eh]
	-----------------------------------------------------------

  Dipole Moment: [D]
     X:    -0.6062      Y:     2.4275      Z:    -1.5617     Total:     2.9494

*** Psi4 exiting successfully. Buy a developer a beer!
