                               Psi4 1.3.2 release

  ==> Input File <==

--------------------------------------------------------------------------
#psi4
#
memory 32 gb

molecule  {
0 1
  O        0.3935890    -1.1834810     0.6928250
  C       -1.1363630     0.3083220    -0.3952430
  C        0.2710282    -0.2312289    -0.0334400
  C        1.4343240     0.6136100    -0.5100380
  C       -1.6230330     1.2650800     0.7040440
  C       -2.1008890    -0.8571740    -0.5744690
  C        2.7660710     0.0938090     0.0047360
  H       -1.0562100     0.8719860    -1.3362890
  H        1.3126077     1.6728252    -0.2415457
  H        1.4031030     0.6104820    -1.6083150
  H       -0.9521060     2.1204610     0.8293460
  H       -1.6846230     0.7313890     1.6588270
  H       -2.6168740     1.6507050     0.4584890
  H       -1.7562200    -1.5424760    -1.3562160
  H       -2.1750630    -1.4236530     0.3564710
  H       -3.0946750    -0.4900390    -0.8506910
  H        2.7911150     0.1168120     1.0954440
  H        2.9171760    -0.9417660    -0.3044500
  H        3.5913670     0.6986870    -0.3779970
units angstrom
no_reorient  #important for SAPT in psi4, default
symmetry c1  #important for SAPT in psi4, default
}

set PROPERTIES_ORIGIN ["COM"]
properties('MP2/aug-cc-pvtz', properties = ['dipole'])
--------------------------------------------------------------------------

    Molecular point group: c1
  Charge       = 0
  Multiplicity = 1
  Basis Set: AUG-CC-PVTZ
    Blend: AUG-CC-PVTZ
  Basis Set: (AUG-CC-PVTZ AUX)
    Blend: AUG-CC-PVTZ-JKFIT

    Orbital Energies [Eh]
    ---------------------

    Doubly Occupied:

       1A    -20.544106     2A    -11.323489     3A    -11.240551
       4A    -11.238214     5A    -11.227000     6A    -11.215004
       7A    -11.214131     8A     -1.391164     9A     -1.086144
      10A     -1.047383    11A     -0.935811    12A     -0.904029
      13A     -0.818199    14A     -0.722526    15A     -0.674620
      16A     -0.631354    17A     -0.625276    18A     -0.610868
      19A     -0.567100    20A     -0.551120    21A     -0.543383
      22A     -0.522333    23A     -0.515250    24A     -0.506830
      25A     -0.491383    26A     -0.480397    27A     -0.475262
      28A     -0.396436

  @DF-RHF Final Energy:  -309.17670345636566

   => Energetics <=

    Nuclear Repulsion Energy =            315.0133644496254988
    One-Electron Energy =               -1043.3814147283956117
    Two-Electron Energy =                 419.1913468224045118
    Total Energy =                       -309.1767034563656580
  Basis Set: (AUG-CC-PVTZ AUX)
    Blend: AUG-CC-PVTZ-RI
    Molecular point group: c1

    Geometry (in Angstrom), charge = 0, multiplicity = 1:

       Center              X                  Y                   Z               Mass
    ------------   -----------------  -----------------  -----------------  -----------------
         O            0.390608183816    -1.178351986241     0.695435601236    15.994914619570
         C           -1.139343816184     0.313451013759    -0.392632398764    12.000000000000
         C            0.268047383816    -0.226099886241    -0.030829398764    12.000000000000
         C            1.431343183816     0.618739013759    -0.507427398764    12.000000000000
         C           -1.626013816184     1.270209013759     0.706654601236    12.000000000000
         C           -2.103869816184    -0.852044986241    -0.571858398764    12.000000000000
         C            2.763090183816     0.098938013759     0.007346601236    12.000000000000
         H           -1.059190816184     0.877115013759    -1.333678398764     1.007825032230
         H            1.309626883816     1.677954213759    -0.238935098764     1.007825032230
         H            1.400122183816     0.615611013759    -1.605704398764     1.007825032230
         H           -0.955086816184     2.125590013759     0.831956601236     1.007825032230
         H           -1.687603816184     0.736518013759     1.661437601236     1.007825032230
         H           -2.619854816184     1.655834013759     0.461099601236     1.007825032230
         H           -1.759200816184    -1.537346986241    -1.353605398764     1.007825032230
         H           -2.178043816184    -1.418523986241     0.359081601236     1.007825032230
         H           -3.097655816184    -0.484909986241    -0.848080398764     1.007825032230
         H            2.788134183816     0.121941013759     1.098054601236     1.007825032230
         H            2.914195183816    -0.936636986241    -0.301839398764     1.007825032230
         H            3.588386183816     0.703816013759    -0.375386398764     1.007825032230

  Basis Set: AUG-CC-PVTZ
    Blend: AUG-CC-PVTZ
  Basis Set: (AUG-CC-PVTZ AUX)
    Blend: AUG-CC-PVTZ-JKFIT
	 Reference Energy          =    -309.1767034563656580 [Eh]
	 Singles Energy            =      -0.0000000000000000 [Eh]
	 Same-Spin Energy          =      -0.3163274515358230 [Eh]
	 Opposite-Spin Energy      =      -1.1021630823511059 [Eh]
	 Correlation Energy        =      -1.4184905338869289 [Eh]
	 Total Energy              =    -310.5951939902525964 [Eh]

	 ================> DF-SCS-MP2 Energies <==================
	-----------------------------------------------------------
	 SCS Same-Spin Scale       =       0.3333333333333333 [-]
	 SCS Opposite-Spin Scale   =       1.2000000000000000 [-]
	 SCS Same-Spin Energy      =      -0.1054424838452743 [Eh]
	 SCS Opposite-Spin Energy  =      -1.3225956988213270 [Eh]
	 SCS Correlation Energy    =      -1.4280381826666013 [Eh]
	 SCS Total Energy          =    -310.6047416390322837 [Eh]
	-----------------------------------------------------------

  Dipole Moment: [D]
     X:    -0.2508      Y:     2.1372      Z:    -1.4162     Total:     2.5761

*** Psi4 exiting successfully. Buy a developer a beer!
