                               Psi4 1.3.2 release

  ==> Input File <==

--------------------------------------------------------------------------
#psi4
#
memory 32 gb

molecule  {
0 1
  O        0.3935890    -1.1834810     0.6928250
  C       -1.1363630     0.3083220    -0.3952430
  C        0.2654987    -0.2034207     0.0003185
  C        1.4343240     0.6136100    -0.5100380
  C       -1.6230330     1.2650800     0.7040440
  C       -2.1008890    -0.8571740    -0.5744690
  C        2.7532477     0.0747396     0.0179718
  H       -1.0562100     0.8719860    -1.3362890
  H        1.2791640     1.6640640    -0.2248860
  H        1.4031030     0.6104820    -1.6083150
  H       -0.9521060     2.1204610     0.8293460
  H       -1.6846230     0.7313890     1.6588270
  H       -2.6168740     1.6507050     0.4584890
  H       -1.7562200    -1.5424760    -1.3562160
  H       -2.1750630    -1.4236530     0.3564710
  H       -3.0946750    -0.4900390    -0.8506910
  H        2.7911150     0.1168120     1.0954440
  H        2.9171760    -0.9417660    -0.3044500
  H        3.5913670     0.6986870    -0.3779970
units angstrom
no_reorient  #important for SAPT in psi4, default
symmetry c1  #important for SAPT in psi4, default
}

set PROPERTIES_ORIGIN ["COM"]
properties('MP2/aug-cc-pvtz', properties = ['dipole'])
--------------------------------------------------------------------------

    Molecular point group: c1
  Charge       = 0
  Multiplicity = 1
  Basis Set: AUG-CC-PVTZ
    Blend: AUG-CC-PVTZ
  Basis Set: (AUG-CC-PVTZ AUX)
    Blend: AUG-CC-PVTZ-JKFIT

    Orbital Energies [Eh]
    ---------------------

    Doubly Occupied:

       1A    -20.542717     2A    -11.322510     3A    -11.240429
       4A    -11.238590     5A    -11.227023     6A    -11.215425
       7A    -11.214587     8A     -1.388387     9A     -1.087391
      10A     -1.047525    11A     -0.936245    12A     -0.904474
      13A     -0.818913    14A     -0.721783    15A     -0.673655
      16A     -0.634714    17A     -0.624516    18A     -0.609195
      19A     -0.567999    20A     -0.550529    21A     -0.542423
      22A     -0.518106    23A     -0.515846    24A     -0.509044
      25A     -0.494872    26A     -0.480618    27A     -0.474577
      28A     -0.396175

  @DF-RHF Final Energy:  -309.17724056109421

   => Energetics <=

    Nuclear Repulsion Energy =            315.2951521025995021
    One-Electron Energy =               -1043.9482499801827089
    Two-Electron Energy =                 419.4758573164889413
    Total Energy =                       -309.1772405610942087
  Basis Set: (AUG-CC-PVTZ AUX)
    Blend: AUG-CC-PVTZ-RI
    Molecular point group: c1

    Geometry (in Angstrom), charge = 0, multiplicity = 1:

       Center              X                  Y                   Z               Mass
    ------------   -----------------  -----------------  -----------------  -----------------
         O            0.393145320438    -1.179311492489     0.689633537712    15.994914619570
         C           -1.136806679562     0.312491507511    -0.398434462288    12.000000000000
         C            0.265055020438    -0.199251192489    -0.002872962288    12.000000000000
         C            1.433880320438     0.617779507511    -0.513229462288    12.000000000000
         C           -1.623476679562     1.269249507511     0.700852537712    12.000000000000
         C           -2.101332679562    -0.853004492489    -0.577660462288    12.000000000000
         C            2.752804020438     0.078909107511     0.014780337712    12.000000000000
         H           -1.056653679562     0.876155507511    -1.339480462288     1.007825032230
         H            1.278720320438     1.668233507511    -0.228077462288     1.007825032230
         H            1.402659320438     0.614651507511    -1.611506462288     1.007825032230
         H           -0.952549679562     2.124630507511     0.826154537712     1.007825032230
         H           -1.685066679562     0.735558507511     1.655635537712     1.007825032230
         H           -2.617317679562     1.654874507511     0.455297537712     1.007825032230
         H           -1.756663679562    -1.538306492489    -1.359407462288     1.007825032230
         H           -2.175506679562    -1.419483492489     0.353279537712     1.007825032230
         H           -3.095118679562    -0.485869492489    -0.853882462288     1.007825032230
         H            2.790671320438     0.120981507511     1.092252537712     1.007825032230
         H            2.916732320438    -0.937596492489    -0.307641462288     1.007825032230
         H            3.590923320438     0.702856507511    -0.381188462288     1.007825032230

  Basis Set: AUG-CC-PVTZ
    Blend: AUG-CC-PVTZ
  Basis Set: (AUG-CC-PVTZ AUX)
    Blend: AUG-CC-PVTZ-JKFIT
	 Reference Energy          =    -309.1772405610942087 [Eh]
	 Singles Energy            =      -0.0000000000000000 [Eh]
	 Same-Spin Energy          =      -0.3164351366705628 [Eh]
	 Opposite-Spin Energy      =      -1.1022462381314908 [Eh]
	 Correlation Energy        =      -1.4186813748020537 [Eh]
	 Total Energy              =    -310.5959219358962855 [Eh]

	 ================> DF-SCS-MP2 Energies <==================
	-----------------------------------------------------------
	 SCS Same-Spin Scale       =       0.3333333333333333 [-]
	 SCS Opposite-Spin Scale   =       1.2000000000000000 [-]
	 SCS Same-Spin Energy      =      -0.1054783788901876 [Eh]
	 SCS Opposite-Spin Energy  =      -1.3226954857577888 [Eh]
	 SCS Correlation Energy    =      -1.4281738646479765 [Eh]
	 SCS Total Energy          =    -310.6054144257421967 [Eh]
	-----------------------------------------------------------

  Dipole Moment: [D]
     X:    -0.2836      Y:     2.1429      Z:    -1.4115     Total:     2.5817

*** Psi4 exiting successfully. Buy a developer a beer!
