                               Psi4 1.3.2 release

  ==> Input File <==

--------------------------------------------------------------------------
#psi4
#
memory 32 gb

molecule  {
0 1
  O        0.3722687    -1.1856253     0.6938420
  C       -1.1470689     0.2883676    -0.3814139
  C        0.2489750    -0.1877140    -0.0130640
  C        1.4343240     0.6136100    -0.5100380
  C       -1.6230330     1.2650800     0.7040440
  C       -2.1008890    -0.8571740    -0.5744690
  C        2.7660710     0.0938090     0.0047360
  H       -1.0562100     0.8719860    -1.3362890
  H        1.2791640     1.6640640    -0.2248860
  H        1.4031030     0.6104820    -1.6083150
  H       -0.9521060     2.1204610     0.8293460
  H       -1.6846230     0.7313890     1.6588270
  H       -2.6168740     1.6507050     0.4584890
  H       -1.7562200    -1.5424760    -1.3562160
  H       -2.1750630    -1.4236530     0.3564710
  H       -3.0946750    -0.4900390    -0.8506910
  H        2.7911150     0.1168120     1.0954440
  H        2.9171760    -0.9417660    -0.3044500
  H        3.5913670     0.6986870    -0.3779970
units angstrom
no_reorient  #important for SAPT in psi4, default
symmetry c1  #important for SAPT in psi4, default
}

set PROPERTIES_ORIGIN ["COM"]
properties('MP2/aug-cc-pvtz', properties = ['dipole'])
--------------------------------------------------------------------------

    Molecular point group: c1
  Charge       = 0
  Multiplicity = 1
  Basis Set: AUG-CC-PVTZ
    Blend: AUG-CC-PVTZ
  Basis Set: (AUG-CC-PVTZ AUX)
    Blend: AUG-CC-PVTZ-JKFIT

    Orbital Energies [Eh]
    ---------------------

    Doubly Occupied:

       1A    -20.540248     2A    -11.324615     3A    -11.241997
       4A    -11.240898     5A    -11.228151     6A    -11.216439
       7A    -11.214433     8A     -1.373196     9A     -1.091496
      10A     -1.048945    11A     -0.939344    12A     -0.907318
      13A     -0.822031    14A     -0.718447    15A     -0.671891
      16A     -0.632663    17A     -0.624992    18A     -0.606767
      19A     -0.569228    20A     -0.552438    21A     -0.544199
      22A     -0.520781    23A     -0.512681    24A     -0.506516
      25A     -0.495208    26A     -0.476715    27A     -0.469107
      28A     -0.401965

  @DF-RHF Final Energy:  -309.17540619269164

   => Energetics <=

    Nuclear Repulsion Energy =            315.2157639313329582
    One-Electron Energy =               -1043.7969217415818548
    Two-Electron Energy =                 419.4057516175572573
    Total Energy =                       -309.1754061926916393
  Basis Set: (AUG-CC-PVTZ AUX)
    Blend: AUG-CC-PVTZ-RI
    Molecular point group: c1

    Geometry (in Angstrom), charge = 0, multiplicity = 1:

       Center              X                  Y                   Z               Mass
    ------------   -----------------  -----------------  -----------------  -----------------
         O            0.376959380138    -1.182890143616     0.692021355938    15.994914619570
         C           -1.142378219862     0.291102756384    -0.383234544062    12.000000000000
         C            0.253665680138    -0.184978843616    -0.014884644062    12.000000000000
         C            1.439014680138     0.616345156384    -0.511858644062    12.000000000000
         C           -1.618342319862     1.267815156384     0.702223355938    12.000000000000
         C           -2.096198319862    -0.854438843616    -0.576289644062    12.000000000000
         C            2.770761680138     0.096544156384     0.002915355938    12.000000000000
         H           -1.051519319862     0.874721156384    -1.338109644062     1.007825032230
         H            1.283854680138     1.666799156384    -0.226706644062     1.007825032230
         H            1.407793680138     0.613217156384    -1.610135644062     1.007825032230
         H           -0.947415319862     2.123196156384     0.827525355938     1.007825032230
         H           -1.679932319862     0.734124156384     1.657006355938     1.007825032230
         H           -2.612183319862     1.653440156384     0.456668355938     1.007825032230
         H           -1.751529319862    -1.539740843616    -1.358036644062     1.007825032230
         H           -2.170372319862    -1.420917843616     0.354650355938     1.007825032230
         H           -3.089984319862    -0.487303843616    -0.852511644062     1.007825032230
         H            2.795805680138     0.119547156384     1.093623355938     1.007825032230
         H            2.921866680138    -0.939030843616    -0.306270644062     1.007825032230
         H            3.596057680138     0.701422156384    -0.379817644062     1.007825032230

  Basis Set: AUG-CC-PVTZ
    Blend: AUG-CC-PVTZ
  Basis Set: (AUG-CC-PVTZ AUX)
    Blend: AUG-CC-PVTZ-JKFIT
	 Reference Energy          =    -309.1754061926916393 [Eh]
	 Singles Energy            =      -0.0000000000000000 [Eh]
	 Same-Spin Energy          =      -0.3171824191579284 [Eh]
	 Opposite-Spin Energy      =      -1.1036768410933981 [Eh]
	 Correlation Energy        =      -1.4208592602513266 [Eh]
	 Total Energy              =    -310.5962654529429869 [Eh]

	 ================> DF-SCS-MP2 Energies <==================
	-----------------------------------------------------------
	 SCS Same-Spin Scale       =       0.3333333333333333 [-]
	 SCS Opposite-Spin Scale   =       1.2000000000000000 [-]
	 SCS Same-Spin Energy      =      -0.1057274730526428 [Eh]
	 SCS Opposite-Spin Energy  =      -1.3244122093120778 [Eh]
	 SCS Correlation Energy    =      -1.4301396823647206 [Eh]
	 SCS Total Energy          =    -310.6055458750563503 [Eh]
	-----------------------------------------------------------

  Dipole Moment: [D]
     X:    -0.2944      Y:     2.2168      Z:    -1.4504     Total:     2.6654

*** Psi4 exiting successfully. Buy a developer a beer!
