                               Psi4 1.3.2 release

  ==> Input File <==

--------------------------------------------------------------------------
#psi4
#
memory 32 gb

molecule  {
0 1
  O        0.3935890    -1.1834810     0.6928250
  C       -1.1363630     0.3083220    -0.3952430
  C        0.2489750    -0.1877140    -0.0130640
  C        1.2778058     0.5078000    -0.4444156
  C       -1.6230330     1.2650800     0.7040440
  C       -2.1008890    -0.8571740    -0.5744690
  C        2.7660710     0.0938090     0.0047360
  H       -1.0562100     0.8719860    -1.3362890
  H        1.2791640     1.6640640    -0.2248860
  H        1.4031030     0.6104820    -1.6083150
  H       -0.9521060     2.1204610     0.8293460
  H       -1.6846230     0.7313890     1.6588270
  H       -2.6168740     1.6507050     0.4584890
  H       -1.7562200    -1.5424760    -1.3562160
  H       -2.1750630    -1.4236530     0.3564710
  H       -3.0946750    -0.4900390    -0.8506910
  H        2.7911150     0.1168120     1.0954440
  H        2.9171760    -0.9417660    -0.3044500
  H        3.5913670     0.6986870    -0.3779970
units angstrom
no_reorient  #important for SAPT in psi4, default
symmetry c1  #important for SAPT in psi4, default
}

set PROPERTIES_ORIGIN ["COM"]
properties('MP2/aug-cc-pvtz', properties = ['dipole'])
--------------------------------------------------------------------------

    Molecular point group: c1
  Charge       = 0
  Multiplicity = 1
  Basis Set: AUG-CC-PVTZ
    Blend: AUG-CC-PVTZ
  Basis Set: (AUG-CC-PVTZ AUX)
    Blend: AUG-CC-PVTZ-JKFIT

    Orbital Energies [Eh]
    ---------------------

    Doubly Occupied:

       1A    -20.536047     2A    -11.311578     3A    -11.246862
       4A    -11.239548     5A    -11.226853     6A    -11.223413
       7A    -11.214266     8A     -1.376809     9A     -1.101407
      10A     -1.052210    11A     -0.936512    12A     -0.926201
      13A     -0.821500    14A     -0.725570    15A     -0.683105
      16A     -0.629745    17A     -0.625964    18A     -0.606850
      19A     -0.564146    20A     -0.560504    21A     -0.543637
      22A     -0.524787    23A     -0.515311    24A     -0.489122
      25A     -0.481081    26A     -0.463575    27A     -0.453755
      28A     -0.413961

  @DF-RHF Final Energy:  -309.12754698684876

   => Energetics <=

    Nuclear Repulsion Energy =            317.8420206466562377
    One-Electron Energy =               -1048.9504937179981425
    Two-Electron Energy =                 421.9809260844931487
    Total Energy =                       -309.1275469868487562
  Basis Set: (AUG-CC-PVTZ AUX)
    Blend: AUG-CC-PVTZ-RI
    Molecular point group: c1

    Geometry (in Angstrom), charge = 0, multiplicity = 1:

       Center              X                  Y                   Z               Mass
    ------------   -----------------  -----------------  -----------------  -----------------
         O            0.412354491811    -1.170794988423     0.684957199003    15.994914619570
         C           -1.117597508189     0.321008011577    -0.403110800997    12.000000000000
         C            0.267740491811    -0.175027988423    -0.020931800997    12.000000000000
         C            1.296571291811     0.520486011577    -0.452283400997    12.000000000000
         C           -1.604267508189     1.277766011577     0.696176199003    12.000000000000
         C           -2.082123508189    -0.844487988423    -0.582336800997    12.000000000000
         C            2.784836491811     0.106495011577    -0.003131800997    12.000000000000
         H           -1.037444508189     0.884672011577    -1.344156800997     1.007825032230
         H            1.297929491811     1.676750011577    -0.232753800997     1.007825032230
         H            1.421868491811     0.623168011577    -1.616182800997     1.007825032230
         H           -0.933340508189     2.133147011577     0.821478199003     1.007825032230
         H           -1.665857508189     0.744075011577     1.650959199003     1.007825032230
         H           -2.598108508189     1.663391011577     0.450621199003     1.007825032230
         H           -1.737454508189    -1.529789988423    -1.364083800997     1.007825032230
         H           -2.156297508189    -1.410966988423     0.348603199003     1.007825032230
         H           -3.075909508189    -0.477352988423    -0.858558800997     1.007825032230
         H            2.809880491811     0.129498011577     1.087576199003     1.007825032230
         H            2.935941491811    -0.929079988423    -0.312317800997     1.007825032230
         H            3.610132491811     0.711373011577    -0.385864800997     1.007825032230

  Basis Set: AUG-CC-PVTZ
    Blend: AUG-CC-PVTZ
  Basis Set: (AUG-CC-PVTZ AUX)
    Blend: AUG-CC-PVTZ-JKFIT
	 Reference Energy          =    -309.1275469868487562 [Eh]
	 Singles Energy            =      -0.0000000000000000 [Eh]
	 Same-Spin Energy          =      -0.3198593709362449 [Eh]
	 Opposite-Spin Energy      =      -1.1075106398498740 [Eh]
	 Correlation Energy        =      -1.4273700107861189 [Eh]
	 Total Energy              =    -310.5549169976348480 [Eh]

	 ================> DF-SCS-MP2 Energies <==================
	-----------------------------------------------------------
	 SCS Same-Spin Scale       =       0.3333333333333333 [-]
	 SCS Opposite-Spin Scale   =       1.2000000000000000 [-]
	 SCS Same-Spin Energy      =      -0.1066197903120816 [Eh]
	 SCS Opposite-Spin Energy  =      -1.3290127678198487 [Eh]
	 SCS Correlation Energy    =      -1.4356325581319302 [Eh]
	 SCS Total Energy          =    -310.5631795449806987 [Eh]
	-----------------------------------------------------------

  Dipole Moment: [D]
     X:    -0.0732      Y:     2.4130      Z:    -1.5934     Total:     2.8926

*** Psi4 exiting successfully. Buy a developer a beer!
