                               Psi4 1.4a3.dev225

  ==> Input File <==

--------------------------------------------------------------------------
#psi4
#
memory 32 gb

molecule  {
0 1
  O        0.3867680    -1.0807900     0.9052720
  C       -1.1214160     0.2406750    -0.4118090
  C        0.2563856    -0.2093585     0.0188506
  C        1.4564740     0.4415910    -0.6154860
  C       -1.6022690     1.3118620     0.5765650
  C       -2.0946590    -0.9328810    -0.4718410
  C        2.7794930     0.0533630     0.0271350
  H       -1.0310200     0.6977280    -1.4061650
  H        1.3003680     1.5285790    -0.5907700
  H        1.4393040     0.1721120    -1.6810660
  H       -0.9145280     2.1623330     0.6220120
  H       -1.6816780     0.8793070     1.5782240
  H       -2.5863060     1.6880250     0.2813590
  H       -1.7648280    -1.6840550    -1.1955420
  H       -2.1566630    -1.4129490     0.5070730
  H       -3.0917530    -0.5897300    -0.7635520
  H        2.7964250     0.3427930     1.0801170
  H        2.9252090    -1.0274260    -0.0178250
  H        3.6147550     0.5417630    -0.4816370
units angstrom
no_reorient  #important for SAPT in psi4, default
symmetry c1  #important for SAPT in psi4, default
}

set PROPERTIES_ORIGIN ["COM"]
properties('MP2/aug-cc-pvtz', properties = ['dipole'])
--------------------------------------------------------------------------

    Molecular point group: c1
  Charge       = 0
  Multiplicity = 1
  Basis Set: AUG-CC-PVTZ
    Blend: AUG-CC-PVTZ
  Basis Set: (AUG-CC-PVTZ AUX)
    Blend: AUG-CC-PVTZ-JKFIT

    Orbital Energies [Eh]
    ---------------------

    Doubly Occupied:

       1A    -20.538627     2A    -11.326847     3A    -11.242825
       4A    -11.240970     5A    -11.228506     6A    -11.216921
       7A    -11.216632     8A     -1.359179     9A     -1.092653
      10A     -1.048830    11A     -0.938476    12A     -0.910420
      13A     -0.824918    14A     -0.720176    15A     -0.670865
      16A     -0.632685    17A     -0.622432    18A     -0.601816
      19A     -0.568833    20A     -0.554419    21A     -0.544748
      22A     -0.518883    23A     -0.511703    24A     -0.504677
      25A     -0.492564    26A     -0.482446    27A     -0.463535
      28A     -0.405143

  @DF-RHF Final Energy:  -309.17386407756675

   => Energetics <=

    Nuclear Repulsion Energy =            314.7491861556549111
    One-Electron Energy =               -1042.8846410597598151
    Two-Electron Energy =                 418.9615908265381563
    Total Energy =                       -309.1738640775667477
  Basis Set: (AUG-CC-PVTZ AUX)
    Blend: AUG-CC-PVTZ-RI
    Molecular point group: c1

    Geometry (in Angstrom), charge = 0, multiplicity = 1:

       Center              X                  Y                   Z               Mass
    ------------   -----------------  -----------------  -----------------  -----------------
         O            0.375630841911    -1.049819156163     0.886520942104    15.994914619570
         C           -1.132553158089     0.271645843837    -0.430560057896    12.000000000000
         C            0.245248441911    -0.178387656163     0.000099542104    12.000000000000
         C            1.445336841911     0.472561843837    -0.634237057896    12.000000000000
         C           -1.613406158089     1.342832843837     0.557813942104    12.000000000000
         C           -2.105796158089    -0.901910156163    -0.490592057896    12.000000000000
         C            2.768355841911     0.084333843837     0.008383942104    12.000000000000
         H           -1.042157158089     0.728698843837    -1.424916057896     1.007825032230
         H            1.289230841911     1.559549843837    -0.609521057896     1.007825032230
         H            1.428166841911     0.203082843837    -1.699817057896     1.007825032230
         H           -0.925665158089     2.193303843837     0.603260942104     1.007825032230
         H           -1.692815158089     0.910277843837     1.559472942104     1.007825032230
         H           -2.597443158089     1.718995843837     0.262607942104     1.007825032230
         H           -1.775965158089    -1.653084156163    -1.214293057896     1.007825032230
         H           -2.167800158089    -1.381978156163     0.488321942104     1.007825032230
         H           -3.102890158089    -0.558759156163    -0.782303057896     1.007825032230
         H            2.785287841911     0.373763843837     1.061365942104     1.007825032230
         H            2.914071841911    -0.996455156163    -0.036576057896     1.007825032230
         H            3.603617841911     0.572733843837    -0.500388057896     1.007825032230

  Basis Set: AUG-CC-PVTZ
    Blend: AUG-CC-PVTZ
  Basis Set: (AUG-CC-PVTZ AUX)
    Blend: AUG-CC-PVTZ-JKFIT
	 Reference Energy          =    -309.1738640775667477 [Eh]
	 Singles Energy            =      -0.0000000000000000 [Eh]
	 Same-Spin Energy          =      -0.3176234350499831 [Eh]
	 Opposite-Spin Energy      =      -1.1047415440552186 [Eh]
	 Correlation Energy        =      -1.4223649791052018 [Eh]
	 Total Energy              =    -310.5962290566719730 [Eh]

	 ================> DF-SCS-MP2 Energies <==================
	-----------------------------------------------------------
	 SCS Same-Spin Scale       =       0.3333333333333333 [-]
	 SCS Opposite-Spin Scale   =       1.2000000000000000 [-]
	 SCS Same-Spin Energy      =      -0.1058744783499944 [Eh]
	 SCS Opposite-Spin Energy  =      -1.3256898528662624 [Eh]
	 SCS Correlation Energy    =      -1.4315643312162567 [Eh]
	 SCS Total Energy          =    -310.6054284087829842 [Eh]
	-----------------------------------------------------------

  Dipole Moment: [D]
     X:    -0.3351      Y:     1.9729      Z:    -1.8735     Total:     2.7412

*** Psi4 exiting successfully. Buy a developer a beer!
