                               Psi4 1.4a3.dev225

  ==> Input File <==

--------------------------------------------------------------------------
#psi4
#
memory 32 gb

molecule  {
0 1
  O        0.3867680    -1.0807900     0.9052720
  C       -1.1214160     0.2406750    -0.4118090
  C        0.2766016    -0.2293989     0.0388795
  C        1.4564740     0.4415910    -0.6154860
  C       -1.6022690     1.3118620     0.5765650
  C       -2.0946590    -0.9328810    -0.4718410
  C        2.7794930     0.0533630     0.0271350
  H       -1.0310200     0.6977280    -1.4061650
  H        1.3003680     1.5285790    -0.5907700
  H        1.4393040     0.1721120    -1.6810660
  H       -0.9145280     2.1623330     0.6220120
  H       -1.6816780     0.8793070     1.5782240
  H       -2.5863060     1.6880250     0.2813590
  H       -1.7648280    -1.6840550    -1.1955420
  H       -2.1566630    -1.4129490     0.5070730
  H       -3.0917530    -0.5897300    -0.7635520
  H        2.7964250     0.3427930     1.0801170
  H        2.9252090    -1.0274260    -0.0178250
  H        3.6147550     0.5417630    -0.4816370
units angstrom
no_reorient  #important for SAPT in psi4, default
symmetry c1  #important for SAPT in psi4, default
}

set PROPERTIES_ORIGIN ["COM"]
properties('MP2/aug-cc-pvtz', properties = ['dipole'])
--------------------------------------------------------------------------

    Molecular point group: c1
  Charge       = 0
  Multiplicity = 1
  Basis Set: AUG-CC-PVTZ
    Blend: AUG-CC-PVTZ
  Basis Set: (AUG-CC-PVTZ AUX)
    Blend: AUG-CC-PVTZ-JKFIT

    Orbital Energies [Eh]
    ---------------------

    Doubly Occupied:

       1A    -20.541584     2A    -11.324328     3A    -11.241184
       4A    -11.239787     5A    -11.226413     6A    -11.216433
       7A    -11.215409     8A     -1.379309     9A     -1.087953
      10A     -1.048545    11A     -0.936668    12A     -0.906749
      13A     -0.819764    14A     -0.721460    15A     -0.672587
      16A     -0.633492    17A     -0.622481    18A     -0.607384
      19A     -0.567757    20A     -0.553045    21A     -0.543785
      22A     -0.521409    23A     -0.513865    24A     -0.506532
      25A     -0.492460    26A     -0.481294    27A     -0.471489
      28A     -0.398862

  @DF-RHF Final Energy:  -309.17744320667759

   => Energetics <=

    Nuclear Repulsion Energy =            314.8717388068486116
    One-Electron Energy =               -1043.1143057763083561
    Two-Electron Energy =                 419.0651237627821502
    Total Energy =                       -309.1774432066775944
  Basis Set: (AUG-CC-PVTZ AUX)
    Blend: AUG-CC-PVTZ-RI
    Molecular point group: c1

    Geometry (in Angstrom), charge = 0, multiplicity = 1:

       Center              X                  Y                   Z               Mass
    ------------   -----------------  -----------------  -----------------  -----------------
         O            0.373207074581    -1.047416442134     0.884119606850    15.994914619570
         C           -1.134976925419     0.274048557866    -0.432961393150    12.000000000000
         C            0.263040674581    -0.196025342134     0.017727106850    12.000000000000
         C            1.442913074581     0.474964557866    -0.636638393150    12.000000000000
         C           -1.615829925419     1.345235557866     0.555412606850    12.000000000000
         C           -2.108219925419    -0.899507442134    -0.492993393150    12.000000000000
         C            2.765932074581     0.086736557866     0.005982606850    12.000000000000
         H           -1.044580925419     0.731101557866    -1.427317393150     1.007825032230
         H            1.286807074581     1.561952557866    -0.611922393150     1.007825032230
         H            1.425743074581     0.205485557866    -1.702218393150     1.007825032230
         H           -0.928088925419     2.195706557866     0.600859606850     1.007825032230
         H           -1.695238925419     0.912680557866     1.557071606850     1.007825032230
         H           -2.599866925419     1.721398557866     0.260206606850     1.007825032230
         H           -1.778388925419    -1.650681442134    -1.216694393150     1.007825032230
         H           -2.170223925419    -1.379575442134     0.485920606850     1.007825032230
         H           -3.105313925419    -0.556356442134    -0.784704393150     1.007825032230
         H            2.782864074581     0.376166557866     1.058964606850     1.007825032230
         H            2.911648074581    -0.994052442134    -0.038977393150     1.007825032230
         H            3.601194074581     0.575136557866    -0.502789393150     1.007825032230

  Basis Set: AUG-CC-PVTZ
    Blend: AUG-CC-PVTZ
  Basis Set: (AUG-CC-PVTZ AUX)
    Blend: AUG-CC-PVTZ-JKFIT
	 Reference Energy          =    -309.1774432066775944 [Eh]
	 Singles Energy            =      -0.0000000000000000 [Eh]
	 Same-Spin Energy          =      -0.3167086107183609 [Eh]
	 Opposite-Spin Energy      =      -1.1029122174880899 [Eh]
	 Correlation Energy        =      -1.4196208282064506 [Eh]
	 Total Energy              =    -310.5970640348840561 [Eh]

	 ================> DF-SCS-MP2 Energies <==================
	-----------------------------------------------------------
	 SCS Same-Spin Scale       =       0.3333333333333333 [-]
	 SCS Opposite-Spin Scale   =       1.2000000000000000 [-]
	 SCS Same-Spin Energy      =      -0.1055695369061203 [Eh]
	 SCS Opposite-Spin Energy  =      -1.3234946609857079 [Eh]
	 SCS Correlation Energy    =      -1.4290641978918281 [Eh]
	 SCS Total Energy          =    -310.6065074045694132 [Eh]
	-----------------------------------------------------------

  Dipole Moment: [D]
     X:    -0.2294      Y:     1.8903      Z:    -1.8119     Total:     2.6284

*** Psi4 exiting successfully. Buy a developer a beer!
