                               Psi4 1.3.2 release

  ==> Input File <==

--------------------------------------------------------------------------
#psi4
#
memory 32 gb

molecule  {
0 1
  O        0.3935890    -1.1834810     0.6928250
  C       -1.1363630     0.3083220    -0.3952430
  C        0.2489750    -0.1877140    -0.0130640
  C        1.4343240     0.6136100    -0.5100380
  C       -1.6230330     1.2650800     0.7040440
  C       -2.0967640    -0.8641774    -0.5491534
  C        2.7660710     0.0938090     0.0047360
  H       -1.0438129     0.8839736    -1.3278570
  H        1.2791640     1.6640640    -0.2248860
  H        1.4031030     0.6104820    -1.6083150
  H       -0.9521060     2.1204610     0.8293460
  H       -1.6846230     0.7313890     1.6588270
  H       -2.6168740     1.6507050     0.4584890
  H       -1.7562200    -1.5424760    -1.3562160
  H       -2.1750630    -1.4236530     0.3564710
  H       -3.0946750    -0.4900390    -0.8506910
  H        2.7911150     0.1168120     1.0954440
  H        2.9171760    -0.9417660    -0.3044500
  H        3.5913670     0.6986870    -0.3779970
units angstrom
no_reorient  #important for SAPT in psi4, default
symmetry c1  #important for SAPT in psi4, default
}

set PROPERTIES_ORIGIN ["COM"]
properties('MP2/aug-cc-pvtz', properties = ['dipole'])
--------------------------------------------------------------------------

    Molecular point group: c1
  Charge       = 0
  Multiplicity = 1
  Basis Set: AUG-CC-PVTZ
    Blend: AUG-CC-PVTZ
  Basis Set: (AUG-CC-PVTZ AUX)
    Blend: AUG-CC-PVTZ-JKFIT

    Orbital Energies [Eh]
    ---------------------

    Doubly Occupied:

       1A    -20.540406     2A    -11.324434     3A    -11.242157
       4A    -11.239240     5A    -11.228475     6A    -11.216325
       7A    -11.215360     8A     -1.372888     9A     -1.091399
      10A     -1.047363    11A     -0.937435    12A     -0.907557
      13A     -0.823035    14A     -0.720737    15A     -0.672630
      16A     -0.632057    17A     -0.622875    18A     -0.606900
      19A     -0.567110    20A     -0.552198    21A     -0.546751
      22A     -0.520220    23A     -0.511600    24A     -0.504402
      25A     -0.492258    26A     -0.484566    27A     -0.468644
      28A     -0.401556

  @DF-RHF Final Energy:  -309.17574844775891

   => Energetics <=

    Nuclear Repulsion Energy =            315.1606304277575532
    One-Electron Energy =               -1043.6916030540035081
    Two-Electron Energy =                 419.3552241784871057
    Total Energy =                       -309.1757484477589060
  Basis Set: (AUG-CC-PVTZ AUX)
    Blend: AUG-CC-PVTZ-RI
    Molecular point group: c1

    Geometry (in Angstrom), charge = 0, multiplicity = 1:

       Center              X                  Y                   Z               Mass
    ------------   -----------------  -----------------  -----------------  -----------------
         O            0.392969583442    -1.182761965985     0.689704818597    15.994914619570
         C           -1.136982416558     0.309041034015    -0.398363181403    12.000000000000
         C            0.248355583442    -0.186994965985    -0.016184181403    12.000000000000
         C            1.433704583442     0.614329034015    -0.513158181403    12.000000000000
         C           -1.623652416558     1.265799034015     0.700923818597    12.000000000000
         C           -2.097383416558    -0.863458365985    -0.552273581403    12.000000000000
         C            2.765451583442     0.094528034015     0.001615818597    12.000000000000
         H           -1.044432316558     0.884692634015    -1.330977181403     1.007825032230
         H            1.278544583442     1.664783034015    -0.228006181403     1.007825032230
         H            1.402483583442     0.611201034015    -1.611435181403     1.007825032230
         H           -0.952725416558     2.121180034015     0.826225818597     1.007825032230
         H           -1.685242416558     0.732108034015     1.655706818597     1.007825032230
         H           -2.617493416558     1.651424034015     0.455368818597     1.007825032230
         H           -1.756839416558    -1.541756965985    -1.359336181403     1.007825032230
         H           -2.175682416558    -1.422933965985     0.353350818597     1.007825032230
         H           -3.095294416558    -0.489319965985    -0.853811181403     1.007825032230
         H            2.790495583442     0.117531034015     1.092323818597     1.007825032230
         H            2.916556583442    -0.941046965985    -0.307570181403     1.007825032230
         H            3.590747583442     0.699406034015    -0.381117181403     1.007825032230

  Basis Set: AUG-CC-PVTZ
    Blend: AUG-CC-PVTZ
  Basis Set: (AUG-CC-PVTZ AUX)
    Blend: AUG-CC-PVTZ-JKFIT
	 Reference Energy          =    -309.1757484477589060 [Eh]
	 Singles Energy            =      -0.0000000000000000 [Eh]
	 Same-Spin Energy          =      -0.3170859415007296 [Eh]
	 Opposite-Spin Energy      =      -1.1035475558511314 [Eh]
	 Correlation Energy        =      -1.4206334973518611 [Eh]
	 Total Energy              =    -310.5963819451107497 [Eh]

	 ================> DF-SCS-MP2 Energies <==================
	-----------------------------------------------------------
	 SCS Same-Spin Scale       =       0.3333333333333333 [-]
	 SCS Opposite-Spin Scale   =       1.2000000000000000 [-]
	 SCS Same-Spin Energy      =      -0.1056953138335765 [Eh]
	 SCS Opposite-Spin Energy  =      -1.3242570670213576 [Eh]
	 SCS Correlation Energy    =      -1.4299523808549341 [Eh]
	 SCS Total Energy          =    -310.6057008286138625 [Eh]
	-----------------------------------------------------------

  Dipole Moment: [D]
     X:    -0.3692      Y:     2.2205      Z:    -1.4472     Total:     2.6760

*** Psi4 exiting successfully. Buy a developer a beer!
