                               Psi4 1.4a3.dev225

  ==> Input File <==

--------------------------------------------------------------------------
#psi4
#
memory 32 gb

molecule  {
0 1
  O        0.3867680    -1.0807900     0.9052720
  C       -1.1214160     0.2406750    -0.4118090
  C        0.3037959    -0.2385429     0.0476464
  C        1.4564740     0.4415910    -0.6154860
  C       -1.6022690     1.3118620     0.5765650
  C       -2.0946590    -0.9328810    -0.4718410
  C        2.7794930     0.0533630     0.0271350
  H       -1.0310200     0.6977280    -1.4061650
  H        1.3003680     1.5285790    -0.5907700
  H        1.4393040     0.1721120    -1.6810660
  H       -0.9145280     2.1623330     0.6220120
  H       -1.6816780     0.8793070     1.5782240
  H       -2.5863060     1.6880250     0.2813590
  H       -1.7648280    -1.6840550    -1.1955420
  H       -2.1566630    -1.4129490     0.5070730
  H       -3.0917530    -0.5897300    -0.7635520
  H        2.7964250     0.3427930     1.0801170
  H        2.9252090    -1.0274260    -0.0178250
  H        3.6147550     0.5417630    -0.4816370
units angstrom
no_reorient  #important for SAPT in psi4, default
symmetry c1  #important for SAPT in psi4, default
}

set PROPERTIES_ORIGIN ["COM"]
properties('MP2/aug-cc-pvtz', properties = ['dipole'])
--------------------------------------------------------------------------

    Molecular point group: c1
  Charge       = 0
  Multiplicity = 1
  Basis Set: AUG-CC-PVTZ
    Blend: AUG-CC-PVTZ
  Basis Set: (AUG-CC-PVTZ AUX)
    Blend: AUG-CC-PVTZ-JKFIT

    Orbital Energies [Eh]
    ---------------------

    Doubly Occupied:

       1A    -20.543238     2A    -11.323199     3A    -11.239794
       4A    -11.239742     5A    -11.224456     6A    -11.217050
       7A    -11.213922     8A     -1.389753     9A     -1.084466
      10A     -1.050482    11A     -0.934807    12A     -0.905916
      13A     -0.815490    14A     -0.722755    15A     -0.673420
      16A     -0.635584    17A     -0.623013    18A     -0.609541
      19A     -0.566314    20A     -0.552807    21A     -0.542658
      22A     -0.523263    23A     -0.515776    24A     -0.507946
      25A     -0.492796    26A     -0.479828    27A     -0.474222
      28A     -0.394079

  @DF-RHF Final Energy:  -309.17673371759918

   => Energetics <=

    Nuclear Repulsion Energy =            314.9060068431693935
    One-Electron Energy =               -1043.1728464492816784
    Two-Electron Energy =                 419.0901058885131079
    Total Energy =                       -309.1767337175991770
  Basis Set: (AUG-CC-PVTZ AUX)
    Blend: AUG-CC-PVTZ-RI
    Molecular point group: c1

    Geometry (in Angstrom), charge = 0, multiplicity = 1:

       Center              X                  Y                   Z               Mass
    ------------   -----------------  -----------------  -----------------  -----------------
         O            0.369946654323    -1.046320135818     0.883068512380    15.994914619570
         C           -1.138237345677     0.275144864182    -0.434012487620    12.000000000000
         C            0.286974554323    -0.204073035818     0.025442912380    12.000000000000
         C            1.439652654323     0.476060864182    -0.637689487620    12.000000000000
         C           -1.619090345677     1.346331864182     0.554361512380    12.000000000000
         C           -2.111480345677    -0.898411135818    -0.494044487620    12.000000000000
         C            2.762671654323     0.087832864182     0.004931512380    12.000000000000
         H           -1.047841345677     0.732197864182    -1.428368487620     1.007825032230
         H            1.283546654323     1.563048864182    -0.612973487620     1.007825032230
         H            1.422482654323     0.206581864182    -1.703269487620     1.007825032230
         H           -0.931349345677     2.196802864182     0.599808512380     1.007825032230
         H           -1.698499345677     0.913776864182     1.556020512380     1.007825032230
         H           -2.603127345677     1.722494864182     0.259155512380     1.007825032230
         H           -1.781649345677    -1.649585135818    -1.217745487620     1.007825032230
         H           -2.173484345677    -1.378479135818     0.484869512380     1.007825032230
         H           -3.108574345677    -0.555260135818    -0.785755487620     1.007825032230
         H            2.779603654323     0.377262864182     1.057913512380     1.007825032230
         H            2.908387654323    -0.992956135818    -0.040028487620     1.007825032230
         H            3.597933654323     0.576232864182    -0.503840487620     1.007825032230

  Basis Set: AUG-CC-PVTZ
    Blend: AUG-CC-PVTZ
  Basis Set: (AUG-CC-PVTZ AUX)
    Blend: AUG-CC-PVTZ-JKFIT
	 Reference Energy          =    -309.1767337175991770 [Eh]
	 Singles Energy            =      -0.0000000000000000 [Eh]
	 Same-Spin Energy          =      -0.3163437033494884 [Eh]
	 Opposite-Spin Energy      =      -1.1021671706503859 [Eh]
	 Correlation Energy        =      -1.4185108739998742 [Eh]
	 Total Energy              =    -310.5952445915990552 [Eh]

	 ================> DF-SCS-MP2 Energies <==================
	-----------------------------------------------------------
	 SCS Same-Spin Scale       =       0.3333333333333333 [-]
	 SCS Opposite-Spin Scale   =       1.2000000000000000 [-]
	 SCS Same-Spin Energy      =      -0.1054479011164961 [Eh]
	 SCS Opposite-Spin Energy  =      -1.3226006047804630 [Eh]
	 SCS Correlation Energy    =      -1.4280485058969592 [Eh]
	 SCS Total Energy          =    -310.6047822234961586 [Eh]
	-----------------------------------------------------------

  Dipole Moment: [D]
     X:    -0.0795      Y:     1.8482      Z:    -1.7903     Total:     2.5743

*** Psi4 exiting successfully. Buy a developer a beer!
