                               Psi4 1.3.2 release

  ==> Input File <==

--------------------------------------------------------------------------
#psi4
#
memory 32 gb

molecule  {
0 1
  O        0.3935890    -1.1834810     0.6928250
  C       -1.1363630     0.3083220    -0.3952430
  C        0.2436863    -0.1766806    -0.0080636
  C        1.4343240     0.6136100    -0.5100380
  C       -1.6230330     1.2650800     0.7040440
  C       -2.1008890    -0.8571740    -0.5744690
  C        2.7660710     0.0938090     0.0047360
  H       -1.0562100     0.8719860    -1.3362890
  H        1.2708310     1.6616733    -0.2207746
  H        1.4031030     0.6104820    -1.6083150
  H       -0.9521060     2.1204610     0.8293460
  H       -1.6846230     0.7313890     1.6588270
  H       -2.6168740     1.6507050     0.4584890
  H       -1.7562200    -1.5424760    -1.3562160
  H       -2.1750630    -1.4236530     0.3564710
  H       -3.0946750    -0.4900390    -0.8506910
  H        2.7911150     0.1168120     1.0954440
  H        2.9171760    -0.9417660    -0.3044500
  H        3.5913670     0.6986870    -0.3779970
units angstrom
no_reorient  #important for SAPT in psi4, default
symmetry c1  #important for SAPT in psi4, default
}

set PROPERTIES_ORIGIN ["COM"]
properties('MP2/aug-cc-pvtz', properties = ['dipole'])
--------------------------------------------------------------------------

    Molecular point group: c1
  Charge       = 0
  Multiplicity = 1
  Basis Set: AUG-CC-PVTZ
    Blend: AUG-CC-PVTZ
  Basis Set: (AUG-CC-PVTZ AUX)
    Blend: AUG-CC-PVTZ-JKFIT

    Orbital Energies [Eh]
    ---------------------

    Doubly Occupied:

       1A    -20.539805     2A    -11.325200     3A    -11.242341
       4A    -11.239591     5A    -11.229155     6A    -11.216234
       7A    -11.215480     8A     -1.368351     9A     -1.092403
      10A     -1.047310    11A     -0.938221    12A     -0.908268
      13A     -0.823880    14A     -0.720327    15A     -0.671925
      16A     -0.632345    17A     -0.623487    18A     -0.605004
      19A     -0.568498    20A     -0.552682    21A     -0.544717
      22A     -0.519410    23A     -0.511722    24A     -0.505635
      25A     -0.492960    26A     -0.481805    27A     -0.467808
      28A     -0.403078

  @DF-RHF Final Energy:  -309.17570721436550

   => Energetics <=

    Nuclear Repulsion Energy =            315.0445321515122146
    One-Electron Energy =               -1043.4651941754582367
    Two-Electron Energy =                 419.2449548095805767
    Total Energy =                       -309.1757072143655023
  Basis Set: (AUG-CC-PVTZ AUX)
    Blend: AUG-CC-PVTZ-RI
    Molecular point group: c1

    Geometry (in Angstrom), charge = 0, multiplicity = 1:

       Center              X                  Y                   Z               Mass
    ------------   -----------------  -----------------  -----------------  -----------------
         O            0.394306962785    -1.184779681843     0.692183984814    15.994914619570
         C           -1.135645037215     0.307023318157    -0.395884015186    12.000000000000
         C            0.244404262785    -0.177979281843    -0.008704615186    12.000000000000
         C            1.435041962785     0.612311318157    -0.510679015186    12.000000000000
         C           -1.622315037215     1.263781318157     0.703402984814    12.000000000000
         C           -2.100171037215    -0.858472681843    -0.575110015186    12.000000000000
         C            2.766788962785     0.092510318157     0.004094984814    12.000000000000
         H           -1.055492037215     0.870687318157    -1.336930015186     1.007825032230
         H            1.271548962785     1.660374618157    -0.221415615186     1.007825032230
         H            1.403820962785     0.609183318157    -1.608956015186     1.007825032230
         H           -0.951388037215     2.119162318157     0.828704984814     1.007825032230
         H           -1.683905037215     0.730090318157     1.658185984814     1.007825032230
         H           -2.616156037215     1.649406318157     0.457847984814     1.007825032230
         H           -1.755502037215    -1.543774681843    -1.356857015186     1.007825032230
         H           -2.174345037215    -1.424951681843     0.355829984814     1.007825032230
         H           -3.093957037215    -0.491337681843    -0.851332015186     1.007825032230
         H            2.791832962785     0.115513318157     1.094802984814     1.007825032230
         H            2.917893962785    -0.943064681843    -0.305091015186     1.007825032230
         H            3.592084962785     0.697388318157    -0.378638015186     1.007825032230

  Basis Set: AUG-CC-PVTZ
    Blend: AUG-CC-PVTZ
  Basis Set: (AUG-CC-PVTZ AUX)
    Blend: AUG-CC-PVTZ-JKFIT
	 Reference Energy          =    -309.1757072143655023 [Eh]
	 Singles Energy            =      -0.0000000000000000 [Eh]
	 Same-Spin Energy          =      -0.3172890070760342 [Eh]
	 Opposite-Spin Energy      =      -1.1039359582642143 [Eh]
	 Correlation Energy        =      -1.4212249653402487 [Eh]
	 Total Energy              =    -310.5969321797057319 [Eh]

	 ================> DF-SCS-MP2 Energies <==================
	-----------------------------------------------------------
	 SCS Same-Spin Scale       =       0.3333333333333333 [-]
	 SCS Opposite-Spin Scale   =       1.2000000000000000 [-]
	 SCS Same-Spin Energy      =      -0.1057630023586781 [Eh]
	 SCS Opposite-Spin Energy  =      -1.3247231499170571 [Eh]
	 SCS Correlation Energy    =      -1.4304861522757353 [Eh]
	 SCS Total Energy          =    -310.6061933666412642 [Eh]
	-----------------------------------------------------------

  Dipole Moment: [D]
     X:    -0.3957      Y:     2.2406      Z:    -1.4632     Total:     2.7051

*** Psi4 exiting successfully. Buy a developer a beer!
