                               Psi4 1.4a3.dev225

  ==> Input File <==

--------------------------------------------------------------------------
#psi4
#
memory 32 gb

molecule  {
0 1
  O        0.3867680    -1.0807900     0.9052720
  C       -1.1214160     0.2406750    -0.4118090
  C        0.2131481    -0.2080631     0.0184236
  C        1.4564740     0.4415910    -0.6154860
  C       -1.6022690     1.3118620     0.5765650
  C       -2.0946590    -0.9328810    -0.4718410
  C        2.7794930     0.0533630     0.0271350
  H       -1.0310200     0.6977280    -1.4061650
  H        1.3003680     1.5285790    -0.5907700
  H        1.4393040     0.1721120    -1.6810660
  H       -0.9145280     2.1623330     0.6220120
  H       -1.6816780     0.8793070     1.5782240
  H       -2.5863060     1.6880250     0.2813590
  H       -1.7648280    -1.6840550    -1.1955420
  H       -2.1566630    -1.4129490     0.5070730
  H       -3.0917530    -0.5897300    -0.7635520
  H        2.7964250     0.3427930     1.0801170
  H        2.9252090    -1.0274260    -0.0178250
  H        3.6147550     0.5417630    -0.4816370
units angstrom
no_reorient  #important for SAPT in psi4, default
symmetry c1  #important for SAPT in psi4, default
}

set PROPERTIES_ORIGIN ["COM"]
properties('MP2/aug-cc-pvtz', properties = ['dipole'])
--------------------------------------------------------------------------

    Molecular point group: c1
  Charge       = 0
  Multiplicity = 1
  Basis Set: AUG-CC-PVTZ
    Blend: AUG-CC-PVTZ
  Basis Set: (AUG-CC-PVTZ AUX)
    Blend: AUG-CC-PVTZ-JKFIT

    Orbital Energies [Eh]
    ---------------------

    Doubly Occupied:

       1A    -20.537740     2A    -11.327520     3A    -11.243118
       4A    -11.240560     5A    -11.231184     6A    -11.218882
       7A    -11.215209     8A     -1.354931     9A     -1.098856
      10A     -1.043131    11A     -0.941040    12A     -0.910234
      13A     -0.828989    14A     -0.719963    15A     -0.670307
      16A     -0.629685    17A     -0.624152    18A     -0.599280
      19A     -0.571073    20A     -0.553744    21A     -0.546571
      22A     -0.517613    23A     -0.511371    24A     -0.504679
      25A     -0.493026    26A     -0.483941    27A     -0.461273
      28A     -0.405455

  @DF-RHF Final Energy:  -309.17069699040655

   => Energetics <=

    Nuclear Repulsion Energy =            314.8269953419447234
    One-Electron Energy =               -1043.0283321044660170
    Two-Electron Energy =                 419.0306397721147960
    Total Energy =                       -309.1706969904065545
  Basis Set: (AUG-CC-PVTZ AUX)
    Blend: AUG-CC-PVTZ-RI
    Molecular point group: c1

    Geometry (in Angstrom), charge = 0, multiplicity = 1:

       Center              X                  Y                   Z               Mass
    ------------   -----------------  -----------------  -----------------  -----------------
         O            0.380814737834    -1.049974466225     0.886572136635    15.994914619570
         C           -1.127369262166     0.271490533775    -0.430508863365    12.000000000000
         C            0.207194837834    -0.177247566225    -0.000276263365    12.000000000000
         C            1.450520737834     0.472406533775    -0.634185863365    12.000000000000
         C           -1.608222262166     1.342677533775     0.557865136635    12.000000000000
         C           -2.100612262166    -0.902065466225    -0.490540863365    12.000000000000
         C            2.773539737834     0.084178533775     0.008435136635    12.000000000000
         H           -1.036973262166     0.728543533775    -1.424864863365     1.007825032230
         H            1.294414737834     1.559394533775    -0.609469863365     1.007825032230
         H            1.433350737834     0.202927533775    -1.699765863365     1.007825032230
         H           -0.920481262166     2.193148533775     0.603312136635     1.007825032230
         H           -1.687631262166     0.910122533775     1.559524136635     1.007825032230
         H           -2.592259262166     1.718840533775     0.262659136635     1.007825032230
         H           -1.770781262166    -1.653239466225    -1.214241863365     1.007825032230
         H           -2.162616262166    -1.382133466225     0.488373136635     1.007825032230
         H           -3.097706262166    -0.558914466225    -0.782251863365     1.007825032230
         H            2.790471737834     0.373608533775     1.061417136635     1.007825032230
         H            2.919255737834    -0.996610466225    -0.036524863365     1.007825032230
         H            3.608801737834     0.572578533775    -0.500336863365     1.007825032230

  Basis Set: AUG-CC-PVTZ
    Blend: AUG-CC-PVTZ
  Basis Set: (AUG-CC-PVTZ AUX)
    Blend: AUG-CC-PVTZ-JKFIT
	 Reference Energy          =    -309.1706969904065545 [Eh]
	 Singles Energy            =      -0.0000000000000000 [Eh]
	 Same-Spin Energy          =      -0.3179690853794225 [Eh]
	 Opposite-Spin Energy      =      -1.1053740497897848 [Eh]
	 Correlation Energy        =      -1.4233431351692074 [Eh]
	 Total Energy              =    -310.5940401255757592 [Eh]

	 ================> DF-SCS-MP2 Energies <==================
	-----------------------------------------------------------
	 SCS Same-Spin Scale       =       0.3333333333333333 [-]
	 SCS Opposite-Spin Scale   =       1.2000000000000000 [-]
	 SCS Same-Spin Energy      =      -0.1059896951264742 [Eh]
	 SCS Opposite-Spin Energy  =      -1.3264488597477417 [Eh]
	 SCS Correlation Energy    =      -1.4324385548742158 [Eh]
	 SCS Total Energy          =    -310.6031355452807929 [Eh]
	-----------------------------------------------------------

  Dipole Moment: [D]
     X:    -0.5586      Y:     1.9841      Z:    -1.8547     Total:     2.7728

*** Psi4 exiting successfully. Buy a developer a beer!
