                               Psi4 1.3.2 release

  ==> Input File <==

--------------------------------------------------------------------------
#psi4
#
memory 32 gb

molecule  {
0 1
  O        0.3935890    -1.1834810     0.6928250
  C       -1.1363630     0.3083220    -0.3952430
  C        0.2543539    -0.1986864    -0.0181022
  C        1.4343240     0.6136100    -0.5100380
  C       -1.6230330     1.2650800     0.7040440
  C       -2.1008890    -0.8571740    -0.5744690
  C        2.7660710     0.0938090     0.0047360
  H       -1.0562100     0.8719860    -1.3362890
  H        1.2875088     1.6663747    -0.2290191
  H        1.4031030     0.6104820    -1.6083150
  H       -0.9521060     2.1204610     0.8293460
  H       -1.6846230     0.7313890     1.6588270
  H       -2.6168740     1.6507050     0.4584890
  H       -1.7562200    -1.5424760    -1.3562160
  H       -2.1750630    -1.4236530     0.3564710
  H       -3.0946750    -0.4900390    -0.8506910
  H        2.7911150     0.1168120     1.0954440
  H        2.9171760    -0.9417660    -0.3044500
  H        3.5913670     0.6986870    -0.3779970
units angstrom
no_reorient  #important for SAPT in psi4, default
symmetry c1  #important for SAPT in psi4, default
}

set PROPERTIES_ORIGIN ["COM"]
properties('MP2/aug-cc-pvtz', properties = ['dipole'])
--------------------------------------------------------------------------

    Molecular point group: c1
  Charge       = 0
  Multiplicity = 1
  Basis Set: AUG-CC-PVTZ
    Blend: AUG-CC-PVTZ
  Basis Set: (AUG-CC-PVTZ AUX)
    Blend: AUG-CC-PVTZ-JKFIT

    Orbital Energies [Eh]
    ---------------------

    Doubly Occupied:

       1A    -20.541494     2A    -11.324384     3A    -11.241651
       4A    -11.238967     5A    -11.228273     6A    -11.215403
       7A    -11.215271     8A     -1.377601     9A     -1.089862
      10A     -1.047311    11A     -0.937247    12A     -0.906550
      13A     -0.821620    14A     -0.721062    15A     -0.673028
      16A     -0.631859    17A     -0.623782    18A     -0.607881
      19A     -0.567940    20A     -0.552038    21A     -0.544162
      22A     -0.520564    23A     -0.512832    24A     -0.506056
      25A     -0.492295    26A     -0.481264    27A     -0.471424
      28A     -0.400757

  @DF-RHF Final Energy:  -309.17721477604204

   => Energetics <=

    Nuclear Repulsion Energy =            315.0383811224402280
    One-Electron Energy =               -1043.4460326895618891
    Two-Electron Energy =                 419.2304367910796259
    Total Energy =                       -309.1772147760420353
  Basis Set: (AUG-CC-PVTZ AUX)
    Blend: AUG-CC-PVTZ-RI
    Molecular point group: c1

    Geometry (in Angstrom), charge = 0, multiplicity = 1:

       Center              X                  Y                   Z               Mass
    ------------   -----------------  -----------------  -----------------  -----------------
         O            0.392860052815    -1.182188668938     0.693470564273    15.994914619570
         C           -1.137091947185     0.309614331062    -0.394597435727    12.000000000000
         C            0.253624952815    -0.197394068938    -0.017456635727    12.000000000000
         C            1.433595052815     0.614902331062    -0.509392435727    12.000000000000
         C           -1.623761947185     1.266372331062     0.704689564273    12.000000000000
         C           -2.101617947185    -0.855881668938    -0.573823435727    12.000000000000
         C            2.765342052815     0.095101331062     0.005381564273    12.000000000000
         H           -1.056938947185     0.873278331062    -1.335643435727     1.007825032230
         H            1.286779852815     1.667667031062    -0.228373535727     1.007825032230
         H            1.402374052815     0.611774331062    -1.607669435727     1.007825032230
         H           -0.952834947185     2.121753331062     0.829991564273     1.007825032230
         H           -1.685351947185     0.732681331062     1.659472564273     1.007825032230
         H           -2.617602947185     1.651997331062     0.459134564273     1.007825032230
         H           -1.756948947185    -1.541183668938    -1.355570435727     1.007825032230
         H           -2.175791947185    -1.422360668938     0.357116564273     1.007825032230
         H           -3.095403947185    -0.488746668938    -0.850045435727     1.007825032230
         H            2.790386052815     0.118104331062     1.096089564273     1.007825032230
         H            2.916447052815    -0.940473668938    -0.303804435727     1.007825032230
         H            3.590638052815     0.699979331062    -0.377351435727     1.007825032230

  Basis Set: AUG-CC-PVTZ
    Blend: AUG-CC-PVTZ
  Basis Set: (AUG-CC-PVTZ AUX)
    Blend: AUG-CC-PVTZ-JKFIT
	 Reference Energy          =    -309.1772147760420353 [Eh]
	 Singles Energy            =      -0.0000000000000000 [Eh]
	 Same-Spin Energy          =      -0.3168499320465619 [Eh]
	 Opposite-Spin Energy      =      -1.1031122361071830 [Eh]
	 Correlation Energy        =      -1.4199621681537449 [Eh]
	 Total Energy              =    -310.5971769441957804 [Eh]

	 ================> DF-SCS-MP2 Energies <==================
	-----------------------------------------------------------
	 SCS Same-Spin Scale       =       0.3333333333333333 [-]
	 SCS Opposite-Spin Scale   =       1.2000000000000000 [-]
	 SCS Same-Spin Energy      =      -0.1056166440155206 [Eh]
	 SCS Opposite-Spin Energy  =      -1.3237346833286197 [Eh]
	 SCS Correlation Energy    =      -1.4293513273441403 [Eh]
	 SCS Total Energy          =    -310.6065661033861716 [Eh]
	-----------------------------------------------------------

  Dipole Moment: [D]
     X:    -0.3399      Y:     2.2006      Z:    -1.4446     Total:     2.6543

*** Psi4 exiting successfully. Buy a developer a beer!
