                               Psi4 1.3.2 release

  ==> Input File <==

--------------------------------------------------------------------------
#psi4
#
memory 32 gb

molecule  {
0 1
  O        0.4148476    -1.1807144     0.6920465
  C       -1.1363630     0.3083220    -0.3952430
  C        0.2489750    -0.1877140    -0.0130640
  C        1.4505573     0.5969523    -0.4974753
  C       -1.6230330     1.2650800     0.7040440
  C       -2.1008890    -0.8571740    -0.5744690
  C        2.7660710     0.0938090     0.0047360
  H       -1.0562100     0.8719860    -1.3362890
  H        1.2791640     1.6640640    -0.2248860
  H        1.4031030     0.6104820    -1.6083150
  H       -0.9521060     2.1204610     0.8293460
  H       -1.6846230     0.7313890     1.6588270
  H       -2.6168740     1.6507050     0.4584890
  H       -1.7562200    -1.5424760    -1.3562160
  H       -2.1750630    -1.4236530     0.3564710
  H       -3.0946750    -0.4900390    -0.8506910
  H        2.7911150     0.1168120     1.0954440
  H        2.9171760    -0.9417660    -0.3044500
  H        3.5913670     0.6986870    -0.3779970
units angstrom
no_reorient  #important for SAPT in psi4, default
symmetry c1  #important for SAPT in psi4, default
}

set PROPERTIES_ORIGIN ["COM"]
properties('MP2/aug-cc-pvtz', properties = ['dipole'])
--------------------------------------------------------------------------

    Molecular point group: c1
  Charge       = 0
  Multiplicity = 1
  Basis Set: AUG-CC-PVTZ
    Blend: AUG-CC-PVTZ
  Basis Set: (AUG-CC-PVTZ AUX)
    Blend: AUG-CC-PVTZ-JKFIT

    Orbital Energies [Eh]
    ---------------------

    Doubly Occupied:

       1A    -20.539718     2A    -11.324478     3A    -11.243687
       4A    -11.239615     5A    -11.229265     6A    -11.216795
       7A    -11.213720     8A     -1.372801     9A     -1.091682
      10A     -1.049821    11A     -0.938478    12A     -0.907581
      13A     -0.822072    14A     -0.719812    15A     -0.672733
      16A     -0.629993    17A     -0.624145    18A     -0.606417
      19A     -0.568996    20A     -0.555641    21A     -0.545376
      22A     -0.519599    23A     -0.511742    24A     -0.507005
      25A     -0.490416    26A     -0.481747    27A     -0.468307
      28A     -0.402060

  @DF-RHF Final Energy:  -309.17549750370938

   => Energetics <=

    Nuclear Repulsion Energy =            315.1474103547678851
    One-Electron Energy =               -1043.6584156239073309
    Two-Electron Energy =                 419.3355077654300658
    Total Energy =                       -309.1754975037093800
  Basis Set: (AUG-CC-PVTZ AUX)
    Blend: AUG-CC-PVTZ-RI
    Molecular point group: c1

    Geometry (in Angstrom), charge = 0, multiplicity = 1:

       Center              X                  Y                   Z               Mass
    ------------   -----------------  -----------------  -----------------  -----------------
         O            0.409504029357    -1.179159293816     0.690664622939    15.994914619570
         C           -1.141706570643     0.309877106184    -0.396624877061    12.000000000000
         C            0.243631429357    -0.186158893816    -0.014445877061    12.000000000000
         C            1.445213729357     0.598507406184    -0.498857177061    12.000000000000
         C           -1.628376570643     1.266635106184     0.702662122939    12.000000000000
         C           -2.106232570643    -0.855618893816    -0.575850877061    12.000000000000
         C            2.760727429357     0.095364106184     0.003354122939    12.000000000000
         H           -1.061553570643     0.873541106184    -1.337670877061     1.007825032230
         H            1.273820429357     1.665619106184    -0.226267877061     1.007825032230
         H            1.397759429357     0.612037106184    -1.609696877061     1.007825032230
         H           -0.957449570643     2.122016106184     0.827964122939     1.007825032230
         H           -1.689966570643     0.732944106184     1.657445122939     1.007825032230
         H           -2.622217570643     1.652260106184     0.457107122939     1.007825032230
         H           -1.761563570643    -1.540920893816    -1.357597877061     1.007825032230
         H           -2.180406570643    -1.422097893816     0.355089122939     1.007825032230
         H           -3.100018570643    -0.488483893816    -0.852072877061     1.007825032230
         H            2.785771429357     0.118367106184     1.094062122939     1.007825032230
         H            2.911832429357    -0.940210893816    -0.305831877061     1.007825032230
         H            3.586023429357     0.700242106184    -0.379378877061     1.007825032230

  Basis Set: AUG-CC-PVTZ
    Blend: AUG-CC-PVTZ
  Basis Set: (AUG-CC-PVTZ AUX)
    Blend: AUG-CC-PVTZ-JKFIT
	 Reference Energy          =    -309.1754975037093800 [Eh]
	 Singles Energy            =      -0.0000000000000000 [Eh]
	 Same-Spin Energy          =      -0.3172353852767069 [Eh]
	 Opposite-Spin Energy      =      -1.1036431929552384 [Eh]
	 Correlation Energy        =      -1.4208785782319453 [Eh]
	 Total Energy              =    -310.5963760819413437 [Eh]

	 ================> DF-SCS-MP2 Energies <==================
	-----------------------------------------------------------
	 SCS Same-Spin Scale       =       0.3333333333333333 [-]
	 SCS Opposite-Spin Scale   =       1.2000000000000000 [-]
	 SCS Same-Spin Energy      =      -0.1057451284255690 [Eh]
	 SCS Opposite-Spin Energy  =      -1.3243718315462860 [Eh]
	 SCS Correlation Energy    =      -1.4301169599718551 [Eh]
	 SCS Total Energy          =    -310.6056144636812633 [Eh]
	-----------------------------------------------------------

  Dipole Moment: [D]
     X:    -0.4250      Y:     2.2140      Z:    -1.4506     Total:     2.6808

*** Psi4 exiting successfully. Buy a developer a beer!
