                               Psi4 1.3.2 release

  ==> Input File <==

--------------------------------------------------------------------------
#psi4
#
memory 32 gb

molecule  {
0 1
  O        0.3935890    -1.1834810     0.6928250
  C       -1.1363630     0.3083220    -0.3952430
  C        0.2539662    -0.1819703    -0.0239319
  C        1.4343240     0.6136100    -0.5100380
  C       -1.6230330     1.2650800     0.7040440
  C       -2.1008890    -0.8571740    -0.5744690
  C        2.7660710     0.0938090     0.0047360
  H       -1.0467621     0.8703016    -1.3364443
  H        1.2791640     1.6640640    -0.2248860
  H        1.4031030     0.6104820    -1.6083150
  H       -0.9521060     2.1204610     0.8293460
  H       -1.6846230     0.7313890     1.6588270
  H       -2.6168740     1.6507050     0.4584890
  H       -1.7562200    -1.5424760    -1.3562160
  H       -2.1750630    -1.4236530     0.3564710
  H       -3.0946750    -0.4900390    -0.8506910
  H        2.7911150     0.1168120     1.0954440
  H        2.9171760    -0.9417660    -0.3044500
  H        3.5913670     0.6986870    -0.3779970
units angstrom
no_reorient  #important for SAPT in psi4, default
symmetry c1  #important for SAPT in psi4, default
}

set PROPERTIES_ORIGIN ["COM"]
properties('MP2/aug-cc-pvtz', properties = ['dipole'])
--------------------------------------------------------------------------

    Molecular point group: c1
  Charge       = 0
  Multiplicity = 1
  Basis Set: AUG-CC-PVTZ
    Blend: AUG-CC-PVTZ
  Basis Set: (AUG-CC-PVTZ AUX)
    Blend: AUG-CC-PVTZ-JKFIT

    Orbital Energies [Eh]
    ---------------------

    Doubly Occupied:

       1A    -20.539644     2A    -11.325452     3A    -11.242451
       4A    -11.239941     5A    -11.228875     6A    -11.215904
       7A    -11.215880     8A     -1.366056     9A     -1.091459
      10A     -1.049012    11A     -0.937705    12A     -0.909275
      13A     -0.823589    14A     -0.720138    15A     -0.671553
      16A     -0.632695    17A     -0.623215    18A     -0.605071
      19A     -0.567912    20A     -0.553110    21A     -0.544314
      22A     -0.519449    23A     -0.511612    24A     -0.505215
      25A     -0.492396    26A     -0.481850    27A     -0.467040
      28A     -0.403702

  @DF-RHF Final Energy:  -309.17526959882349

   => Energetics <=

    Nuclear Repulsion Energy =            314.9746858644884924
    One-Electron Energy =               -1043.3308805135836792
    Two-Electron Energy =                 419.1809250502716964
    Total Energy =                       -309.1752695988234905
  Basis Set: (AUG-CC-PVTZ AUX)
    Blend: AUG-CC-PVTZ-RI
    Molecular point group: c1

    Geometry (in Angstrom), charge = 0, multiplicity = 1:

       Center              X                  Y                   Z               Mass
    ------------   -----------------  -----------------  -----------------  -----------------
         O            0.392895428079    -1.184152593061     0.694129453816    15.994914619570
         C           -1.137056571921     0.307650406939    -0.393938546184    12.000000000000
         C            0.253272628079    -0.182641893061    -0.022627446184    12.000000000000
         C            1.433630428079     0.612938406939    -0.508733546184    12.000000000000
         C           -1.623726571921     1.264408406939     0.705348453816    12.000000000000
         C           -2.101582571921    -0.857845593061    -0.573164546184    12.000000000000
         C            2.765377428079     0.093137406939     0.006040453816    12.000000000000
         H           -1.047455671921     0.869630006939    -1.335139846184     1.007825032230
         H            1.278470428079     1.663392406939    -0.223581546184     1.007825032230
         H            1.402409428079     0.609810406939    -1.607010546184     1.007825032230
         H           -0.952799571921     2.119789406939     0.830650453816     1.007825032230
         H           -1.685316571921     0.730717406939     1.660131453816     1.007825032230
         H           -2.617567571921     1.650033406939     0.459793453816     1.007825032230
         H           -1.756913571921    -1.543147593061    -1.354911546184     1.007825032230
         H           -2.175756571921    -1.424324593061     0.357775453816     1.007825032230
         H           -3.095368571921    -0.490710593061    -0.849386546184     1.007825032230
         H            2.790421428079     0.116140406939     1.096748453816     1.007825032230
         H            2.916482428079    -0.942437593061    -0.303145546184     1.007825032230
         H            3.590673428079     0.698015406939    -0.376692546184     1.007825032230

  Basis Set: AUG-CC-PVTZ
    Blend: AUG-CC-PVTZ
  Basis Set: (AUG-CC-PVTZ AUX)
    Blend: AUG-CC-PVTZ-JKFIT
	 Reference Energy          =    -309.1752695988234905 [Eh]
	 Singles Energy            =      -0.0000000000000000 [Eh]
	 Same-Spin Energy          =      -0.3173700117587576 [Eh]
	 Opposite-Spin Energy      =      -1.1041351751796951 [Eh]
	 Correlation Energy        =      -1.4215051869384525 [Eh]
	 Total Energy              =    -310.5967747857619656 [Eh]

	 ================> DF-SCS-MP2 Energies <==================
	-----------------------------------------------------------
	 SCS Same-Spin Scale       =       0.3333333333333333 [-]
	 SCS Opposite-Spin Scale   =       1.2000000000000000 [-]
	 SCS Same-Spin Energy      =      -0.1057900039195858 [Eh]
	 SCS Opposite-Spin Energy  =      -1.3249622102156340 [Eh]
	 SCS Correlation Energy    =      -1.4307522141352198 [Eh]
	 SCS Total Energy          =    -310.6060218129587156 [Eh]
	-----------------------------------------------------------

  Dipole Moment: [D]
     X:    -0.3407      Y:     2.2545      Z:    -1.4764     Total:     2.7164

*** Psi4 exiting successfully. Buy a developer a beer!
