                               Psi4 1.3.2 release

  ==> Input File <==

--------------------------------------------------------------------------
#psi4
#
memory 32 gb

molecule  {
0 1
  O        0.3935890    -1.1834810     0.6928250
  C       -1.1363630     0.3083220    -0.3952430
  C        0.2823783    -0.2188785     0.0135456
  C        1.4343240     0.6136100    -0.5100380
  C       -1.6230330     1.2650800     0.7040440
  C       -2.1008890    -0.8571740    -0.5744690
  C        2.7400227     0.0558344     0.0310467
  H       -1.0562100     0.8719860    -1.3362890
  H        1.2791640     1.6640640    -0.2248860
  H        1.4031030     0.6104820    -1.6083150
  H       -0.9521060     2.1204610     0.8293460
  H       -1.6846230     0.7313890     1.6588270
  H       -2.6168740     1.6507050     0.4584890
  H       -1.7562200    -1.5424760    -1.3562160
  H       -2.1750630    -1.4236530     0.3564710
  H       -3.0946750    -0.4900390    -0.8506910
  H        2.7911150     0.1168120     1.0954440
  H        2.9171760    -0.9417660    -0.3044500
  H        3.5913670     0.6986870    -0.3779970
units angstrom
no_reorient  #important for SAPT in psi4, default
symmetry c1  #important for SAPT in psi4, default
}

set PROPERTIES_ORIGIN ["COM"]
properties('MP2/aug-cc-pvtz', properties = ['dipole'])
--------------------------------------------------------------------------

    Molecular point group: c1
  Charge       = 0
  Multiplicity = 1
  Basis Set: AUG-CC-PVTZ
    Blend: AUG-CC-PVTZ
  Basis Set: (AUG-CC-PVTZ AUX)
    Blend: AUG-CC-PVTZ-JKFIT

    Orbital Energies [Eh]
    ---------------------

    Doubly Occupied:

       1A    -20.544877     2A    -11.320464     3A    -11.238559
       4A    -11.238204     5A    -11.225344     6A    -11.215817
       7A    -11.213337     8A     -1.404273     9A     -1.083886
      10A     -1.047896    11A     -0.934732    12A     -0.901887
      13A     -0.815213    14A     -0.723191    15A     -0.675144
      16A     -0.637884    17A     -0.627003    18A     -0.610485
      19A     -0.568496    20A     -0.549836    21A     -0.540942
      22A     -0.522650    23A     -0.513575    24A     -0.510389
      25A     -0.498508    26A     -0.479446    27A     -0.477200
      28A     -0.389393

  @DF-RHF Final Energy:  -309.17399300755358

   => Energetics <=

    Nuclear Repulsion Energy =            315.5647836042061840
    One-Electron Energy =               -1044.4602974219301359
    Two-Electron Energy =                 419.7215208101703183
    Total Energy =                       -309.1739930075535767
  Basis Set: (AUG-CC-PVTZ AUX)
    Blend: AUG-CC-PVTZ-RI
    Molecular point group: c1

    Geometry (in Angstrom), charge = 0, multiplicity = 1:

       Center              X                  Y                   Z               Mass
    ------------   -----------------  -----------------  -----------------  -----------------
         O            0.392707157592    -1.175191591579     0.686480098440    15.994914619570
         C           -1.137244842408     0.316611408421    -0.401587901560    12.000000000000
         C            0.281496457592    -0.210589091579     0.007200698440    12.000000000000
         C            1.433442157592     0.621899408421    -0.516382901560    12.000000000000
         C           -1.623914842408     1.273369408421     0.697699098440    12.000000000000
         C           -2.101770842408    -0.848884591579    -0.580813901560    12.000000000000
         C            2.739140857592     0.064123808421     0.024701798440    12.000000000000
         H           -1.057091842408     0.880275408421    -1.342633901560     1.007825032230
         H            1.278282157592     1.672353408421    -0.231230901560     1.007825032230
         H            1.402221157592     0.618771408421    -1.614659901560     1.007825032230
         H           -0.952987842408     2.128750408421     0.823001098440     1.007825032230
         H           -1.685504842408     0.739678408421     1.652482098440     1.007825032230
         H           -2.617755842408     1.658994408421     0.452144098440     1.007825032230
         H           -1.757101842408    -1.534186591579    -1.362560901560     1.007825032230
         H           -2.175944842408    -1.415363591579     0.350126098440     1.007825032230
         H           -3.095556842408    -0.481749591579    -0.857035901560     1.007825032230
         H            2.790233157592     0.125101408421     1.089099098440     1.007825032230
         H            2.916294157592    -0.933476591579    -0.310794901560     1.007825032230
         H            3.590485157592     0.706976408421    -0.384341901560     1.007825032230

  Basis Set: AUG-CC-PVTZ
    Blend: AUG-CC-PVTZ
  Basis Set: (AUG-CC-PVTZ AUX)
    Blend: AUG-CC-PVTZ-JKFIT
	 Reference Energy          =    -309.1739930075535767 [Eh]
	 Singles Energy            =      -0.0000000000000000 [Eh]
	 Same-Spin Energy          =      -0.3159287965077697 [Eh]
	 Opposite-Spin Energy      =      -1.1012249435683317 [Eh]
	 Correlation Energy        =      -1.4171537400761014 [Eh]
	 Total Energy              =    -310.5911467476296934 [Eh]

	 ================> DF-SCS-MP2 Energies <==================
	-----------------------------------------------------------
	 SCS Same-Spin Scale       =       0.3333333333333333 [-]
	 SCS Opposite-Spin Scale   =       1.2000000000000000 [-]
	 SCS Same-Spin Energy      =      -0.1053095988359232 [Eh]
	 SCS Opposite-Spin Energy  =      -1.3214699322819980 [Eh]
	 SCS Correlation Energy    =      -1.4267795311179212 [Eh]
	 SCS Total Energy          =    -310.6007725386714924 [Eh]
	-----------------------------------------------------------

  Dipole Moment: [D]
     X:    -0.1942      Y:     2.0603      Z:    -1.3659     Total:     2.4796

*** Psi4 exiting successfully. Buy a developer a beer!
