                               Psi4 1.3.2 release

  ==> Input File <==

--------------------------------------------------------------------------
#psi4
#
memory 32 gb

molecule  {
0 1
  O        0.3935890    -1.1834810     0.6928250
  C       -1.1363630     0.3083220    -0.3952430
  C        0.2598227    -0.2095968    -0.0231779
  C        1.4343240     0.6136100    -0.5100380
  C       -1.6230330     1.2650800     0.7040440
  C       -2.1008890    -0.8571740    -0.5744690
  C        2.7660710     0.0938090     0.0047360
  H       -1.0562100     0.8719860    -1.3362890
  H        1.2958647     1.6686053    -0.2331737
  H        1.4031030     0.6104820    -1.6083150
  H       -0.9521060     2.1204610     0.8293460
  H       -1.6846230     0.7313890     1.6588270
  H       -2.6168740     1.6507050     0.4584890
  H       -1.7562200    -1.5424760    -1.3562160
  H       -2.1750630    -1.4236530     0.3564710
  H       -3.0946750    -0.4900390    -0.8506910
  H        2.7911150     0.1168120     1.0954440
  H        2.9171760    -0.9417660    -0.3044500
  H        3.5913670     0.6986870    -0.3779970
units angstrom
no_reorient  #important for SAPT in psi4, default
symmetry c1  #important for SAPT in psi4, default
}

set PROPERTIES_ORIGIN ["COM"]
properties('MP2/aug-cc-pvtz', properties = ['dipole'])
--------------------------------------------------------------------------

    Molecular point group: c1
  Charge       = 0
  Multiplicity = 1
  Basis Set: AUG-CC-PVTZ
    Blend: AUG-CC-PVTZ
  Basis Set: (AUG-CC-PVTZ AUX)
    Blend: AUG-CC-PVTZ-JKFIT

    Orbital Energies [Eh]
    ---------------------

    Doubly Occupied:

       1A    -20.542353     2A    -11.324041     3A    -11.241293
       4A    -11.238691     5A    -11.227842     6A    -11.215176
       7A    -11.214982     8A     -1.382170     9A     -1.088609
      10A     -1.047326    11A     -0.936765    12A     -0.905700
      13A     -0.820483    14A     -0.721503    15A     -0.673566
      16A     -0.631659    17A     -0.624120    18A     -0.609080
      19A     -0.567658    20A     -0.551725    21A     -0.543894
      22A     -0.521146    23A     -0.513541    24A     -0.506298
      25A     -0.491977    26A     -0.480973    27A     -0.472929
      28A     -0.399427

  @DF-RHF Final Energy:  -309.17741055798581

   => Energetics <=

    Nuclear Repulsion Energy =            315.0322274721881399
    One-Electron Energy =               -1043.4294214160686352
    Two-Electron Energy =                 419.2197833858946296
    Total Energy =                       -309.1774105579858087
  Basis Set: (AUG-CC-PVTZ AUX)
    Blend: AUG-CC-PVTZ-RI
    Molecular point group: c1

    Geometry (in Angstrom), charge = 0, multiplicity = 1:

       Center              X                  Y                   Z               Mass
    ------------   -----------------  -----------------  -----------------  -----------------
         O            0.392120241027    -1.180903043311     0.694120941739    15.994914619570
         C           -1.137831758973     0.310899956689    -0.393947058261    12.000000000000
         C            0.258353941027    -0.207018843311    -0.021881958261    12.000000000000
         C            1.432855241027     0.616187956689    -0.508742058261    12.000000000000
         C           -1.624501758973     1.267657956689     0.705339941739    12.000000000000
         C           -2.102357758973    -0.854596043311    -0.573173058261    12.000000000000
         C            2.764602241027     0.096386956689     0.006031941739    12.000000000000
         H           -1.057678758973     0.874563956689    -1.334993058261     1.007825032230
         H            1.294395941027     1.671183256689    -0.231877758261     1.007825032230
         H            1.401634241027     0.613059956689    -1.607019058261     1.007825032230
         H           -0.953574758973     2.123038956689     0.830641941739     1.007825032230
         H           -1.686091758973     0.733966956689     1.660122941739     1.007825032230
         H           -2.618342758973     1.653282956689     0.459784941739     1.007825032230
         H           -1.757688758973    -1.539898043311    -1.354920058261     1.007825032230
         H           -2.176531758973    -1.421075043311     0.357766941739     1.007825032230
         H           -3.096143758973    -0.487461043311    -0.849395058261     1.007825032230
         H            2.789646241027     0.119389956689     1.096739941739     1.007825032230
         H            2.915707241027    -0.939188043311    -0.303154058261     1.007825032230
         H            3.589898241027     0.701264956689    -0.376701058261     1.007825032230

  Basis Set: AUG-CC-PVTZ
    Blend: AUG-CC-PVTZ
  Basis Set: (AUG-CC-PVTZ AUX)
    Blend: AUG-CC-PVTZ-JKFIT
	 Reference Energy          =    -309.1774105579858087 [Eh]
	 Singles Energy            =      -0.0000000000000000 [Eh]
	 Same-Spin Energy          =      -0.3166576511627567 [Eh]
	 Opposite-Spin Energy      =      -1.1027575751292726 [Eh]
	 Correlation Energy        =      -1.4194152262920294 [Eh]
	 Total Energy              =    -310.5968257842778257 [Eh]

	 ================> DF-SCS-MP2 Energies <==================
	-----------------------------------------------------------
	 SCS Same-Spin Scale       =       0.3333333333333333 [-]
	 SCS Opposite-Spin Scale   =       1.2000000000000000 [-]
	 SCS Same-Spin Energy      =      -0.1055525503875856 [Eh]
	 SCS Opposite-Spin Energy  =      -1.3233090901551272 [Eh]
	 SCS Correlation Energy    =      -1.4288616405427128 [Eh]
	 SCS Total Energy          =    -310.6062721985285293 [Eh]
	-----------------------------------------------------------

  Dipole Moment: [D]
     X:    -0.3109      Y:     2.1799      Z:    -1.4352     Total:     2.6284

*** Psi4 exiting successfully. Buy a developer a beer!
