                               Psi4 1.3.2 release

  ==> Input File <==

--------------------------------------------------------------------------
#psi4
#
memory 32 gb

molecule  {
0 1
  O        0.3935890    -1.1834810     0.6928250
  C       -1.1363630     0.3083220    -0.3952430
  C        0.2733038    -0.1119531    -0.0112088
  C        1.4343240     0.6136100    -0.5100380
  C       -1.6230330     1.2650800     0.7040440
  C       -2.1580558    -0.8044251    -0.5920957
  C        2.7660710     0.0938090     0.0047360
  H       -1.0562100     0.8719860    -1.3362890
  H        1.2791640     1.6640640    -0.2248860
  H        1.4031030     0.6104820    -1.6083150
  H       -0.9521060     2.1204610     0.8293460
  H       -1.6846230     0.7313890     1.6588270
  H       -2.6168740     1.6507050     0.4584890
  H       -1.7562200    -1.5424760    -1.3562160
  H       -2.1750630    -1.4236530     0.3564710
  H       -3.0946750    -0.4900390    -0.8506910
  H        2.7911150     0.1168120     1.0954440
  H        2.9171760    -0.9417660    -0.3044500
  H        3.5913670     0.6986870    -0.3779970
units angstrom
no_reorient  #important for SAPT in psi4, default
symmetry c1  #important for SAPT in psi4, default
}

set PROPERTIES_ORIGIN ["COM"]
properties('MP2/aug-cc-pvtz', properties = ['dipole'])
--------------------------------------------------------------------------

    Molecular point group: c1
  Charge       = 0
  Multiplicity = 1
  Basis Set: AUG-CC-PVTZ
    Blend: AUG-CC-PVTZ
  Basis Set: (AUG-CC-PVTZ AUX)
    Blend: AUG-CC-PVTZ-JKFIT

    Orbital Energies [Eh]
    ---------------------

    Doubly Occupied:

       1A    -20.536302     2A    -11.331438     3A    -11.244970
       4A    -11.243278     5A    -11.228212     6A    -11.218667
       7A    -11.217293     8A     -1.336641     9A     -1.094767
      10A     -1.057450    11A     -0.937794    12A     -0.917185
      13A     -0.828129    14A     -0.720755    15A     -0.670904
      16A     -0.637944    17A     -0.619454    18A     -0.595488
      19A     -0.580509    20A     -0.557601    21A     -0.540001
      22A     -0.522150    23A     -0.509177    24A     -0.506123
      25A     -0.484649    26A     -0.473100    27A     -0.451974
      28A     -0.410726

  @DF-RHF Final Energy:  -309.15427854348962

   => Energetics <=

    Nuclear Repulsion Energy =            314.4248292332292749
    One-Electron Energy =               -1042.2128496494935916
    Two-Electron Energy =                 418.6337418727746922
    Total Energy =                       -309.1542785434896246
  Basis Set: (AUG-CC-PVTZ AUX)
    Blend: AUG-CC-PVTZ-RI
    Molecular point group: c1

    Geometry (in Angstrom), charge = 0, multiplicity = 1:

       Center              X                  Y                   Z               Mass
    ------------   -----------------  -----------------  -----------------  -----------------
         O            0.397526037704    -1.198888413246     0.694715799901    15.994914619570
         C           -1.132425962296     0.292914586754    -0.393352200099    12.000000000000
         C            0.277240837704    -0.127360513246    -0.009318000099    12.000000000000
         C            1.438261037704     0.598202586754    -0.508147200099    12.000000000000
         C           -1.619095962296     1.249672586754     0.705934799901    12.000000000000
         C           -2.154118762296    -0.819832513246    -0.590204900099    12.000000000000
         C            2.770008037704     0.078401586754     0.006626799901    12.000000000000
         H           -1.052272962296     0.856578586754    -1.334398200099     1.007825032230
         H            1.283101037704     1.648656586754    -0.222995200099     1.007825032230
         H            1.407040037704     0.595074586754    -1.606424200099     1.007825032230
         H           -0.948168962296     2.105053586754     0.831236799901     1.007825032230
         H           -1.680685962296     0.715981586754     1.660717799901     1.007825032230
         H           -2.612936962296     1.635297586754     0.460379799901     1.007825032230
         H           -1.752282962296    -1.557883413246    -1.354325200099     1.007825032230
         H           -2.171125962296    -1.439060413246     0.358361799901     1.007825032230
         H           -3.090737962296    -0.505446413246    -0.848800200099     1.007825032230
         H            2.795052037704     0.101404586754     1.097334799901     1.007825032230
         H            2.921113037704    -0.957173413246    -0.302559200099     1.007825032230
         H            3.595304037704     0.683279586754    -0.376106200099     1.007825032230

  Basis Set: AUG-CC-PVTZ
    Blend: AUG-CC-PVTZ
  Basis Set: (AUG-CC-PVTZ AUX)
    Blend: AUG-CC-PVTZ-JKFIT
	 Reference Energy          =    -309.1542785434896246 [Eh]
	 Singles Energy            =      -0.0000000000000000 [Eh]
	 Same-Spin Energy          =      -0.3192552795633969 [Eh]
	 Opposite-Spin Energy      =      -1.1079477079044278 [Eh]
	 Correlation Energy        =      -1.4272029874678247 [Eh]
	 Total Energy              =    -310.5814815309574328 [Eh]

	 ================> DF-SCS-MP2 Energies <==================
	-----------------------------------------------------------
	 SCS Same-Spin Scale       =       0.3333333333333333 [-]
	 SCS Opposite-Spin Scale   =       1.2000000000000000 [-]
	 SCS Same-Spin Energy      =      -0.1064184265211323 [Eh]
	 SCS Opposite-Spin Energy  =      -1.3295372494853133 [Eh]
	 SCS Correlation Energy    =      -1.4359556760064456 [Eh]
	 SCS Total Energy          =    -310.5902342194960966 [Eh]
	-----------------------------------------------------------

  Dipole Moment: [D]
     X:    -0.2308      Y:     2.4211      Z:    -1.5771     Total:     2.8987

*** Psi4 exiting successfully. Buy a developer a beer!
