                               Psi4 1.3.2 release

  ==> Input File <==

--------------------------------------------------------------------------
#psi4
#
memory 32 gb

molecule  {
0 1
  O        0.3935890    -1.1834810     0.6928250
  C       -1.1363630     0.3083220    -0.3952430
  C        0.2489750    -0.1877140    -0.0130640
  C        1.4343240     0.6136100    -0.5100380
  C       -1.6230330     1.2650800     0.7040440
  C       -2.0876376    -0.8771107    -0.4983893
  C        2.7660710     0.0938090     0.0047360
  H       -1.0191069     0.9074191    -1.3101435
  H        1.2791640     1.6640640    -0.2248860
  H        1.4031030     0.6104820    -1.6083150
  H       -0.9521060     2.1204610     0.8293460
  H       -1.6846230     0.7313890     1.6588270
  H       -2.6168740     1.6507050     0.4584890
  H       -1.7562200    -1.5424760    -1.3562160
  H       -2.1750630    -1.4236530     0.3564710
  H       -3.0946750    -0.4900390    -0.8506910
  H        2.7911150     0.1168120     1.0954440
  H        2.9171760    -0.9417660    -0.3044500
  H        3.5913670     0.6986870    -0.3779970
units angstrom
no_reorient  #important for SAPT in psi4, default
symmetry c1  #important for SAPT in psi4, default
}

set PROPERTIES_ORIGIN ["COM"]
properties('MP2/aug-cc-pvtz', properties = ['dipole'])
--------------------------------------------------------------------------

    Molecular point group: c1
  Charge       = 0
  Multiplicity = 1
  Basis Set: AUG-CC-PVTZ
    Blend: AUG-CC-PVTZ
  Basis Set: (AUG-CC-PVTZ AUX)
    Blend: AUG-CC-PVTZ-JKFIT

    Orbital Energies [Eh]
    ---------------------

    Doubly Occupied:

       1A    -20.540013     2A    -11.323847     3A    -11.242821
       4A    -11.239252     5A    -11.228105     6A    -11.218112
       7A    -11.215378     8A     -1.372768     9A     -1.092215
      10A     -1.047596    11A     -0.937405    12A     -0.908017
      13A     -0.824096    14A     -0.721215    15A     -0.672963
      16A     -0.632216    17A     -0.622321    18A     -0.607659
      19A     -0.569451    20A     -0.555793    21A     -0.546138
      22A     -0.520660    23A     -0.511040    24A     -0.500430
      25A     -0.495231    26A     -0.483260    27A     -0.465863
      28A     -0.400739

  @DF-RHF Final Energy:  -309.16817031822427

   => Energetics <=

    Nuclear Repulsion Energy =            315.4114614416432119
    One-Electron Energy =               -1044.1700540374936281
    Two-Electron Energy =                 419.5904222776260895
    Total Energy =                       -309.1681703182242700
  Basis Set: (AUG-CC-PVTZ AUX)
    Blend: AUG-CC-PVTZ-RI
    Molecular point group: c1

    Geometry (in Angstrom), charge = 0, multiplicity = 1:

       Center              X                  Y                   Z               Mass
    ------------   -----------------  -----------------  -----------------  -----------------
         O            0.391626614947    -1.181447427110     0.683440169459    15.994914619570
         C           -1.138325385053     0.310355572890    -0.404627830541    12.000000000000
         C            0.247012614947    -0.185680427110    -0.022448830541    12.000000000000
         C            1.432361614947     0.615643572890    -0.519422830541    12.000000000000
         C           -1.624995385053     1.267113572890     0.694659169459    12.000000000000
         C           -2.089599985053    -0.875077127110    -0.507774130541    12.000000000000
         C            2.764108614947     0.095842572890    -0.004648830541    12.000000000000
         H           -1.021069285053     0.909452672890    -1.319528330541     1.007825032230
         H            1.277201614947     1.666097572890    -0.234270830541     1.007825032230
         H            1.401140614947     0.612515572890    -1.617699830541     1.007825032230
         H           -0.954068385053     2.122494572890     0.819961169459     1.007825032230
         H           -1.686585385053     0.733422572890     1.649442169459     1.007825032230
         H           -2.618836385053     1.652738572890     0.449104169459     1.007825032230
         H           -1.758182385053    -1.540442427110    -1.365600830541     1.007825032230
         H           -2.177025385053    -1.421619427110     0.347086169459     1.007825032230
         H           -3.096637385053    -0.488005427110    -0.860075830541     1.007825032230
         H            2.789152614947     0.118845572890     1.086059169459     1.007825032230
         H            2.915213614947    -0.939732427110    -0.313834830541     1.007825032230
         H            3.589404614947     0.700720572890    -0.387381830541     1.007825032230

  Basis Set: AUG-CC-PVTZ
    Blend: AUG-CC-PVTZ
  Basis Set: (AUG-CC-PVTZ AUX)
    Blend: AUG-CC-PVTZ-JKFIT
	 Reference Energy          =    -309.1681703182242700 [Eh]
	 Singles Energy            =      -0.0000000000000000 [Eh]
	 Same-Spin Energy          =      -0.3172482812915304 [Eh]
	 Opposite-Spin Energy      =      -1.1039144884917387 [Eh]
	 Correlation Energy        =      -1.4211627697832689 [Eh]
	 Total Energy              =    -310.5893330880075496 [Eh]

	 ================> DF-SCS-MP2 Energies <==================
	-----------------------------------------------------------
	 SCS Same-Spin Scale       =       0.3333333333333333 [-]
	 SCS Opposite-Spin Scale   =       1.2000000000000000 [-]
	 SCS Same-Spin Energy      =      -0.1057494270971768 [Eh]
	 SCS Opposite-Spin Energy  =      -1.3246973861900864 [Eh]
	 SCS Correlation Energy    =      -1.4304468132872632 [Eh]
	 SCS Total Energy          =    -310.5986171315115598 [Eh]
	-----------------------------------------------------------

  Dipole Moment: [D]
     X:    -0.3652      Y:     2.2259      Z:    -1.4352     Total:     2.6735

*** Psi4 exiting successfully. Buy a developer a beer!
