                               Psi4 1.3.2 release

  ==> Input File <==

--------------------------------------------------------------------------
#psi4
#
memory 32 gb

molecule  {
0 1
  O        0.3935890    -1.1834810     0.6928250
  C       -1.1363630     0.3083220    -0.3952430
  C        0.2571920    -0.1955981    -0.0063536
  C        1.4343240     0.6136100    -0.5100380
  C       -1.6230330     1.2650800     0.7040440
  C       -2.1008890    -0.8571740    -0.5744690
  C        2.7597098     0.0842541     0.0113737
  H       -1.0562100     0.8719860    -1.3362890
  H        1.2791640     1.6640640    -0.2248860
  H        1.4031030     0.6104820    -1.6083150
  H       -0.9521060     2.1204610     0.8293460
  H       -1.6846230     0.7313890     1.6588270
  H       -2.6168740     1.6507050     0.4584890
  H       -1.7562200    -1.5424760    -1.3562160
  H       -2.1750630    -1.4236530     0.3564710
  H       -3.0946750    -0.4900390    -0.8506910
  H        2.7911150     0.1168120     1.0954440
  H        2.9171760    -0.9417660    -0.3044500
  H        3.5913670     0.6986870    -0.3779970
units angstrom
no_reorient  #important for SAPT in psi4, default
symmetry c1  #important for SAPT in psi4, default
}

set PROPERTIES_ORIGIN ["COM"]
properties('MP2/aug-cc-pvtz', properties = ['dipole'])
--------------------------------------------------------------------------

    Molecular point group: c1
  Charge       = 0
  Multiplicity = 1
  Basis Set: AUG-CC-PVTZ
    Blend: AUG-CC-PVTZ
  Basis Set: (AUG-CC-PVTZ AUX)
    Blend: AUG-CC-PVTZ-JKFIT

    Orbital Energies [Eh]
    ---------------------

    Doubly Occupied:

       1A    -20.541673     2A    -11.323617     3A    -11.241250
       4A    -11.238894     5A    -11.227865     6A    -11.215358
       7A    -11.215205     8A     -1.380626     9A     -1.089233
      10A     -1.047394    11A     -0.936991    12A     -0.905899
      13A     -0.820813    14A     -0.721192    15A     -0.673035
      16A     -0.633334    17A     -0.623857    18A     -0.608014
      19A     -0.568022    20A     -0.551261    21A     -0.543412
      22A     -0.518758    23A     -0.514448    24A     -0.507458
      25A     -0.493606    26A     -0.481122    27A     -0.472393
      28A     -0.399206

  @DF-RHF Final Energy:  -309.17742542530897

   => Energetics <=

    Nuclear Repulsion Energy =            315.1666627722076441
    One-Electron Energy =               -1043.7003048283881981
    Two-Electron Energy =                 419.3562166308715291
    Total Energy =                       -309.1774254253089680
  Basis Set: (AUG-CC-PVTZ AUX)
    Blend: AUG-CC-PVTZ-RI
    Molecular point group: c1

    Geometry (in Angstrom), charge = 0, multiplicity = 1:

       Center              X                  Y                   Z               Mass
    ------------   -----------------  -----------------  -----------------  -----------------
         O            0.393366476019    -1.181390098375     0.691224548656    15.994914619570
         C           -1.136585523981     0.310412901625    -0.396843451344    12.000000000000
         C            0.256969476019    -0.193507198375    -0.007954051344    12.000000000000
         C            1.434101476019     0.615700901625    -0.511638451344    12.000000000000
         C           -1.623255523981     1.267170901625     0.702443548656    12.000000000000
         C           -2.101111523981    -0.855083098375    -0.576069451344    12.000000000000
         C            2.759487276019     0.086345001625     0.009773248656    12.000000000000
         H           -1.056432523981     0.874076901625    -1.337889451344     1.007825032230
         H            1.278941476019     1.666154901625    -0.226486451344     1.007825032230
         H            1.402880476019     0.612572901625    -1.609915451344     1.007825032230
         H           -0.952328523981     2.122551901625     0.827745548656     1.007825032230
         H           -1.684845523981     0.733479901625     1.657226548656     1.007825032230
         H           -2.617096523981     1.652795901625     0.456888548656     1.007825032230
         H           -1.756442523981    -1.540385098375    -1.357816451344     1.007825032230
         H           -2.175285523981    -1.421562098375     0.354870548656     1.007825032230
         H           -3.094897523981    -0.487948098375    -0.852291451344     1.007825032230
         H            2.790892476019     0.118902901625     1.093843548656     1.007825032230
         H            2.916953476019    -0.939675098375    -0.306050451344     1.007825032230
         H            3.591144476019     0.700777901625    -0.379597451344     1.007825032230

  Basis Set: AUG-CC-PVTZ
    Blend: AUG-CC-PVTZ
  Basis Set: (AUG-CC-PVTZ AUX)
    Blend: AUG-CC-PVTZ-JKFIT
	 Reference Energy          =    -309.1774254253089680 [Eh]
	 Singles Energy            =      -0.0000000000000000 [Eh]
	 Same-Spin Energy          =      -0.3167329082036050 [Eh]
	 Opposite-Spin Energy      =      -1.1028461615003549 [Eh]
	 Correlation Energy        =      -1.4195790697039599 [Eh]
	 Total Energy              =    -310.5970044950129250 [Eh]

	 ================> DF-SCS-MP2 Energies <==================
	-----------------------------------------------------------
	 SCS Same-Spin Scale       =       0.3333333333333333 [-]
	 SCS Opposite-Spin Scale   =       1.2000000000000000 [-]
	 SCS Same-Spin Energy      =      -0.1055776360678683 [Eh]
	 SCS Opposite-Spin Energy  =      -1.3234153938004258 [Eh]
	 SCS Correlation Energy    =      -1.4289930298682942 [Eh]
	 SCS Total Energy          =    -310.6064184551772769 [Eh]
	-----------------------------------------------------------

  Dipole Moment: [D]
     X:    -0.3264      Y:     2.1825      Z:    -1.4331     Total:     2.6313

*** Psi4 exiting successfully. Buy a developer a beer!
