                               Psi4 1.4a3.dev225

  ==> Input File <==

--------------------------------------------------------------------------
#psi4
#
memory 32 gb

molecule  {
0 1
  O        0.3867680    -1.0807900     0.9052720
  C       -1.1214160     0.2406750    -0.4118090
  C        0.2532561    -0.1884417    -0.0024260
  C        1.4564740     0.4415910    -0.6154860
  C       -1.6022690     1.3118620     0.5765650
  C       -2.0946590    -0.9328810    -0.4718410
  C        2.7794930     0.0533630     0.0271350
  H       -1.0310200     0.6977280    -1.4061650
  H        1.3003680     1.5285790    -0.5907700
  H        1.4393040     0.1721120    -1.6810660
  H       -0.9145280     2.1623330     0.6220120
  H       -1.6816780     0.8793070     1.5782240
  H       -2.5863060     1.6880250     0.2813590
  H       -1.7648280    -1.6840550    -1.1955420
  H       -2.1566630    -1.4129490     0.5070730
  H       -3.0917530    -0.5897300    -0.7635520
  H        2.7964250     0.3427930     1.0801170
  H        2.9252090    -1.0274260    -0.0178250
  H        3.6147550     0.5417630    -0.4816370
units angstrom
no_reorient  #important for SAPT in psi4, default
symmetry c1  #important for SAPT in psi4, default
}

set PROPERTIES_ORIGIN ["COM"]
properties('MP2/aug-cc-pvtz', properties = ['dipole'])
--------------------------------------------------------------------------

    Molecular point group: c1
  Charge       = 0
  Multiplicity = 1
  Basis Set: AUG-CC-PVTZ
    Blend: AUG-CC-PVTZ
  Basis Set: (AUG-CC-PVTZ AUX)
    Blend: AUG-CC-PVTZ-JKFIT

    Orbital Energies [Eh]
    ---------------------

    Doubly Occupied:

       1A    -20.535741     2A    -11.329343     3A    -11.244108
       4A    -11.242481     5A    -11.229665     6A    -11.217710
       7A    -11.217498     8A     -1.340484     9A     -1.095509
      10A     -1.051495    11A     -0.939322    12A     -0.914671
      13A     -0.828619    14A     -0.719369    15A     -0.669578
      16A     -0.633730    17A     -0.622748    18A     -0.596003
      19A     -0.568955    20A     -0.556303    21A     -0.545022
      22A     -0.517313    23A     -0.510858    24A     -0.503017
      25A     -0.492801    26A     -0.482641    27A     -0.454321
      28A     -0.409632

  @DF-RHF Final Energy:  -309.16733835479545

   => Energetics <=

    Nuclear Repulsion Energy =            314.6077925748331836
    One-Electron Energy =               -1042.6123882076694827
    Two-Electron Energy =                 418.8372572780408518
    Total Energy =                       -309.1673383547954472
  Basis Set: (AUG-CC-PVTZ AUX)
    Blend: AUG-CC-PVTZ-RI
    Molecular point group: c1

    Geometry (in Angstrom), charge = 0, multiplicity = 1:

       Center              X                  Y                   Z               Mass
    ------------   -----------------  -----------------  -----------------  -----------------
         O            0.376006048672    -1.052326944870     0.889071868498    15.994914619570
         C           -1.132177951328     0.269138055130    -0.428009131502    12.000000000000
         C            0.242494148672    -0.159978644870    -0.018626131502    12.000000000000
         C            1.445712048672     0.470054055130    -0.631686131502    12.000000000000
         C           -1.613030951328     1.340325055130     0.560364868498    12.000000000000
         C           -2.105420951328    -0.904417944870    -0.488041131502    12.000000000000
         C            2.768731048672     0.081826055130     0.010934868498    12.000000000000
         H           -1.041781951328     0.726191055130    -1.422365131502     1.007825032230
         H            1.289606048672     1.557042055130    -0.606970131502     1.007825032230
         H            1.428542048672     0.200575055130    -1.697266131502     1.007825032230
         H           -0.925289951328     2.190796055130     0.605811868498     1.007825032230
         H           -1.692439951328     0.907770055130     1.562023868498     1.007825032230
         H           -2.597067951328     1.716488055130     0.265158868498     1.007825032230
         H           -1.775589951328    -1.655591944870    -1.211742131502     1.007825032230
         H           -2.167424951328    -1.384485944870     0.490872868498     1.007825032230
         H           -3.102514951328    -0.561266944870    -0.779752131502     1.007825032230
         H            2.785663048672     0.371256055130     1.063916868498     1.007825032230
         H            2.914447048672    -0.998962944870    -0.034025131502     1.007825032230
         H            3.603993048672     0.570226055130    -0.497837131502     1.007825032230

  Basis Set: AUG-CC-PVTZ
    Blend: AUG-CC-PVTZ
  Basis Set: (AUG-CC-PVTZ AUX)
    Blend: AUG-CC-PVTZ-JKFIT
	 Reference Energy          =    -309.1673383547954472 [Eh]
	 Singles Energy            =      -0.0000000000000000 [Eh]
	 Same-Spin Energy          =      -0.3186131602055809 [Eh]
	 Opposite-Spin Energy      =      -1.1066944468329960 [Eh]
	 Correlation Energy        =      -1.4253076070385768 [Eh]
	 Total Energy              =    -310.5926459618340232 [Eh]

	 ================> DF-SCS-MP2 Energies <==================
	-----------------------------------------------------------
	 SCS Same-Spin Scale       =       0.3333333333333333 [-]
	 SCS Opposite-Spin Scale   =       1.2000000000000000 [-]
	 SCS Same-Spin Energy      =      -0.1062043867351936 [Eh]
	 SCS Opposite-Spin Energy  =      -1.3280333361995951 [Eh]
	 SCS Correlation Energy    =      -1.4342377229347887 [Eh]
	 SCS Total Energy          =    -310.6015760777302148 [Eh]
	-----------------------------------------------------------

  Dipole Moment: [D]
     X:    -0.3472      Y:     2.0491      Z:    -1.9397     Total:     2.8428

*** Psi4 exiting successfully. Buy a developer a beer!
