                               Psi4 1.3.2 release

  ==> Input File <==

--------------------------------------------------------------------------
#psi4
#
memory 32 gb

molecule  {
0 1
  O        0.3935890    -1.1834810     0.6928250
  C       -1.1137203     0.3485164    -0.4214662
  C        0.2489750    -0.1877140    -0.0130640
  C        1.4007306     0.6469331    -0.5336203
  C       -1.6230330     1.2650800     0.7040440
  C       -2.1008890    -0.8571740    -0.5744690
  C        2.7660710     0.0938090     0.0047360
  H       -1.0562100     0.8719860    -1.3362890
  H        1.2791640     1.6640640    -0.2248860
  H        1.4031030     0.6104820    -1.6083150
  H       -0.9521060     2.1204610     0.8293460
  H       -1.6846230     0.7313890     1.6588270
  H       -2.6168740     1.6507050     0.4584890
  H       -1.7562200    -1.5424760    -1.3562160
  H       -2.1750630    -1.4236530     0.3564710
  H       -3.0946750    -0.4900390    -0.8506910
  H        2.7911150     0.1168120     1.0954440
  H        2.9171760    -0.9417660    -0.3044500
  H        3.5913670     0.6986870    -0.3779970
units angstrom
no_reorient  #important for SAPT in psi4, default
symmetry c1  #important for SAPT in psi4, default
}

set PROPERTIES_ORIGIN ["COM"]
properties('MP2/aug-cc-pvtz', properties = ['dipole'])
--------------------------------------------------------------------------

    Molecular point group: c1
  Charge       = 0
  Multiplicity = 1
  Basis Set: AUG-CC-PVTZ
    Blend: AUG-CC-PVTZ
  Basis Set: (AUG-CC-PVTZ AUX)
    Blend: AUG-CC-PVTZ-JKFIT

    Orbital Energies [Eh]
    ---------------------

    Doubly Occupied:

       1A    -20.543365     2A    -11.326183     3A    -11.239252
       4A    -11.235946     5A    -11.229037     6A    -11.216738
       7A    -11.216491     8A     -1.373364     9A     -1.090076
      10A     -1.039974    11A     -0.933289    12A     -0.907150
      13A     -0.825951    14A     -0.727659    15A     -0.673221
      16A     -0.636367    17A     -0.621058    18A     -0.605662
      19A     -0.566224    20A     -0.548112    21A     -0.541980
      22A     -0.520229    23A     -0.514276    24A     -0.503381
      25A     -0.494867    26A     -0.486996    27A     -0.465026
      28A     -0.400295

  @DF-RHF Final Energy:  -309.17125682693609

   => Energetics <=

    Nuclear Repulsion Energy =            314.5401171837352194
    One-Electron Energy =               -1042.4584093611424578
    Two-Electron Energy =                 418.7470353504711511
    Total Energy =                       -309.1712568269360872
  Basis Set: (AUG-CC-PVTZ AUX)
    Blend: AUG-CC-PVTZ-RI
    Molecular point group: c1

    Geometry (in Angstrom), charge = 0, multiplicity = 1:

       Center              X                  Y                   Z               Mass
    ------------   -----------------  -----------------  -----------------  -----------------
         O            0.394901892338    -1.192295193015     0.698796255844    15.994914619570
         C           -1.112407407662     0.339702206985    -0.415494944156    12.000000000000
         C            0.250287892338    -0.196528193015    -0.007092744156    12.000000000000
         C            1.402043492338     0.638118906985    -0.527649044156    12.000000000000
         C           -1.621720107662     1.256265806985     0.710015255844    12.000000000000
         C           -2.099576107662    -0.865988193015    -0.568497744156    12.000000000000
         C            2.767383892338     0.084994806985     0.010707255844    12.000000000000
         H           -1.054897107662     0.863171806985    -1.330317744156     1.007825032230
         H            1.280476892338     1.655249806985    -0.218914744156     1.007825032230
         H            1.404415892338     0.601667806985    -1.602343744156     1.007825032230
         H           -0.950793107662     2.111646806985     0.835317255844     1.007825032230
         H           -1.683310107662     0.722574806985     1.664798255844     1.007825032230
         H           -2.615561107662     1.641890806985     0.464460255844     1.007825032230
         H           -1.754907107662    -1.551290193015    -1.350244744156     1.007825032230
         H           -2.173750107662    -1.432467193015     0.362442255844     1.007825032230
         H           -3.093362107662    -0.498853193015    -0.844719744156     1.007825032230
         H            2.792427892338     0.107997806985     1.101415255844     1.007825032230
         H            2.918488892338    -0.950580193015    -0.298478744156     1.007825032230
         H            3.592679892338     0.689872806985    -0.372025744156     1.007825032230

  Basis Set: AUG-CC-PVTZ
    Blend: AUG-CC-PVTZ
  Basis Set: (AUG-CC-PVTZ AUX)
    Blend: AUG-CC-PVTZ-JKFIT
	 Reference Energy          =    -309.1712568269360872 [Eh]
	 Singles Energy            =      -0.0000000000000000 [Eh]
	 Same-Spin Energy          =      -0.3167926749639544 [Eh]
	 Opposite-Spin Energy      =      -1.1035804161889198 [Eh]
	 Correlation Energy        =      -1.4203730911528742 [Eh]
	 Total Energy              =    -310.5916299180889837 [Eh]

	 ================> DF-SCS-MP2 Energies <==================
	-----------------------------------------------------------
	 SCS Same-Spin Scale       =       0.3333333333333333 [-]
	 SCS Opposite-Spin Scale   =       1.2000000000000000 [-]
	 SCS Same-Spin Energy      =      -0.1055975583213181 [Eh]
	 SCS Opposite-Spin Energy  =      -1.3242964994267037 [Eh]
	 SCS Correlation Energy    =      -1.4298940577480219 [Eh]
	 SCS Total Energy          =    -310.6011508846841025 [Eh]
	-----------------------------------------------------------

  Dipole Moment: [D]
     X:    -0.4002      Y:     2.2327      Z:    -1.4576     Total:     2.6963

*** Psi4 exiting successfully. Buy a developer a beer!
