                               Psi4 1.3.2 release

  ==> Input File <==

--------------------------------------------------------------------------
#psi4
#
memory 32 gb

molecule  {
0 1
  O        0.3935890    -1.1834810     0.6928250
  C       -1.1363630     0.3083220    -0.3952430
  C        0.2279590    -0.2103066     0.0301082
  C        1.4343240     0.6136100    -0.5100380
  C       -1.6230330     1.2650800     0.7040440
  C       -2.1008890    -0.8571740    -0.5744690
  C        2.7660710     0.0938090     0.0047360
  H       -1.0940554     0.8782932    -1.3349515
  H        1.2791640     1.6640640    -0.2248860
  H        1.4031030     0.6104820    -1.6083150
  H       -0.9521060     2.1204610     0.8293460
  H       -1.6846230     0.7313890     1.6588270
  H       -2.6168740     1.6507050     0.4584890
  H       -1.7562200    -1.5424760    -1.3562160
  H       -2.1750630    -1.4236530     0.3564710
  H       -3.0946750    -0.4900390    -0.8506910
  H        2.7911150     0.1168120     1.0954440
  H        2.9171760    -0.9417660    -0.3044500
  H        3.5913670     0.6986870    -0.3779970
units angstrom
no_reorient  #important for SAPT in psi4, default
symmetry c1  #important for SAPT in psi4, default
}

set PROPERTIES_ORIGIN ["COM"]
properties('MP2/aug-cc-pvtz', properties = ['dipole'])
--------------------------------------------------------------------------

    Molecular point group: c1
  Charge       = 0
  Multiplicity = 1
  Basis Set: AUG-CC-PVTZ
    Blend: AUG-CC-PVTZ
  Basis Set: (AUG-CC-PVTZ AUX)
    Blend: AUG-CC-PVTZ-JKFIT

    Orbital Energies [Eh]
    ---------------------

    Doubly Occupied:

       1A    -20.544677     2A    -11.322344     3A    -11.240523
       4A    -11.236092     5A    -11.228168     6A    -11.215685
       7A    -11.213188     8A     -1.401456     9A     -1.090397
      10A     -1.040371    11A     -0.937966    12A     -0.899947
      13A     -0.819607    14A     -0.723396    15A     -0.676829
      16A     -0.632024    17A     -0.625683    18A     -0.609900
      19A     -0.569735    20A     -0.550208    21A     -0.544408
      22A     -0.523442    23A     -0.516415    24A     -0.507888
      25A     -0.492803    26A     -0.480488    27A     -0.477632
      28A     -0.393177

  @DF-RHF Final Energy:  -309.17685816727362

   => Energetics <=

    Nuclear Repulsion Energy =            315.3291027567065612
    One-Electron Energy =               -1043.9830253047393853
    Two-Electron Energy =                 419.4770643807592023
    Total Energy =                       -309.1768581672736218
  Basis Set: (AUG-CC-PVTZ AUX)
    Blend: AUG-CC-PVTZ-RI
    Molecular point group: c1

    Geometry (in Angstrom), charge = 0, multiplicity = 1:

       Center              X                  Y                   Z               Mass
    ------------   -----------------  -----------------  -----------------  -----------------
         O            0.396489733512    -1.180835724283     0.687635364730    15.994914619570
         C           -1.133462266488     0.310967275717    -0.400432635270    12.000000000000
         C            0.230859733512    -0.207661324283     0.024918564730    12.000000000000
         C            1.437224733512     0.616255275717    -0.515227635270    12.000000000000
         C           -1.620132266488     1.267725275717     0.698854364730    12.000000000000
         C           -2.097988266488    -0.854528724283    -0.579658635270    12.000000000000
         C            2.768971733512     0.096454275717    -0.000453635270    12.000000000000
         H           -1.091154666488     0.880938475717    -1.340141135270     1.007825032230
         H            1.282064733512     1.666709275717    -0.230075635270     1.007825032230
         H            1.406003733512     0.613127275717    -1.613504635270     1.007825032230
         H           -0.949205266488     2.123106275717     0.824156364730     1.007825032230
         H           -1.681722266488     0.734034275717     1.653637364730     1.007825032230
         H           -2.613973266488     1.653350275717     0.453299364730     1.007825032230
         H           -1.753319266488    -1.539830724283    -1.361405635270     1.007825032230
         H           -2.172162266488    -1.421007724283     0.351281364730     1.007825032230
         H           -3.091774266488    -0.487393724283    -0.855880635270     1.007825032230
         H            2.794015733512     0.119457275717     1.090254364730     1.007825032230
         H            2.920076733512    -0.939120724283    -0.309639635270     1.007825032230
         H            3.594267733512     0.701332275717    -0.383186635270     1.007825032230

  Basis Set: AUG-CC-PVTZ
    Blend: AUG-CC-PVTZ
  Basis Set: (AUG-CC-PVTZ AUX)
    Blend: AUG-CC-PVTZ-JKFIT
	 Reference Energy          =    -309.1768581672736218 [Eh]
	 Singles Energy            =      -0.0000000000000000 [Eh]
	 Same-Spin Energy          =      -0.3160336913920755 [Eh]
	 Opposite-Spin Energy      =      -1.1013724549496773 [Eh]
	 Correlation Energy        =      -1.4174061463417529 [Eh]
	 Total Energy              =    -310.5942643136153833 [Eh]

	 ================> DF-SCS-MP2 Energies <==================
	-----------------------------------------------------------
	 SCS Same-Spin Scale       =       0.3333333333333333 [-]
	 SCS Opposite-Spin Scale   =       1.2000000000000000 [-]
	 SCS Same-Spin Energy      =      -0.1053445637973585 [Eh]
	 SCS Opposite-Spin Energy  =      -1.3216469459396127 [Eh]
	 SCS Correlation Energy    =      -1.4269915097369712 [Eh]
	 SCS Total Energy          =    -310.6038496770106008 [Eh]
	-----------------------------------------------------------

  Dipole Moment: [D]
     X:    -0.4894      Y:     2.0761      Z:    -1.3534     Total:     2.5261

*** Psi4 exiting successfully. Buy a developer a beer!
