                               Psi4 1.3.2 release

  ==> Input File <==

--------------------------------------------------------------------------
#psi4
#
memory 32 gb

molecule  {
0 1
  O        0.3935890    -1.1834810     0.6928250
  C       -1.1363630     0.3083220    -0.3952430
  C        0.0667281    -0.1224584    -0.0633412
  C        1.4343240     0.6136100    -0.5100380
  C       -1.6230330     1.2650800     0.7040440
  C       -2.1008890    -0.8571740    -0.5744690
  C        2.7660710     0.0938090     0.0047360
  H       -1.0562100     0.8719860    -1.3362890
  H        1.2791640     1.6640640    -0.2248860
  H        1.4031030     0.6104820    -1.6083150
  H       -0.9521060     2.1204610     0.8293460
  H       -1.6846230     0.7313890     1.6588270
  H       -2.6168740     1.6507050     0.4584890
  H       -1.7562200    -1.5424760    -1.3562160
  H       -2.1750630    -1.4236530     0.3564710
  H       -3.0946750    -0.4900390    -0.8506910
  H        2.7911150     0.1168120     1.0954440
  H        2.9171760    -0.9417660    -0.3044500
  H        3.5913670     0.6986870    -0.3779970
units angstrom
no_reorient  #important for SAPT in psi4, default
symmetry c1  #important for SAPT in psi4, default
}

set PROPERTIES_ORIGIN ["COM"]
properties('MP2/aug-cc-pvtz', properties = ['dipole'])
--------------------------------------------------------------------------

    Molecular point group: c1
  Charge       = 0
  Multiplicity = 1
  Basis Set: AUG-CC-PVTZ
    Blend: AUG-CC-PVTZ
  Basis Set: (AUG-CC-PVTZ AUX)
    Blend: AUG-CC-PVTZ-JKFIT

    Orbital Energies [Eh]
    ---------------------

    Doubly Occupied:

       1A    -20.527068     2A    -11.332978     3A    -11.244872
       4A    -11.243534     5A    -11.242514     6A    -11.226089
       7A    -11.212198     8A     -1.304560     9A     -1.132086
      10A     -1.031478    11A     -0.951209    12A     -0.926523
      13A     -0.841320    14A     -0.723504    15A     -0.663258
      16A     -0.630971    17A     -0.624864    18A     -0.591334
      19A     -0.569427    20A     -0.555732    21A     -0.552555
      22A     -0.520080    23A     -0.513717    24A     -0.504958
      25A     -0.490555    26A     -0.478193    27A     -0.431761
      28A     -0.399509

  @DF-RHF Final Energy:  -309.11057964368996

   => Energetics <=

    Nuclear Repulsion Energy =            315.1608209654617099
    One-Electron Energy =               -1043.6091108581344997
    Two-Electron Energy =                 419.3377102489828872
    Total Energy =                       -309.1105796436899595
  Basis Set: (AUG-CC-PVTZ AUX)
    Blend: AUG-CC-PVTZ-RI
    Molecular point group: c1

    Geometry (in Angstrom), charge = 0, multiplicity = 1:

       Center              X                  Y                   Z               Mass
    ------------   -----------------  -----------------  -----------------  -----------------
         O            0.415439196131    -1.191304644770     0.698852809615    15.994914619570
         C           -1.114512803869     0.300498355230    -0.389215190385    12.000000000000
         C            0.088578296131    -0.130282044770    -0.057313390385    12.000000000000
         C            1.456174196131     0.605786355230    -0.504010190385    12.000000000000
         C           -1.601182803869     1.257256355230     0.710071809615    12.000000000000
         C           -2.079038803869    -0.864997644770    -0.568441190385    12.000000000000
         C            2.787921196131     0.085985355230     0.010763809615    12.000000000000
         H           -1.034359803869     0.864162355230    -1.330261190385     1.007825032230
         H            1.301014196131     1.656240355230    -0.218858190385     1.007825032230
         H            1.424953196131     0.602658355230    -1.602287190385     1.007825032230
         H           -0.930255803869     2.112637355230     0.835373809615     1.007825032230
         H           -1.662772803869     0.723565355230     1.664854809615     1.007825032230
         H           -2.595023803869     1.642881355230     0.464516809615     1.007825032230
         H           -1.734369803869    -1.550299644770    -1.350188190385     1.007825032230
         H           -2.153212803869    -1.431476644770     0.362498809615     1.007825032230
         H           -3.072824803869    -0.497862644770    -0.844663190385     1.007825032230
         H            2.812965196131     0.108988355230     1.101471809615     1.007825032230
         H            2.939026196131    -0.949589644770    -0.298422190385     1.007825032230
         H            3.613217196131     0.690863355230    -0.371969190385     1.007825032230

  Basis Set: AUG-CC-PVTZ
    Blend: AUG-CC-PVTZ
  Basis Set: (AUG-CC-PVTZ AUX)
    Blend: AUG-CC-PVTZ-JKFIT
	 Reference Energy          =    -309.1105796436899595 [Eh]
	 Singles Energy            =      -0.0000000000000000 [Eh]
	 Same-Spin Energy          =      -0.3226045396237620 [Eh]
	 Opposite-Spin Energy      =      -1.1137950358099964 [Eh]
	 Correlation Energy        =      -1.4363995754337584 [Eh]
	 Total Energy              =    -310.5469792191237275 [Eh]

	 ================> DF-SCS-MP2 Energies <==================
	-----------------------------------------------------------
	 SCS Same-Spin Scale       =       0.3333333333333333 [-]
	 SCS Opposite-Spin Scale   =       1.2000000000000000 [-]
	 SCS Same-Spin Energy      =      -0.1075348465412540 [Eh]
	 SCS Opposite-Spin Energy  =      -1.3365540429719955 [Eh]
	 SCS Correlation Energy    =      -1.4440888895132495 [Eh]
	 SCS Total Energy          =    -310.5546685332031984 [Eh]
	-----------------------------------------------------------

  Dipole Moment: [D]
     X:    -1.2699      Y:     2.4918      Z:    -1.5241     Total:     3.1851

*** Psi4 exiting successfully. Buy a developer a beer!
