                               Psi4 1.3.2 release

  ==> Input File <==

--------------------------------------------------------------------------
#psi4
#
memory 32 gb

molecule  {
0 1
  O        0.3935890    -1.1834810     0.6928250
  C       -1.1363630     0.3083220    -0.3952430
  C        0.2773268    -0.1527008    -0.0786787
  C        1.4343240     0.6136100    -0.5100380
  C       -1.6230330     1.2650800     0.7040440
  C       -2.1008890    -0.8571740    -0.5744690
  C        2.7660710     0.0938090     0.0047360
  H       -0.9996394     0.8612402    -1.3361454
  H        1.2791640     1.6640640    -0.2248860
  H        1.4031030     0.6104820    -1.6083150
  H       -0.9521060     2.1204610     0.8293460
  H       -1.6846230     0.7313890     1.6588270
  H       -2.6168740     1.6507050     0.4584890
  H       -1.7562200    -1.5424760    -1.3562160
  H       -2.1750630    -1.4236530     0.3564710
  H       -3.0946750    -0.4900390    -0.8506910
  H        2.7911150     0.1168120     1.0954440
  H        2.9171760    -0.9417660    -0.3044500
  H        3.5913670     0.6986870    -0.3779970
units angstrom
no_reorient  #important for SAPT in psi4, default
symmetry c1  #important for SAPT in psi4, default
}

set PROPERTIES_ORIGIN ["COM"]
properties('MP2/aug-cc-pvtz', properties = ['dipole'])
--------------------------------------------------------------------------

    Molecular point group: c1
  Charge       = 0
  Multiplicity = 1
  Basis Set: AUG-CC-PVTZ
    Blend: AUG-CC-PVTZ
  Basis Set: (AUG-CC-PVTZ AUX)
    Blend: AUG-CC-PVTZ-JKFIT

    Orbital Energies [Eh]
    ---------------------

    Doubly Occupied:

       1A    -20.534504     2A    -11.329139     3A    -11.245090
       4A    -11.242754     5A    -11.229838     6A    -11.218508
       7A    -11.216293     8A     -1.332768     9A     -1.094160
      10A     -1.057161    11A     -0.937721    12A     -0.918526
      13A     -0.828120    14A     -0.718328    15A     -0.667501
      16A     -0.636780    17A     -0.623545    18A     -0.595923
      19A     -0.566503    20A     -0.557334    21A     -0.543581
      22A     -0.518128    23A     -0.511174    24A     -0.500783
      25A     -0.491193    26A     -0.483218    27A     -0.450791
      28A     -0.409226

  @DF-RHF Final Energy:  -309.16077237750784

   => Energetics <=

    Nuclear Repulsion Energy =            314.6612747863226218
    One-Electron Energy =               -1042.7269130802480959
    Two-Electron Energy =                 418.9048659164176911
    Total Energy =                       -309.1607723775078398
  Basis Set: (AUG-CC-PVTZ AUX)
    Blend: AUG-CC-PVTZ-RI
    Molecular point group: c1

    Geometry (in Angstrom), charge = 0, multiplicity = 1:

       Center              X                  Y                   Z               Mass
    ------------   -----------------  -----------------  -----------------  -----------------
         O            0.389620150650    -1.187570574323     0.700690230473    15.994914619570
         C           -1.140331849350     0.304232425677    -0.387377769527    12.000000000000
         C            0.273357950650    -0.156790374323    -0.070813469527    12.000000000000
         C            1.430355150650     0.609520425677    -0.502172769527    12.000000000000
         C           -1.627001849350     1.260990425677     0.711909230473    12.000000000000
         C           -2.104857849350    -0.861263574323    -0.566603769527    12.000000000000
         C            2.762102150650     0.089719425677     0.012601230473    12.000000000000
         H           -1.003608249350     0.857150625677    -1.328280169527     1.007825032230
         H            1.275195150650     1.659974425677    -0.217020769527     1.007825032230
         H            1.399134150650     0.606392425677    -1.600449769527     1.007825032230
         H           -0.956074849350     2.116371425677     0.837211230473     1.007825032230
         H           -1.688591849350     0.727299425677     1.666692230473     1.007825032230
         H           -2.620842849350     1.646615425677     0.466354230473     1.007825032230
         H           -1.760188849350    -1.546565574323    -1.348350769527     1.007825032230
         H           -2.179031849350    -1.427742574323     0.364336230473     1.007825032230
         H           -3.098643849350    -0.494128574323    -0.842825769527     1.007825032230
         H            2.787146150650     0.112722425677     1.103309230473     1.007825032230
         H            2.913207150650    -0.945855574323    -0.296584769527     1.007825032230
         H            3.587398150650     0.694597425677    -0.370131769527     1.007825032230

  Basis Set: AUG-CC-PVTZ
    Blend: AUG-CC-PVTZ
  Basis Set: (AUG-CC-PVTZ AUX)
    Blend: AUG-CC-PVTZ-JKFIT
	 Reference Energy          =    -309.1607723775078398 [Eh]
	 Singles Energy            =      -0.0000000000000000 [Eh]
	 Same-Spin Energy          =      -0.3192335981594989 [Eh]
	 Opposite-Spin Energy      =      -1.1078471749598693 [Eh]
	 Correlation Energy        =      -1.4270807731193682 [Eh]
	 Total Energy              =    -310.5878531506272111 [Eh]

	 ================> DF-SCS-MP2 Energies <==================
	-----------------------------------------------------------
	 SCS Same-Spin Scale       =       0.3333333333333333 [-]
	 SCS Opposite-Spin Scale   =       1.2000000000000000 [-]
	 SCS Same-Spin Energy      =      -0.1064111993864996 [Eh]
	 SCS Opposite-Spin Energy  =      -1.3294166099518432 [Eh]
	 SCS Correlation Energy    =      -1.4358278093383428 [Eh]
	 SCS Total Energy          =    -310.5966001868461603 [Eh]
	-----------------------------------------------------------

  Dipole Moment: [D]
     X:    -0.2166      Y:     2.4075      Z:    -1.5731     Total:     2.8840

*** Psi4 exiting successfully. Buy a developer a beer!
