                               Psi4 1.3.2 release

  ==> Input File <==

--------------------------------------------------------------------------
#psi4
#
memory 32 gb

molecule  {
0 1
  O        0.4360556    -1.1776454     0.6910532
  C       -1.1363630     0.3083220    -0.3952430
  C        0.2489750    -0.1877140    -0.0130640
  C        1.4664246     0.5800556    -0.4847650
  C       -1.6230330     1.2650800     0.7040440
  C       -2.1008890    -0.8571740    -0.5744690
  C        2.7660710     0.0938090     0.0047360
  H       -1.0562100     0.8719860    -1.3362890
  H        1.2791640     1.6640640    -0.2248860
  H        1.4031030     0.6104820    -1.6083150
  H       -0.9521060     2.1204610     0.8293460
  H       -1.6846230     0.7313890     1.6588270
  H       -2.6168740     1.6507050     0.4584890
  H       -1.7562200    -1.5424760    -1.3562160
  H       -2.1750630    -1.4236530     0.3564710
  H       -3.0946750    -0.4900390    -0.8506910
  H        2.7911150     0.1168120     1.0954440
  H        2.9171760    -0.9417660    -0.3044500
  H        3.5913670     0.6986870    -0.3779970
units angstrom
no_reorient  #important for SAPT in psi4, default
symmetry c1  #important for SAPT in psi4, default
}

set PROPERTIES_ORIGIN ["COM"]
properties('MP2/aug-cc-pvtz', properties = ['dipole'])
--------------------------------------------------------------------------

    Molecular point group: c1
  Charge       = 0
  Multiplicity = 1
  Basis Set: AUG-CC-PVTZ
    Blend: AUG-CC-PVTZ
  Basis Set: (AUG-CC-PVTZ AUX)
    Blend: AUG-CC-PVTZ-JKFIT

    Orbital Energies [Eh]
    ---------------------

    Doubly Occupied:

       1A    -20.538784     2A    -11.324280     3A    -11.245369
       4A    -11.240169     5A    -11.229815     6A    -11.217768
       7A    -11.212071     8A     -1.372717     9A     -1.092280
      10A     -1.052668    11A     -0.939225    12A     -0.907741
      13A     -0.821424    14A     -0.718941    15A     -0.673008
      16A     -0.628342    17A     -0.624839    18A     -0.606402
      19A     -0.570025    20A     -0.559371    21A     -0.546142
      22A     -0.520001    23A     -0.511342    24A     -0.507181
      25A     -0.489228    26A     -0.481144    27A     -0.465765
      28A     -0.401778

  @DF-RHF Final Energy:  -309.17243705449130

   => Energetics <=

    Nuclear Repulsion Energy =            315.2694456786002206
    One-Electron Energy =               -1043.8881216334575583
    Two-Electron Energy =                 419.4462389003659837
    Total Energy =                       -309.1724370544912972
  Basis Set: (AUG-CC-PVTZ AUX)
    Blend: AUG-CC-PVTZ-RI
    Molecular point group: c1

    Geometry (in Angstrom), charge = 0, multiplicity = 1:

       Center              X                  Y                   Z               Mass
    ------------   -----------------  -----------------  -----------------  -----------------
         O            0.425420451580    -1.174554937373     0.688306176881    15.994914619570
         C           -1.146998148420     0.311412462627    -0.397990023119    12.000000000000
         C            0.238339851580    -0.184623537373    -0.015811023119    12.000000000000
         C            1.455789451580     0.583146062627    -0.487512023119    12.000000000000
         C           -1.633668148420     1.268170462627     0.701296976881    12.000000000000
         C           -2.111524148420    -0.854083537373    -0.577216023119    12.000000000000
         C            2.755435851580     0.096899462627     0.001988976881    12.000000000000
         H           -1.066845148420     0.875076462627    -1.339036023119     1.007825032230
         H            1.268528851580     1.667154462627    -0.227633023119     1.007825032230
         H            1.392467851580     0.613572462627    -1.611062023119     1.007825032230
         H           -0.962741148420     2.123551462627     0.826598976881     1.007825032230
         H           -1.695258148420     0.734479462627     1.656079976881     1.007825032230
         H           -2.627509148420     1.653795462627     0.455741976881     1.007825032230
         H           -1.766855148420    -1.539385537373    -1.358963023119     1.007825032230
         H           -2.185698148420    -1.420562537373     0.353723976881     1.007825032230
         H           -3.105310148420    -0.486948537373    -0.853438023119     1.007825032230
         H            2.780479851580     0.119902462627     1.092696976881     1.007825032230
         H            2.906540851580    -0.938675537373    -0.307197023119     1.007825032230
         H            3.580731851580     0.701777462627    -0.380744023119     1.007825032230

  Basis Set: AUG-CC-PVTZ
    Blend: AUG-CC-PVTZ
  Basis Set: (AUG-CC-PVTZ AUX)
    Blend: AUG-CC-PVTZ-JKFIT
	 Reference Energy          =    -309.1724370544912972 [Eh]
	 Singles Energy            =      -0.0000000000000000 [Eh]
	 Same-Spin Energy          =      -0.3174755232622140 [Eh]
	 Opposite-Spin Energy      =      -1.1039083558035427 [Eh]
	 Correlation Energy        =      -1.4213838790657567 [Eh]
	 Total Energy              =    -310.5938209335570264 [Eh]

	 ================> DF-SCS-MP2 Energies <==================
	-----------------------------------------------------------
	 SCS Same-Spin Scale       =       0.3333333333333333 [-]
	 SCS Opposite-Spin Scale   =       1.2000000000000000 [-]
	 SCS Same-Spin Energy      =      -0.1058251744207380 [Eh]
	 SCS Opposite-Spin Energy  =      -1.3246900269642512 [Eh]
	 SCS Correlation Energy    =      -1.4305152013849891 [Eh]
	 SCS Total Energy          =    -310.6029522558762892 [Eh]
	-----------------------------------------------------------

  Dipole Moment: [D]
     X:    -0.4802      Y:     2.2044      Z:    -1.4452     Total:     2.6793

*** Psi4 exiting successfully. Buy a developer a beer!
