                               Psi4 1.3.2 release

  ==> Input File <==

--------------------------------------------------------------------------
#psi4
#
memory 32 gb

molecule  {
0 1
  O        0.3509109    -1.1874657     0.6946436
  C       -1.1573495     0.2682682    -0.3674727
  C        0.2489750    -0.1877140    -0.0130640
  C        1.4343240     0.6136100    -0.5100380
  C       -1.6230330     1.2650800     0.7040440
  C       -2.1008890    -0.8571740    -0.5744690
  C        2.7660710     0.0938090     0.0047360
  H       -1.0562100     0.8719860    -1.3362890
  H        1.2791640     1.6640640    -0.2248860
  H        1.4031030     0.6104820    -1.6083150
  H       -0.9521060     2.1204610     0.8293460
  H       -1.6846230     0.7313890     1.6588270
  H       -2.6168740     1.6507050     0.4584890
  H       -1.7562200    -1.5424760    -1.3562160
  H       -2.1750630    -1.4236530     0.3564710
  H       -3.0946750    -0.4900390    -0.8506910
  H        2.7911150     0.1168120     1.0954440
  H        2.9171760    -0.9417660    -0.3044500
  H        3.5913670     0.6986870    -0.3779970
units angstrom
no_reorient  #important for SAPT in psi4, default
symmetry c1  #important for SAPT in psi4, default
}

set PROPERTIES_ORIGIN ["COM"]
properties('MP2/aug-cc-pvtz', properties = ['dipole'])
--------------------------------------------------------------------------

    Molecular point group: c1
  Charge       = 0
  Multiplicity = 1
  Basis Set: AUG-CC-PVTZ
    Blend: AUG-CC-PVTZ
  Basis Set: (AUG-CC-PVTZ AUX)
    Blend: AUG-CC-PVTZ-JKFIT

    Orbital Energies [Eh]
    ---------------------

    Doubly Occupied:

       1A    -20.539873     2A    -11.324570     3A    -11.242517
       4A    -11.242192     5A    -11.227709     6A    -11.217500
       7A    -11.213082     8A     -1.373530     9A     -1.091999
      10A     -1.050606    11A     -0.941013    12A     -0.907265
      13A     -0.821415    14A     -0.716554    15A     -0.671293
      16A     -0.633280    17A     -0.626454    18A     -0.607036
      19A     -0.570550    20A     -0.552507    21A     -0.543970
      22A     -0.521670    23A     -0.513491    24A     -0.507599
      25A     -0.497412    26A     -0.475692    27A     -0.463722
      28A     -0.401595

  @DF-RHF Final Energy:  -309.17226156741134

   => Energetics <=

    Nuclear Repulsion Energy =            315.3995813882755215
    One-Electron Energy =               -1044.1514921448995210
    Two-Electron Energy =                 419.5796491892127165
    Total Energy =                       -309.1722615674113399
  Basis Set: (AUG-CC-PVTZ AUX)
    Blend: AUG-CC-PVTZ-RI
    Molecular point group: c1

    Geometry (in Angstrom), charge = 0, multiplicity = 1:

       Center              X                  Y                   Z               Mass
    ------------   -----------------  -----------------  -----------------  -----------------
         O            0.360247287927    -1.182026646674     0.691023394983    15.994914619570
         C           -1.148013112073     0.273707253326    -0.371092905017    12.000000000000
         C            0.258311387927    -0.182274946674    -0.016684205017    12.000000000000
         C            1.443660387927     0.619049053326    -0.513658205017    12.000000000000
         C           -1.613696612073     1.270519053326     0.700423794983    12.000000000000
         C           -2.091552612073    -0.851734946674    -0.578089205017    12.000000000000
         C            2.775407387927     0.099248053326     0.001115794983    12.000000000000
         H           -1.046873612073     0.877425053326    -1.339909205017     1.007825032230
         H            1.288500387927     1.669503053326    -0.228506205017     1.007825032230
         H            1.412439387927     0.615921053326    -1.611935205017     1.007825032230
         H           -0.942769612073     2.125900053326     0.825725794983     1.007825032230
         H           -1.675286612073     0.736828053326     1.655206794983     1.007825032230
         H           -2.607537612073     1.656144053326     0.454868794983     1.007825032230
         H           -1.746883612073    -1.537036946674    -1.359836205017     1.007825032230
         H           -2.165726612073    -1.418213946674     0.352850794983     1.007825032230
         H           -3.085338612073    -0.484599946674    -0.854311205017     1.007825032230
         H            2.800451387927     0.122251053326     1.091823794983     1.007825032230
         H            2.926512387927    -0.936326946674    -0.308070205017     1.007825032230
         H            3.600703387927     0.704126053326    -0.381617205017     1.007825032230

  Basis Set: AUG-CC-PVTZ
    Blend: AUG-CC-PVTZ
  Basis Set: (AUG-CC-PVTZ AUX)
    Blend: AUG-CC-PVTZ-JKFIT
	 Reference Energy          =    -309.1722615674113399 [Eh]
	 Singles Energy            =      -0.0000000000000000 [Eh]
	 Same-Spin Energy          =      -0.3173597360594548 [Eh]
	 Opposite-Spin Energy      =      -1.1039719624783388 [Eh]
	 Correlation Energy        =      -1.4213316985377937 [Eh]
	 Total Energy              =    -310.5935932659491527 [Eh]

	 ================> DF-SCS-MP2 Energies <==================
	-----------------------------------------------------------
	 SCS Same-Spin Scale       =       0.3333333333333333 [-]
	 SCS Opposite-Spin Scale   =       1.2000000000000000 [-]
	 SCS Same-Spin Energy      =      -0.1057865786864849 [Eh]
	 SCS Opposite-Spin Energy  =      -1.3247663549740065 [Eh]
	 SCS Correlation Energy    =      -1.4305529336604914 [Eh]
	 SCS Total Energy          =    -310.6028145010718049 [Eh]
	-----------------------------------------------------------

  Dipole Moment: [D]
     X:    -0.2210      Y:     2.2097      Z:    -1.4438     Total:     2.6488

*** Psi4 exiting successfully. Buy a developer a beer!
