                               Psi4 1.3.2 release

  ==> Input File <==

--------------------------------------------------------------------------
#psi4
#
memory 32 gb

molecule  {
0 1
  O        0.4042330    -1.1822951     0.6922359
  C       -1.1308516     0.3182429    -0.4021141
  C        0.2489750    -0.1877140    -0.0130640
  C        1.4343240     0.6136100    -0.5100380
  C       -1.6230330     1.2650800     0.7040440
  C       -2.1008890    -0.8571740    -0.5744690
  C        2.7660710     0.0938090     0.0047360
  H       -1.0562100     0.8719860    -1.3362890
  H        1.2791640     1.6640640    -0.2248860
  H        1.4031030     0.6104820    -1.6083150
  H       -0.9521060     2.1204610     0.8293460
  H       -1.6846230     0.7313890     1.6588270
  H       -2.6168740     1.6507050     0.4584890
  H       -1.7562200    -1.5424760    -1.3562160
  H       -2.1750630    -1.4236530     0.3564710
  H       -3.0946750    -0.4900390    -0.8506910
  H        2.7911150     0.1168120     1.0954440
  H        2.9171760    -0.9417660    -0.3044500
  H        3.5913670     0.6986870    -0.3779970
units angstrom
no_reorient  #important for SAPT in psi4, default
symmetry c1  #important for SAPT in psi4, default
}

set PROPERTIES_ORIGIN ["COM"]
properties('MP2/aug-cc-pvtz', properties = ['dipole'])
--------------------------------------------------------------------------

    Molecular point group: c1
  Charge       = 0
  Multiplicity = 1
  Basis Set: AUG-CC-PVTZ
    Blend: AUG-CC-PVTZ
  Basis Set: (AUG-CC-PVTZ AUX)
    Blend: AUG-CC-PVTZ-JKFIT

    Orbital Energies [Eh]
    ---------------------

    Doubly Occupied:

       1A    -20.540849     2A    -11.324889     3A    -11.242075
       4A    -11.238448     5A    -11.229034     6A    -11.216523
       7A    -11.214839     8A     -1.372936     9A     -1.090990
      10A     -1.046494    11A     -0.936951    12A     -0.907463
      13A     -0.823156    14A     -0.721903    15A     -0.672772
      16A     -0.631818    17A     -0.622903    18A     -0.606377
      19A     -0.567834    20A     -0.552311    21A     -0.544555
      22A     -0.519633    23A     -0.512133    24A     -0.505638
      25A     -0.491312    26A     -0.484463    27A     -0.469006
      28A     -0.401855

  @DF-RHF Final Energy:  -309.17654771935224

   => Energetics <=

    Nuclear Repulsion Energy =            314.9597782360814335
    One-Electron Energy =               -1043.2943346990609825
    Two-Electron Energy =                 419.1580087436273061
    Total Energy =                       -309.1765477193522429
  Basis Set: (AUG-CC-PVTZ AUX)
    Blend: AUG-CC-PVTZ-RI
    Molecular point group: c1

    Geometry (in Angstrom), charge = 0, multiplicity = 1:

       Center              X                  Y                   Z               Mass
    ------------   -----------------  -----------------  -----------------  -----------------
         O            0.401871205300    -1.183673988374     0.693153742075    15.994914619570
         C           -1.133213394700     0.316864011626    -0.401196257925    12.000000000000
         C            0.246613205300    -0.189092888374    -0.012146157925    12.000000000000
         C            1.431962205300     0.612231111626    -0.509120157925    12.000000000000
         C           -1.625394794700     1.263701111626     0.704961842075    12.000000000000
         C           -2.103250794700    -0.858552888374    -0.573551157925    12.000000000000
         C            2.763709205300     0.092430111626     0.005653842075    12.000000000000
         H           -1.058571794700     0.870607111626    -1.335371157925     1.007825032230
         H            1.276802205300     1.662685111626    -0.223968157925     1.007825032230
         H            1.400741205300     0.609103111626    -1.607397157925     1.007825032230
         H           -0.954467794700     2.119082111626     0.830263842075     1.007825032230
         H           -1.686984794700     0.730010111626     1.659744842075     1.007825032230
         H           -2.619235794700     1.649326111626     0.459406842075     1.007825032230
         H           -1.758581794700    -1.543854888374    -1.355298157925     1.007825032230
         H           -2.177424794700    -1.425031888374     0.357388842075     1.007825032230
         H           -3.097036794700    -0.491417888374    -0.849773157925     1.007825032230
         H            2.788753205300     0.115433111626     1.096361842075     1.007825032230
         H            2.914814205300    -0.943144888374    -0.303532157925     1.007825032230
         H            3.589005205300     0.697308111626    -0.377079157925     1.007825032230

  Basis Set: AUG-CC-PVTZ
    Blend: AUG-CC-PVTZ
  Basis Set: (AUG-CC-PVTZ AUX)
    Blend: AUG-CC-PVTZ-JKFIT
	 Reference Energy          =    -309.1765477193522429 [Eh]
	 Singles Energy            =      -0.0000000000000000 [Eh]
	 Same-Spin Energy          =      -0.3170201329704212 [Eh]
	 Opposite-Spin Energy      =      -1.1034667684352324 [Eh]
	 Correlation Energy        =      -1.4204869014056536 [Eh]
	 Total Energy              =    -310.5970346207578814 [Eh]

	 ================> DF-SCS-MP2 Energies <==================
	-----------------------------------------------------------
	 SCS Same-Spin Scale       =       0.3333333333333333 [-]
	 SCS Opposite-Spin Scale   =       1.2000000000000000 [-]
	 SCS Same-Spin Energy      =      -0.1056733776568071 [Eh]
	 SCS Opposite-Spin Energy  =      -1.3241601221222787 [Eh]
	 SCS Correlation Energy    =      -1.4298334997790858 [Eh]
	 SCS Total Energy          =    -310.6063812191313218 [Eh]
	-----------------------------------------------------------

  Dipole Moment: [D]
     X:    -0.4051      Y:     2.2219      Z:    -1.4545     Total:     2.6864

*** Psi4 exiting successfully. Buy a developer a beer!
