                               Psi4 1.3.2 release

  ==> Input File <==

--------------------------------------------------------------------------
#psi4
#
memory 32 gb

molecule  {
0 1
  O        0.3935890    -1.1834810     0.6928250
  C       -1.1470530     0.2879951    -0.3819548
  C        0.2489750    -0.1877140    -0.0130640
  C        1.4505816     0.5965798    -0.4980180
  C       -1.6230330     1.2650800     0.7040440
  C       -2.1008890    -0.8571740    -0.5744690
  C        2.7660710     0.0938090     0.0047360
  H       -1.0562100     0.8719860    -1.3362890
  H        1.2791640     1.6640640    -0.2248860
  H        1.4031030     0.6104820    -1.6083150
  H       -0.9521060     2.1204610     0.8293460
  H       -1.6846230     0.7313890     1.6588270
  H       -2.6168740     1.6507050     0.4584890
  H       -1.7562200    -1.5424760    -1.3562160
  H       -2.1750630    -1.4236530     0.3564710
  H       -3.0946750    -0.4900390    -0.8506910
  H        2.7911150     0.1168120     1.0954440
  H        2.9171760    -0.9417660    -0.3044500
  H        3.5913670     0.6986870    -0.3779970
units angstrom
no_reorient  #important for SAPT in psi4, default
symmetry c1  #important for SAPT in psi4, default
}

set PROPERTIES_ORIGIN ["COM"]
properties('MP2/aug-cc-pvtz', properties = ['dipole'])
--------------------------------------------------------------------------

    Molecular point group: c1
  Charge       = 0
  Multiplicity = 1
  Basis Set: AUG-CC-PVTZ
    Blend: AUG-CC-PVTZ
  Basis Set: (AUG-CC-PVTZ AUX)
    Blend: AUG-CC-PVTZ-JKFIT

    Orbital Energies [Eh]
    ---------------------

    Doubly Occupied:

       1A    -20.539319     2A    -11.324301     3A    -11.243679
       4A    -11.241245     5A    -11.228738     6A    -11.215391
       7A    -11.214782     8A     -1.372928     9A     -1.092079
      10A     -1.051446    11A     -0.940080    12A     -0.907447
      13A     -0.821367    14A     -0.717606    15A     -0.672152
      16A     -0.630552    17A     -0.625620    18A     -0.606544
      19A     -0.570093    20A     -0.555680    21A     -0.545133
      22A     -0.520282    23A     -0.512491    24A     -0.507532
      25A     -0.493209    26A     -0.475942    27A     -0.468379
      28A     -0.402214

  @DF-RHF Final Energy:  -309.17452544189979

   => Energetics <=

    Nuclear Repulsion Energy =            315.3088537578653927
    One-Electron Energy =               -1043.9742933038824049
    Two-Electron Energy =                 419.4909141041172802
    Total Energy =                       -309.1745254418997888
  Basis Set: (AUG-CC-PVTZ AUX)
    Blend: AUG-CC-PVTZ-RI
    Molecular point group: c1

    Geometry (in Angstrom), charge = 0, multiplicity = 1:

       Center              X                  Y                   Z               Mass
    ------------   -----------------  -----------------  -----------------  -----------------
         O            0.392921455264    -1.179002047323     0.689790610208    15.994914619570
         C           -1.147720544736     0.292474052677    -0.384989189792    12.000000000000
         C            0.248307455264    -0.183235047323    -0.016098389792    12.000000000000
         C            1.449914055264     0.601058752677    -0.501052389792    12.000000000000
         C           -1.623700544736     1.269558952677     0.701009610208    12.000000000000
         C           -2.101556544736    -0.852695047323    -0.577503389792    12.000000000000
         C            2.765403455264     0.098287952677     0.001701610208    12.000000000000
         H           -1.056877544736     0.876464952677    -1.339323389792     1.007825032230
         H            1.278496455264     1.668542952677    -0.227920389792     1.007825032230
         H            1.402435455264     0.614960952677    -1.611349389792     1.007825032230
         H           -0.952773544736     2.124939952677     0.826311610208     1.007825032230
         H           -1.685290544736     0.735867952677     1.655792610208     1.007825032230
         H           -2.617541544736     1.655183952677     0.455454610208     1.007825032230
         H           -1.756887544736    -1.537997047323    -1.359250389792     1.007825032230
         H           -2.175730544736    -1.419174047323     0.353436610208     1.007825032230
         H           -3.095342544736    -0.485560047323    -0.853725389792     1.007825032230
         H            2.790447455264     0.121290952677     1.092409610208     1.007825032230
         H            2.916508455264    -0.937287047323    -0.307484389792     1.007825032230
         H            3.590699455264     0.703165952677    -0.381031389792     1.007825032230

  Basis Set: AUG-CC-PVTZ
    Blend: AUG-CC-PVTZ
  Basis Set: (AUG-CC-PVTZ AUX)
    Blend: AUG-CC-PVTZ-JKFIT
	 Reference Energy          =    -309.1745254418997888 [Eh]
	 Singles Energy            =      -0.0000000000000000 [Eh]
	 Same-Spin Energy          =      -0.3173472412353611 [Eh]
	 Opposite-Spin Energy      =      -1.1037935688136109 [Eh]
	 Correlation Energy        =      -1.4211408100489720 [Eh]
	 Total Energy              =    -310.5956662519487850 [Eh]

	 ================> DF-SCS-MP2 Energies <==================
	-----------------------------------------------------------
	 SCS Same-Spin Scale       =       0.3333333333333333 [-]
	 SCS Opposite-Spin Scale   =       1.2000000000000000 [-]
	 SCS Same-Spin Energy      =      -0.1057824137451203 [Eh]
	 SCS Opposite-Spin Energy  =      -1.3245522825763330 [Eh]
	 SCS Correlation Energy    =      -1.4303346963214534 [Eh]
	 SCS Total Energy          =    -310.6048601382212269 [Eh]
	-----------------------------------------------------------

  Dipole Moment: [D]
     X:    -0.3520      Y:     2.2115      Z:    -1.4483     Total:     2.6669

*** Psi4 exiting successfully. Buy a developer a beer!
