                               Psi4 1.3.2 release

  ==> Input File <==

--------------------------------------------------------------------------
#psi4
#
memory 32 gb

molecule  {
0 1
  O        0.4042242    -1.1821356     0.6924626
  C       -1.1363630     0.3083220    -0.3952430
  C        0.2489750    -0.1877140    -0.0130640
  C        1.4424861     0.6053113    -0.5037753
  C       -1.6230330     1.2650800     0.7040440
  C       -2.1008890    -0.8571740    -0.5744690
  C        2.7660710     0.0938090     0.0047360
  H       -1.0562100     0.8719860    -1.3362890
  H        1.2791640     1.6640640    -0.2248860
  H        1.4031030     0.6104820    -1.6083150
  H       -0.9521060     2.1204610     0.8293460
  H       -1.6846230     0.7313890     1.6588270
  H       -2.6168740     1.6507050     0.4584890
  H       -1.7562200    -1.5424760    -1.3562160
  H       -2.1750630    -1.4236530     0.3564710
  H       -3.0946750    -0.4900390    -0.8506910
  H        2.7911150     0.1168120     1.0954440
  H        2.9171760    -0.9417660    -0.3044500
  H        3.5913670     0.6986870    -0.3779970
units angstrom
no_reorient  #important for SAPT in psi4, default
symmetry c1  #important for SAPT in psi4, default
}

set PROPERTIES_ORIGIN ["COM"]
properties('MP2/aug-cc-pvtz', properties = ['dipole'])
--------------------------------------------------------------------------

    Molecular point group: c1
  Charge       = 0
  Multiplicity = 1
  Basis Set: AUG-CC-PVTZ
    Blend: AUG-CC-PVTZ
  Basis Set: (AUG-CC-PVTZ AUX)
    Blend: AUG-CC-PVTZ-JKFIT

    Orbital Energies [Eh]
    ---------------------

    Doubly Occupied:

       1A    -20.540182     2A    -11.324613     3A    -11.242844
       4A    -11.239415     5A    -11.228989     6A    -11.216307
       7A    -11.214547     8A     -1.372884     9A     -1.091400
      10A     -1.048523    11A     -0.938105    12A     -0.907495
      13A     -0.822409    14A     -0.720244    15A     -0.672604
      16A     -0.630985    17A     -0.623845    18A     -0.606456
      19A     -0.568585    20A     -0.553922    21A     -0.544934
      22A     -0.519708    23A     -0.511946    24A     -0.506551
      25A     -0.491426    26A     -0.481753    27A     -0.469125
      28A     -0.402063

  @DF-RHF Final Energy:  -309.17630638014504

   => Energetics <=

    Nuclear Repulsion Energy =            315.0928191901629134
    One-Electron Energy =               -1043.5545367894337687
    Two-Electron Energy =                 419.2854112191258196
    Total Energy =                       -309.1763063801450357
  Basis Set: (AUG-CC-PVTZ AUX)
    Blend: AUG-CC-PVTZ-RI
    Molecular point group: c1

    Geometry (in Angstrom), charge = 0, multiplicity = 1:

       Center              X                  Y                   Z               Mass
    ------------   -----------------  -----------------  -----------------  -----------------
         O            0.401546009859    -1.181355565710     0.691769556312    15.994914619570
         C           -1.139041190141     0.309102034290    -0.395936043688    12.000000000000
         C            0.246296809859    -0.186933965710    -0.013757043688    12.000000000000
         C            1.439807909859     0.606091334290    -0.504468343688    12.000000000000
         C           -1.625711190141     1.265860034290     0.703350956312    12.000000000000
         C           -2.103567190141    -0.856393965710    -0.575162043688    12.000000000000
         C            2.763392809859     0.094589034290     0.004042956312    12.000000000000
         H           -1.058888190141     0.872766034290    -1.336982043688     1.007825032230
         H            1.276485809859     1.664844034290    -0.225579043688     1.007825032230
         H            1.400424809859     0.611262034290    -1.609008043688     1.007825032230
         H           -0.954784190141     2.121241034290     0.828652956312     1.007825032230
         H           -1.687301190141     0.732169034290     1.658133956312     1.007825032230
         H           -2.619552190141     1.651485034290     0.457795956312     1.007825032230
         H           -1.758898190141    -1.541695965710    -1.356909043688     1.007825032230
         H           -2.177741190141    -1.422872965710     0.355777956312     1.007825032230
         H           -3.097353190141    -0.489258965710    -0.851384043688     1.007825032230
         H            2.788436809859     0.117592034290     1.094750956312     1.007825032230
         H            2.914497809859    -0.940985965710    -0.305143043688     1.007825032230
         H            3.588688809859     0.699467034290    -0.378690043688     1.007825032230

  Basis Set: AUG-CC-PVTZ
    Blend: AUG-CC-PVTZ
  Basis Set: (AUG-CC-PVTZ AUX)
    Blend: AUG-CC-PVTZ-JKFIT
	 Reference Energy          =    -309.1763063801450357 [Eh]
	 Singles Energy            =      -0.0000000000000000 [Eh]
	 Same-Spin Energy          =      -0.3171397931233600 [Eh]
	 Opposite-Spin Energy      =      -1.1035581915057437 [Eh]
	 Correlation Energy        =      -1.4206979846291037 [Eh]
	 Total Energy              =    -310.5970043647741363 [Eh]

	 ================> DF-SCS-MP2 Energies <==================
	-----------------------------------------------------------
	 SCS Same-Spin Scale       =       0.3333333333333333 [-]
	 SCS Opposite-Spin Scale   =       1.2000000000000000 [-]
	 SCS Same-Spin Energy      =      -0.1057132643744533 [Eh]
	 SCS Opposite-Spin Energy  =      -1.3242698298068925 [Eh]
	 SCS Correlation Energy    =      -1.4299830941813458 [Eh]
	 SCS Total Energy          =    -310.6062894743263882 [Eh]
	-----------------------------------------------------------

  Dipole Moment: [D]
     X:    -0.3967      Y:     2.2178      Z:    -1.4525     Total:     2.6806

*** Psi4 exiting successfully. Buy a developer a beer!
