                               Psi4 1.3.2 release

  ==> Input File <==

--------------------------------------------------------------------------
#psi4
#
memory 32 gb

molecule  {
0 1
  O        0.3935890    -1.1834810     0.6928250
  C       -1.1363630     0.3083220    -0.3952430
  C        0.2384884    -0.1655871    -0.0031015
  C        1.4343240     0.6136100    -0.5100380
  C       -1.6230330     1.2650800     0.7040440
  C       -2.1008890    -0.8571740    -0.5744690
  C        2.7660710     0.0938090     0.0047360
  H       -1.0562100     0.8719860    -1.3362890
  H        1.2625105     1.6592027    -0.2166852
  H        1.4031030     0.6104820    -1.6083150
  H       -0.9521060     2.1204610     0.8293460
  H       -1.6846230     0.7313890     1.6588270
  H       -2.6168740     1.6507050     0.4584890
  H       -1.7562200    -1.5424760    -1.3562160
  H       -2.1750630    -1.4236530     0.3564710
  H       -3.0946750    -0.4900390    -0.8506910
  H        2.7911150     0.1168120     1.0954440
  H        2.9171760    -0.9417660    -0.3044500
  H        3.5913670     0.6986870    -0.3779970
units angstrom
no_reorient  #important for SAPT in psi4, default
symmetry c1  #important for SAPT in psi4, default
}

set PROPERTIES_ORIGIN ["COM"]
properties('MP2/aug-cc-pvtz', properties = ['dipole'])
--------------------------------------------------------------------------

    Molecular point group: c1
  Charge       = 0
  Multiplicity = 1
  Basis Set: AUG-CC-PVTZ
    Blend: AUG-CC-PVTZ
  Basis Set: (AUG-CC-PVTZ AUX)
    Blend: AUG-CC-PVTZ-JKFIT

    Orbital Energies [Eh]
    ---------------------

    Doubly Occupied:

       1A    -20.538974     2A    -11.325669     3A    -11.242674
       4A    -11.239936     5A    -11.229608     6A    -11.216644
       7A    -11.215593     8A     -1.363684     9A     -1.093686
      10A     -1.047325    11A     -0.938714    12A     -0.909134
      13A     -0.825003    14A     -0.720033    15A     -0.671359
      16A     -0.632624    17A     -0.623482    18A     -0.603389
      19A     -0.568769    20A     -0.553012    21A     -0.545004
      22A     -0.518836    23A     -0.511312    24A     -0.505464
      25A     -0.493294    26A     -0.482040    27A     -0.465731
      28A     -0.404065

  @DF-RHF Final Energy:  -309.17439102800506

   => Energetics <=

    Nuclear Repulsion Energy =            315.0446832213016251
    One-Electron Energy =               -1043.4680262340305035
    Two-Electron Energy =                 419.2489519847238171
    Total Energy =                       -309.1743910280050613
  Basis Set: (AUG-CC-PVTZ AUX)
    Blend: AUG-CC-PVTZ-RI
    Molecular point group: c1

    Geometry (in Angstrom), charge = 0, multiplicity = 1:

       Center              X                  Y                   Z               Mass
    ------------   -----------------  -----------------  -----------------  -----------------
         O            0.395013938966    -1.186084843339     0.691547883770    15.994914619570
         C           -1.134938061034     0.305718156661    -0.396520116230    12.000000000000
         C            0.239913338966    -0.168190943339    -0.004378616230    12.000000000000
         C            1.435748938966     0.611006156661    -0.511315116230    12.000000000000
         C           -1.621608061034     1.262476156661     0.702766883770    12.000000000000
         C           -2.099464061034    -0.859777843339    -0.575746116230    12.000000000000
         C            2.767495938966     0.091205156661     0.003458883770    12.000000000000
         H           -1.054785061034     0.869382156661    -1.337566116230     1.007825032230
         H            1.263935438966     1.656598856661    -0.217962316230     1.007825032230
         H            1.404527938966     0.607878156661    -1.609592116230     1.007825032230
         H           -0.950681061034     2.117857156661     0.828068883770     1.007825032230
         H           -1.683198061034     0.728785156661     1.657549883770     1.007825032230
         H           -2.615449061034     1.648101156661     0.457211883770     1.007825032230
         H           -1.754795061034    -1.545079843339    -1.357493116230     1.007825032230
         H           -2.173638061034    -1.426256843339     0.355193883770     1.007825032230
         H           -3.093250061034    -0.492642843339    -0.851968116230     1.007825032230
         H            2.792539938966     0.114208156661     1.094166883770     1.007825032230
         H            2.918600938966    -0.944369843339    -0.305727116230     1.007825032230
         H            3.592791938966     0.696083156661    -0.379274116230     1.007825032230

  Basis Set: AUG-CC-PVTZ
    Blend: AUG-CC-PVTZ
  Basis Set: (AUG-CC-PVTZ AUX)
    Blend: AUG-CC-PVTZ-JKFIT
	 Reference Energy          =    -309.1743910280050613 [Eh]
	 Singles Energy            =      -0.0000000000000000 [Eh]
	 Same-Spin Energy          =      -0.3175358107983205 [Eh]
	 Opposite-Spin Energy      =      -1.1044047356434266 [Eh]
	 Correlation Energy        =      -1.4219405464417472 [Eh]
	 Total Energy              =    -310.5963315744468218 [Eh]

	 ================> DF-SCS-MP2 Energies <==================
	-----------------------------------------------------------
	 SCS Same-Spin Scale       =       0.3333333333333333 [-]
	 SCS Opposite-Spin Scale   =       1.2000000000000000 [-]
	 SCS Same-Spin Energy      =      -0.1058452702661068 [Eh]
	 SCS Opposite-Spin Energy  =      -1.3252856827721118 [Eh]
	 SCS Correlation Energy    =      -1.4311309530382186 [Eh]
	 SCS Total Energy          =    -310.6055219810432959 [Eh]
	-----------------------------------------------------------

  Dipole Moment: [D]
     X:    -0.4225      Y:     2.2597      Z:    -1.4723     Total:     2.7300

*** Psi4 exiting successfully. Buy a developer a beer!
