                               Psi4 1.3.2 release

  ==> Input File <==

--------------------------------------------------------------------------
#psi4
#
memory 32 gb

molecule  {
0 1
  O        0.3935890    -1.1834810     0.6928250
  C       -1.1252510     0.3284978    -0.4084148
  C        0.2489750    -0.1877140    -0.0130640
  C        1.4177053     0.6303962    -0.5219067
  C       -1.6230330     1.2650800     0.7040440
  C       -2.1008890    -0.8571740    -0.5744690
  C        2.7660710     0.0938090     0.0047360
  H       -1.0562100     0.8719860    -1.3362890
  H        1.2791640     1.6640640    -0.2248860
  H        1.4031030     0.6104820    -1.6083150
  H       -0.9521060     2.1204610     0.8293460
  H       -1.6846230     0.7313890     1.6588270
  H       -2.6168740     1.6507050     0.4584890
  H       -1.7562200    -1.5424760    -1.3562160
  H       -2.1750630    -1.4236530     0.3564710
  H       -3.0946750    -0.4900390    -0.8506910
  H        2.7911150     0.1168120     1.0954440
  H        2.9171760    -0.9417660    -0.3044500
  H        3.5913670     0.6986870    -0.3779970
units angstrom
no_reorient  #important for SAPT in psi4, default
symmetry c1  #important for SAPT in psi4, default
}

set PROPERTIES_ORIGIN ["COM"]
properties('MP2/aug-cc-pvtz', properties = ['dipole'])
--------------------------------------------------------------------------

    Molecular point group: c1
  Charge       = 0
  Multiplicity = 1
  Basis Set: AUG-CC-PVTZ
    Blend: AUG-CC-PVTZ
  Basis Set: (AUG-CC-PVTZ AUX)
    Blend: AUG-CC-PVTZ-JKFIT

    Orbital Energies [Eh]
    ---------------------

    Doubly Occupied:

       1A    -20.541994     2A    -11.325400     3A    -11.240523
       4A    -11.237496     5A    -11.228809     6A    -11.216271
       7A    -11.215945     8A     -1.373140     9A     -1.090461
      10A     -1.043487    11A     -0.935462    12A     -0.907306
      13A     -0.824282    14A     -0.724021    15A     -0.672842
      16A     -0.634033    17A     -0.621999    18A     -0.606279
      19A     -0.566979    20A     -0.549730    21A     -0.543425
      22A     -0.520058    23A     -0.512994    24A     -0.503814
      25A     -0.493277    26A     -0.485624    27A     -0.468462
      28A     -0.401357

  @DF-RHF Final Energy:  -309.17554473840147

   => Energetics <=

    Nuclear Repulsion Energy =            314.7861691258174233
    One-Electron Energy =               -1042.9524821397674259
    Two-Electron Energy =                 418.9907682755485325
    Total Energy =                       -309.1755447384014701
  Basis Set: (AUG-CC-PVTZ AUX)
    Blend: AUG-CC-PVTZ-RI
    Molecular point group: c1

    Geometry (in Angstrom), charge = 0, multiplicity = 1:

       Center              X                  Y                   Z               Mass
    ------------   -----------------  -----------------  -----------------  -----------------
         O            0.394249192034    -1.187912425570     0.695827092906    15.994914619570
         C           -1.124590807966     0.324066374430    -0.405412707094    12.000000000000
         C            0.249635192034    -0.192145425570    -0.010061907094    12.000000000000
         C            1.418365492034     0.625964774430    -0.518904607094    12.000000000000
         C           -1.622372807966     1.260648574430     0.707046092906    12.000000000000
         C           -2.100228807966    -0.861605425570    -0.571466907094    12.000000000000
         C            2.766731192034     0.089377574430     0.007738092906    12.000000000000
         H           -1.055549807966     0.867554574430    -1.333286907094     1.007825032230
         H            1.279824192034     1.659632574430    -0.221883907094     1.007825032230
         H            1.403763192034     0.606050574430    -1.605312907094     1.007825032230
         H           -0.951445807966     2.116029574430     0.832348092906     1.007825032230
         H           -1.683962807966     0.726957574430     1.661829092906     1.007825032230
         H           -2.616213807966     1.646273574430     0.461491092906     1.007825032230
         H           -1.755559807966    -1.546907425570    -1.353213907094     1.007825032230
         H           -2.174402807966    -1.428084425570     0.359473092906     1.007825032230
         H           -3.094014807966    -0.494470425570    -0.847688907094     1.007825032230
         H            2.791775192034     0.112380574430     1.098446092906     1.007825032230
         H            2.917836192034    -0.946197425570    -0.301447907094     1.007825032230
         H            3.592027192034     0.694255574430    -0.374994907094     1.007825032230

  Basis Set: AUG-CC-PVTZ
    Blend: AUG-CC-PVTZ
  Basis Set: (AUG-CC-PVTZ AUX)
    Blend: AUG-CC-PVTZ-JKFIT
	 Reference Energy          =    -309.1755447384014701 [Eh]
	 Singles Energy            =      -0.0000000000000000 [Eh]
	 Same-Spin Energy          =      -0.3168752112575692 [Eh]
	 Opposite-Spin Energy      =      -1.1034326776670080 [Eh]
	 Correlation Energy        =      -1.4203078889245773 [Eh]
	 Total Energy              =    -310.5958526273260532 [Eh]

	 ================> DF-SCS-MP2 Energies <==================
	-----------------------------------------------------------
	 SCS Same-Spin Scale       =       0.3333333333333333 [-]
	 SCS Opposite-Spin Scale   =       1.2000000000000000 [-]
	 SCS Same-Spin Energy      =      -0.1056250704191897 [Eh]
	 SCS Opposite-Spin Energy  =      -1.3241192132004096 [Eh]
	 SCS Correlation Energy    =      -1.4297442836195993 [Eh]
	 SCS Total Energy          =    -310.6052890220210543 [Eh]
	-----------------------------------------------------------

  Dipole Moment: [D]
     X:    -0.3842      Y:     2.2278      Z:    -1.4570     Total:     2.6895

*** Psi4 exiting successfully. Buy a developer a beer!
