                               Psi4 1.3.2 release

  ==> Input File <==

--------------------------------------------------------------------------
#psi4
#
memory 32 gb

molecule  {
0 1
  O        0.3829428    -1.1847506     0.6931336
  C       -1.1363630     0.3083220    -0.3952430
  C        0.2489750    -0.1877140    -0.0130640
  C        1.4260716     0.6218476    -0.5162628
  C       -1.6230330     1.2650800     0.7040440
  C       -2.1008890    -0.8571740    -0.5744690
  C        2.7660710     0.0938090     0.0047360
  H       -1.0562100     0.8719860    -1.3362890
  H        1.2791640     1.6640640    -0.2248860
  H        1.4031030     0.6104820    -1.6083150
  H       -0.9521060     2.1204610     0.8293460
  H       -1.6846230     0.7313890     1.6588270
  H       -2.6168740     1.6507050     0.4584890
  H       -1.7562200    -1.5424760    -1.3562160
  H       -2.1750630    -1.4236530     0.3564710
  H       -3.0946750    -0.4900390    -0.8506910
  H        2.7911150     0.1168120     1.0954440
  H        2.9171760    -0.9417660    -0.3044500
  H        3.5913670     0.6986870    -0.3779970
units angstrom
no_reorient  #important for SAPT in psi4, default
symmetry c1  #important for SAPT in psi4, default
}

set PROPERTIES_ORIGIN ["COM"]
properties('MP2/aug-cc-pvtz', properties = ['dipole'])
--------------------------------------------------------------------------

    Molecular point group: c1
  Charge       = 0
  Multiplicity = 1
  Basis Set: AUG-CC-PVTZ
    Blend: AUG-CC-PVTZ
  Basis Set: (AUG-CC-PVTZ AUX)
    Blend: AUG-CC-PVTZ-JKFIT

    Orbital Energies [Eh]
    ---------------------

    Doubly Occupied:

       1A    -20.541105     2A    -11.324952     3A    -11.241156
       4A    -11.239172     5A    -11.228432     6A    -11.216198
       7A    -11.215332     8A     -1.373126     9A     -1.090868
      10A     -1.046165    11A     -0.937359    12A     -0.907315
      13A     -0.823103    14A     -0.721090    15A     -0.672366
      16A     -0.633303    17A     -0.623349    18A     -0.606578
      19A     -0.567895    20A     -0.550978    21A     -0.543872
      22A     -0.520378    23A     -0.512635    24A     -0.504873
      25A     -0.493903    26A     -0.481148    27A     -0.470120
      28A     -0.401799

  @DF-RHF Final Energy:  -309.17653251365016

   => Energetics <=

    Nuclear Repulsion Energy =            314.9962781439452328
    One-Electron Energy =               -1043.3684797648368203
    Two-Electron Energy =                 419.1956691072414287
    Total Energy =                       -309.1765325136501588
  Basis Set: (AUG-CC-PVTZ AUX)
    Blend: AUG-CC-PVTZ-RI
    Molecular point group: c1

    Geometry (in Angstrom), charge = 0, multiplicity = 1:

       Center              X                  Y                   Z               Mass
    ------------   -----------------  -----------------  -----------------  -----------------
         O            0.385633523218    -1.185535265005     0.693830495960    15.994914619570
         C           -1.133672276782     0.307537334995    -0.394546104040    12.000000000000
         C            0.251665723218    -0.188498665005    -0.012367104040    12.000000000000
         C            1.428762323218     0.621062934995    -0.515565904040    12.000000000000
         C           -1.620342276782     1.264295334995     0.704740895960    12.000000000000
         C           -2.098198276782    -0.857958665005    -0.573772104040    12.000000000000
         C            2.768761723218     0.093024334995     0.005432895960    12.000000000000
         H           -1.053519276782     0.871201334995    -1.335592104040     1.007825032230
         H            1.281854723218     1.663279334995    -0.224189104040     1.007825032230
         H            1.405793723218     0.609697334995    -1.607618104040     1.007825032230
         H           -0.949415276782     2.119676334995     0.830042895960     1.007825032230
         H           -1.681932276782     0.730604334995     1.659523895960     1.007825032230
         H           -2.614183276782     1.649920334995     0.459185895960     1.007825032230
         H           -1.753529276782    -1.543260665005    -1.355519104040     1.007825032230
         H           -2.172372276782    -1.424437665005     0.357167895960     1.007825032230
         H           -3.091984276782    -0.490823665005    -0.849994104040     1.007825032230
         H            2.793805723218     0.116027334995     1.096140895960     1.007825032230
         H            2.919866723218    -0.942550665005    -0.303753104040     1.007825032230
         H            3.594057723218     0.697902334995    -0.377300104040     1.007825032230

  Basis Set: AUG-CC-PVTZ
    Blend: AUG-CC-PVTZ
  Basis Set: (AUG-CC-PVTZ AUX)
    Blend: AUG-CC-PVTZ-JKFIT
	 Reference Energy          =    -309.1765325136501588 [Eh]
	 Singles Energy            =      -0.0000000000000000 [Eh]
	 Same-Spin Energy          =      -0.3169970571877079 [Eh]
	 Opposite-Spin Energy      =      -1.1034839206228084 [Eh]
	 Correlation Energy        =      -1.4204809778105163 [Eh]
	 Total Energy              =    -310.5970134914607002 [Eh]

	 ================> DF-SCS-MP2 Energies <==================
	-----------------------------------------------------------
	 SCS Same-Spin Scale       =       0.3333333333333333 [-]
	 SCS Opposite-Spin Scale   =       1.2000000000000000 [-]
	 SCS Same-Spin Energy      =      -0.1056656857292360 [Eh]
	 SCS Opposite-Spin Energy  =      -1.3241807047473702 [Eh]
	 SCS Correlation Energy    =      -1.4298463904766061 [Eh]
	 SCS Total Energy          =    -310.6063789041267569 [Eh]
	-----------------------------------------------------------

  Dipole Moment: [D]
     X:    -0.3392      Y:     2.2234      Z:    -1.4549     Total:     2.6786

*** Psi4 exiting successfully. Buy a developer a beer!
