                               Psi4 1.3.2 release

  ==> Input File <==

--------------------------------------------------------------------------
#psi4
#
memory 32 gb

molecule  {
0 1
  O        0.3935890    -1.1834810     0.6928250
  C       -1.1363630     0.3083220    -0.3952430
  C        0.2489750    -0.1877140    -0.0130640
  C        1.4343240     0.6136100    -0.5100380
  C       -1.6230330     1.2650800     0.7040440
  C       -2.1082565    -0.8421044    -0.6249287
  C        2.7660710     0.0938090     0.0047360
  H       -1.0810737     0.8474995    -1.3522905
  H        1.2791640     1.6640640    -0.2248860
  H        1.4031030     0.6104820    -1.6083150
  H       -0.9521060     2.1204610     0.8293460
  H       -1.6846230     0.7313890     1.6588270
  H       -2.6168740     1.6507050     0.4584890
  H       -1.7562200    -1.5424760    -1.3562160
  H       -2.1750630    -1.4236530     0.3564710
  H       -3.0946750    -0.4900390    -0.8506910
  H        2.7911150     0.1168120     1.0954440
  H        2.9171760    -0.9417660    -0.3044500
  H        3.5913670     0.6986870    -0.3779970
units angstrom
no_reorient  #important for SAPT in psi4, default
symmetry c1  #important for SAPT in psi4, default
}

set PROPERTIES_ORIGIN ["COM"]
properties('MP2/aug-cc-pvtz', properties = ['dipole'])
--------------------------------------------------------------------------

    Molecular point group: c1
  Charge       = 0
  Multiplicity = 1
  Basis Set: AUG-CC-PVTZ
    Blend: AUG-CC-PVTZ
  Basis Set: (AUG-CC-PVTZ AUX)
    Blend: AUG-CC-PVTZ-JKFIT

    Orbital Energies [Eh]
    ---------------------

    Doubly Occupied:

       1A    -20.541200     2A    -11.325527     3A    -11.242020
       4A    -11.239382     5A    -11.229273     6A    -11.215618
       7A    -11.215442     8A     -1.373284     9A     -1.090865
      10A     -1.047306    11A     -0.938794    12A     -0.907249
      13A     -0.822601    14A     -0.720894    15A     -0.672317
      16A     -0.632319    17A     -0.625491    18A     -0.605872
      19A     -0.572908    20A     -0.554126    21A     -0.539541
      22A     -0.520424    23A     -0.513278    24A     -0.507153
      25A     -0.494836    26A     -0.471492    27A     -0.470309
      28A     -0.402831

  @DF-RHF Final Energy:  -309.17326581682585

   => Energetics <=

    Nuclear Repulsion Energy =            314.8187799395087154
    One-Electron Energy =               -1042.9993866665822679
    Two-Electron Energy =                 419.0073409102477626
    Total Energy =                       -309.1732658168258467
  Basis Set: (AUG-CC-PVTZ AUX)
    Blend: AUG-CC-PVTZ-RI
    Molecular point group: c1

    Geometry (in Angstrom), charge = 0, multiplicity = 1:

       Center              X                  Y                   Z               Mass
    ------------   -----------------  -----------------  -----------------  -----------------
         O            0.394722650125    -1.185041106656     0.699035814202    15.994914619570
         C           -1.135229349875     0.306761893344    -0.389032185798    12.000000000000
         C            0.250108650125    -0.189274106656    -0.006853185798    12.000000000000
         C            1.435457650125     0.612049893344    -0.503827185798    12.000000000000
         C           -1.621899349875     1.263519893344     0.710254814202    12.000000000000
         C           -2.107122849875    -0.843664506656    -0.618717885798    12.000000000000
         C            2.767204650125     0.092248893344     0.010946814202    12.000000000000
         H           -1.079940049875     0.845939393344    -1.346079685798     1.007825032230
         H            1.280297650125     1.662503893344    -0.218675185798     1.007825032230
         H            1.404236650125     0.608921893344    -1.602104185798     1.007825032230
         H           -0.950972349875     2.118900893344     0.835556814202     1.007825032230
         H           -1.683489349875     0.729828893344     1.665037814202     1.007825032230
         H           -2.615740349875     1.649144893344     0.464699814202     1.007825032230
         H           -1.755086349875    -1.544036106656    -1.350005185798     1.007825032230
         H           -2.173929349875    -1.425213106656     0.362681814202     1.007825032230
         H           -3.093541349875    -0.491599106656    -0.844480185798     1.007825032230
         H            2.792248650125     0.115251893344     1.101654814202     1.007825032230
         H            2.918309650125    -0.943326106656    -0.298239185798     1.007825032230
         H            3.592500650125     0.697126893344    -0.371786185798     1.007825032230

  Basis Set: AUG-CC-PVTZ
    Blend: AUG-CC-PVTZ
  Basis Set: (AUG-CC-PVTZ AUX)
    Blend: AUG-CC-PVTZ-JKFIT
	 Reference Energy          =    -309.1732658168258467 [Eh]
	 Singles Energy            =      -0.0000000000000000 [Eh]
	 Same-Spin Energy          =      -0.3171191152573884 [Eh]
	 Opposite-Spin Energy      =      -1.1036905277556686 [Eh]
	 Correlation Energy        =      -1.4208096430130570 [Eh]
	 Total Energy              =    -310.5940754598389049 [Eh]

	 ================> DF-SCS-MP2 Energies <==================
	-----------------------------------------------------------
	 SCS Same-Spin Scale       =       0.3333333333333333 [-]
	 SCS Opposite-Spin Scale   =       1.2000000000000000 [-]
	 SCS Same-Spin Energy      =      -0.1057063717524628 [Eh]
	 SCS Opposite-Spin Energy  =      -1.3244286333068023 [Eh]
	 SCS Correlation Energy    =      -1.4301350050592652 [Eh]
	 SCS Total Energy          =    -310.6034008218850886 [Eh]
	-----------------------------------------------------------

  Dipole Moment: [D]
     X:    -0.3603      Y:     2.2275      Z:    -1.4691     Total:     2.6926

*** Psi4 exiting successfully. Buy a developer a beer!
