                               Psi4 1.4a3.dev225

  ==> Input File <==

--------------------------------------------------------------------------
#psi4
#
memory 32 gb

molecule  {
0 1
  O        0.3867680    -1.0807900     0.9052720
  C       -1.1214160     0.2406750    -0.4118090
  C        0.2584720    -0.2233030     0.0330350
  C        1.4406679     0.4328186    -0.6069296
  C       -1.6022690     1.3118620     0.5765650
  C       -2.0946590    -0.9328810    -0.4718410
  C        2.7794930     0.0533630     0.0271350
  H       -1.0310200     0.6977280    -1.4061650
  H        1.3003680     1.5285790    -0.5907700
  H        1.4393040     0.1721120    -1.6810660
  H       -0.9145280     2.1623330     0.6220120
  H       -1.6816780     0.8793070     1.5782240
  H       -2.5863060     1.6880250     0.2813590
  H       -1.7648280    -1.6840550    -1.1955420
  H       -2.1566630    -1.4129490     0.5070730
  H       -3.0917530    -0.5897300    -0.7635520
  H        2.7964250     0.3427930     1.0801170
  H        2.9252090    -1.0274260    -0.0178250
  H        3.6147550     0.5417630    -0.4816370
units angstrom
no_reorient  #important for SAPT in psi4, default
symmetry c1  #important for SAPT in psi4, default
}

set PROPERTIES_ORIGIN ["COM"]
properties('MP2/aug-cc-pvtz', properties = ['dipole'])
--------------------------------------------------------------------------

    Molecular point group: c1
  Charge       = 0
  Multiplicity = 1
  Basis Set: AUG-CC-PVTZ
    Blend: AUG-CC-PVTZ
  Basis Set: (AUG-CC-PVTZ AUX)
    Blend: AUG-CC-PVTZ-JKFIT

    Orbital Energies [Eh]
    ---------------------

    Doubly Occupied:

       1A    -20.540172     2A    -11.324387     3A    -11.241746
       4A    -11.240401     5A    -11.227623     6A    -11.216662
       7A    -11.216300     8A     -1.372668     9A     -1.091271
      10A     -1.047044    11A     -0.937828    12A     -0.909296
      13A     -0.822267    14A     -0.721375    15A     -0.673304
      16A     -0.631553    17A     -0.622827    18A     -0.605584
      19A     -0.568379    20A     -0.553701    21A     -0.544543
      22A     -0.520839    23A     -0.512855    24A     -0.503009
      25A     -0.491616    26A     -0.481874    27A     -0.468281
      28A     -0.403449

  @DF-RHF Final Energy:  -309.17632290155450

   => Energetics <=

    Nuclear Repulsion Energy =            315.1103845448439529
    One-Electron Energy =               -1043.5917084871139195
    Two-Electron Energy =                 419.3050010407154105
    Total Energy =                       -309.1763229015544994
  Basis Set: (AUG-CC-PVTZ AUX)
    Blend: AUG-CC-PVTZ-RI
    Molecular point group: c1

    Geometry (in Angstrom), charge = 0, multiplicity = 1:

       Center              X                  Y                   Z               Mass
    ------------   -----------------  -----------------  -----------------  -----------------
         O            0.377275744991    -1.047095547137     0.883794467622    15.994914619570
         C           -1.130908255009     0.274369452863    -0.433286532378    12.000000000000
         C            0.248979744991    -0.189608547137     0.011557467622    12.000000000000
         C            1.431175644991     0.466513052863    -0.628407132378    12.000000000000
         C           -1.611761255009     1.345556452863     0.555087467622    12.000000000000
         C           -2.104151255009    -0.899186547137    -0.493318532378    12.000000000000
         C            2.770000744991     0.087057452863     0.005657467622    12.000000000000
         H           -1.040512255009     0.731422452863    -1.427642532378     1.007825032230
         H            1.290875744991     1.562273452863    -0.612247532378     1.007825032230
         H            1.429811744991     0.205806452863    -1.702543532378     1.007825032230
         H           -0.924020255009     2.196027452863     0.600534467622     1.007825032230
         H           -1.691170255009     0.913001452863     1.556746467622     1.007825032230
         H           -2.595798255009     1.721719452863     0.259881467622     1.007825032230
         H           -1.774320255009    -1.650360547137    -1.217019532378     1.007825032230
         H           -2.166155255009    -1.379254547137     0.485595467622     1.007825032230
         H           -3.101245255009    -0.556035547137    -0.785029532378     1.007825032230
         H            2.786932744991     0.376487452863     1.058639467622     1.007825032230
         H            2.915716744991    -0.993731547137    -0.039302532378     1.007825032230
         H            3.605262744991     0.575457452863    -0.503114532378     1.007825032230

  Basis Set: AUG-CC-PVTZ
    Blend: AUG-CC-PVTZ
  Basis Set: (AUG-CC-PVTZ AUX)
    Blend: AUG-CC-PVTZ-JKFIT
	 Reference Energy          =    -309.1763229015544994 [Eh]
	 Singles Energy            =      -0.0000000000000000 [Eh]
	 Same-Spin Energy          =      -0.3170863812939421 [Eh]
	 Opposite-Spin Energy      =      -1.1035798232523173 [Eh]
	 Correlation Energy        =      -1.4206662045462595 [Eh]
	 Total Energy              =    -310.5969891061007502 [Eh]

	 ================> DF-SCS-MP2 Energies <==================
	-----------------------------------------------------------
	 SCS Same-Spin Scale       =       0.3333333333333333 [-]
	 SCS Opposite-Spin Scale   =       1.2000000000000000 [-]
	 SCS Same-Spin Energy      =      -0.1056954604313140 [Eh]
	 SCS Opposite-Spin Energy  =      -1.3242957879027808 [Eh]
	 SCS Correlation Energy    =      -1.4299912483340949 [Eh]
	 SCS Total Energy          =    -310.6063141498885898 [Eh]
	-----------------------------------------------------------

  Dipole Moment: [D]
     X:    -0.3013      Y:     1.9313      Z:    -1.8414     Total:     2.6854

*** Psi4 exiting successfully. Buy a developer a beer!
