                               Psi4 1.3.2 release

  ==> Input File <==

--------------------------------------------------------------------------
#psi4
#
memory 32 gb

molecule  {
0 1
  O        0.3935890    -1.1834810     0.6928250
  C       -1.1363630     0.3083220    -0.3952430
  C        0.2372094    -0.1066996    -0.0704943
  C        1.4343240     0.6136100    -0.5100380
  C       -1.6230330     1.2650800     0.7040440
  C       -2.1008890    -0.8571740    -0.5744690
  C        2.7660710     0.0938090     0.0047360
  H       -1.0562100     0.8719860    -1.3362890
  H        1.2791640     1.6640640    -0.2248860
  H        1.4031030     0.6104820    -1.6083150
  H       -0.9521060     2.1204610     0.8293460
  H       -1.6846230     0.7313890     1.6588270
  H       -2.6168740     1.6507050     0.4584890
  H       -1.7562200    -1.5424760    -1.3562160
  H       -2.1750630    -1.4236530     0.3564710
  H       -3.0946750    -0.4900390    -0.8506910
  H        2.7911150     0.1168120     1.0954440
  H        2.9171760    -0.9417660    -0.3044500
  H        3.5913670     0.6986870    -0.3779970
units angstrom
no_reorient  #important for SAPT in psi4, default
symmetry c1  #important for SAPT in psi4, default
}

set PROPERTIES_ORIGIN ["COM"]
properties('MP2/aug-cc-pvtz', properties = ['dipole'])
--------------------------------------------------------------------------

    Molecular point group: c1
  Charge       = 0
  Multiplicity = 1
  Basis Set: AUG-CC-PVTZ
    Blend: AUG-CC-PVTZ
  Basis Set: (AUG-CC-PVTZ AUX)
    Blend: AUG-CC-PVTZ-JKFIT

    Orbital Energies [Eh]
    ---------------------

    Doubly Occupied:

       1A    -20.530828     2A    -11.333013     3A    -11.246186
       4A    -11.244252     5A    -11.232733     6A    -11.218375
       7A    -11.218219     8A     -1.312735     9A     -1.100578
      10A     -1.056182    11A     -0.940630    12A     -0.921278
      13A     -0.835363    14A     -0.718203    15A     -0.668970
      16A     -0.635735    17A     -0.624954    18A     -0.589072
      19A     -0.567462    20A     -0.558470    21A     -0.545514
      22A     -0.515541    23A     -0.510317    24A     -0.502010
      25A     -0.492253    26A     -0.481303    27A     -0.438802
      28A     -0.414282

  @DF-RHF Final Energy:  -309.15133197387405

   => Energetics <=

    Nuclear Repulsion Energy =            314.6024962443079289
    One-Electron Energy =               -1042.6011341287248797
    Two-Electron Energy =                 418.8473059105428433
    Total Energy =                       -309.1513319738740506
  Basis Set: (AUG-CC-PVTZ AUX)
    Blend: AUG-CC-PVTZ-RI
    Molecular point group: c1

    Geometry (in Angstrom), charge = 0, multiplicity = 1:

       Center              X                  Y                   Z               Mass
    ------------   -----------------  -----------------  -----------------  -----------------
         O            0.394999593565    -1.193194022719     0.699710419929    15.994914619570
         C           -1.134952406435     0.298608977281    -0.388357580071    12.000000000000
         C            0.238619993565    -0.116412622719    -0.063608880071    12.000000000000
         C            1.435734593565     0.603896977281    -0.503152580071    12.000000000000
         C           -1.621622406435     1.255366977281     0.710929419929    12.000000000000
         C           -2.099478406435    -0.866887022719    -0.567583580071    12.000000000000
         C            2.767481593565     0.084095977281     0.011621419929    12.000000000000
         H           -1.054799406435     0.862272977281    -1.329403580071     1.007825032230
         H            1.280574593565     1.654350977281    -0.218000580071     1.007825032230
         H            1.404513593565     0.600768977281    -1.601429580071     1.007825032230
         H           -0.950695406435     2.110747977281     0.836231419929     1.007825032230
         H           -1.683212406435     0.721675977281     1.665712419929     1.007825032230
         H           -2.615463406435     1.640991977281     0.465374419929     1.007825032230
         H           -1.754809406435    -1.552189022719    -1.349330580071     1.007825032230
         H           -2.173652406435    -1.433366022719     0.363356419929     1.007825032230
         H           -3.093264406435    -0.499752022719    -0.843805580071     1.007825032230
         H            2.792525593565     0.107098977281     1.102329419929     1.007825032230
         H            2.918586593565    -0.951479022719    -0.297564580071     1.007825032230
         H            3.592777593565     0.688973977281    -0.371111580071     1.007825032230

  Basis Set: AUG-CC-PVTZ
    Blend: AUG-CC-PVTZ
  Basis Set: (AUG-CC-PVTZ AUX)
    Blend: AUG-CC-PVTZ-JKFIT
	 Reference Energy          =    -309.1513319738740506 [Eh]
	 Singles Energy            =      -0.0000000000000000 [Eh]
	 Same-Spin Energy          =      -0.3205055791984978 [Eh]
	 Opposite-Spin Energy      =      -1.1102494922906456 [Eh]
	 Correlation Energy        =      -1.4307550714891435 [Eh]
	 Total Energy              =    -310.5820870453632097 [Eh]

	 ================> DF-SCS-MP2 Energies <==================
	-----------------------------------------------------------
	 SCS Same-Spin Scale       =       0.3333333333333333 [-]
	 SCS Opposite-Spin Scale   =       1.2000000000000000 [-]
	 SCS Same-Spin Energy      =      -0.1068351930661659 [Eh]
	 SCS Opposite-Spin Energy  =      -1.3322993907487748 [Eh]
	 SCS Correlation Energy    =      -1.4391345838149407 [Eh]
	 SCS Total Energy          =    -310.5904665576890125 [Eh]
	-----------------------------------------------------------

  Dipole Moment: [D]
     X:    -0.4117      Y:     2.4990      Z:    -1.6172     Total:     3.0050

*** Psi4 exiting successfully. Buy a developer a beer!
