                               Psi4 1.3.2 release

  ==> Input File <==

--------------------------------------------------------------------------
#psi4
#
memory 32 gb

molecule  {
0 1
  O        0.3935890    -1.1834810     0.6928250
  C       -1.1363630     0.3083220    -0.3952430
  C        0.2386764    -0.1990876     0.0085836
  C        1.4343240     0.6136100    -0.5100380
  C       -1.6230330     1.2650800     0.7040440
  C       -2.1008890    -0.8571740    -0.5744690
  C        2.7660710     0.0938090     0.0047360
  H       -1.0751234     0.8752259    -1.3357635
  H        1.2791640     1.6640640    -0.2248860
  H        1.4031030     0.6104820    -1.6083150
  H       -0.9521060     2.1204610     0.8293460
  H       -1.6846230     0.7313890     1.6588270
  H       -2.6168740     1.6507050     0.4584890
  H       -1.7562200    -1.5424760    -1.3562160
  H       -2.1750630    -1.4236530     0.3564710
  H       -3.0946750    -0.4900390    -0.8506910
  H        2.7911150     0.1168120     1.0954440
  H        2.9171760    -0.9417660    -0.3044500
  H        3.5913670     0.6986870    -0.3779970
units angstrom
no_reorient  #important for SAPT in psi4, default
symmetry c1  #important for SAPT in psi4, default
}

set PROPERTIES_ORIGIN ["COM"]
properties('MP2/aug-cc-pvtz', properties = ['dipole'])
--------------------------------------------------------------------------

    Molecular point group: c1
  Charge       = 0
  Multiplicity = 1
  Basis Set: AUG-CC-PVTZ
    Blend: AUG-CC-PVTZ
  Basis Set: (AUG-CC-PVTZ AUX)
    Blend: AUG-CC-PVTZ-JKFIT

    Orbital Energies [Eh]
    ---------------------

    Doubly Occupied:

       1A    -20.542647     2A    -11.323491     3A    -11.241192
       4A    -11.237783     5A    -11.228415     6A    -11.215729
       7A    -11.214295     8A     -1.387094     9A     -1.090649
      10A     -1.043853    11A     -0.937822    12A     -0.903669
      13A     -0.821142    14A     -0.721913    15A     -0.674510
      16A     -0.631392    17A     -0.624698    18A     -0.608682
      19A     -0.568912    20A     -0.551058    21A     -0.544570
      22A     -0.521437    23A     -0.513960    24A     -0.506953
      25A     -0.492908    26A     -0.480984    27A     -0.474237
      28A     -0.397938

  @DF-RHF Final Energy:  -309.17782524053092

   => Energetics <=

    Nuclear Repulsion Energy =            315.1827843060127066
    One-Electron Energy =               -1043.7173581172553440
    Two-Electron Energy =                 419.3567485707116589
    Total Energy =                       -309.1778252405309217
  Basis Set: (AUG-CC-PVTZ AUX)
    Blend: AUG-CC-PVTZ-RI
    Molecular point group: c1

    Geometry (in Angstrom), charge = 0, multiplicity = 1:

       Center              X                  Y                   Z               Mass
    ------------   -----------------  -----------------  -----------------  -----------------
         O            0.395014154612    -1.182149924059     0.690224200994    15.994914619570
         C           -1.134937845388     0.309653075941    -0.397843799006    12.000000000000
         C            0.240101554612    -0.197756524059     0.005982800994    12.000000000000
         C            1.435749154612     0.614941075941    -0.512638799006    12.000000000000
         C           -1.621607845388     1.266411075941     0.701443200994    12.000000000000
         C           -2.099463845388    -0.855842924059    -0.577069799006    12.000000000000
         C            2.767496154612     0.095140075941     0.002135200994    12.000000000000
         H           -1.073698245388     0.876556975941    -1.338364299006     1.007825032230
         H            1.280589154612     1.665395075941    -0.227486799006     1.007825032230
         H            1.404528154612     0.611813075941    -1.610915799006     1.007825032230
         H           -0.950680845388     2.121792075941     0.826745200994     1.007825032230
         H           -1.683197845388     0.732720075941     1.656226200994     1.007825032230
         H           -2.615448845388     1.652036075941     0.455888200994     1.007825032230
         H           -1.754794845388    -1.541144924059    -1.358816799006     1.007825032230
         H           -2.173637845388    -1.422321924059     0.353870200994     1.007825032230
         H           -3.093249845388    -0.488707924059    -0.853291799006     1.007825032230
         H            2.792540154612     0.118143075941     1.092843200994     1.007825032230
         H            2.918601154612    -0.940434924059    -0.307050799006     1.007825032230
         H            3.592792154612     0.700018075941    -0.380597799006     1.007825032230

  Basis Set: AUG-CC-PVTZ
    Blend: AUG-CC-PVTZ
  Basis Set: (AUG-CC-PVTZ AUX)
    Blend: AUG-CC-PVTZ-JKFIT
	 Reference Energy          =    -309.1778252405309217 [Eh]
	 Singles Energy            =      -0.0000000000000000 [Eh]
	 Same-Spin Energy          =      -0.3165047690002456 [Eh]
	 Opposite-Spin Energy      =      -1.1023606933726116 [Eh]
	 Correlation Energy        =      -1.4188654623728572 [Eh]
	 Total Energy              =    -310.5966907029037998 [Eh]

	 ================> DF-SCS-MP2 Energies <==================
	-----------------------------------------------------------
	 SCS Same-Spin Scale       =       0.3333333333333333 [-]
	 SCS Opposite-Spin Scale   =       1.2000000000000000 [-]
	 SCS Same-Spin Energy      =      -0.1055015896667485 [Eh]
	 SCS Opposite-Spin Energy  =      -1.3228328320471339 [Eh]
	 SCS Correlation Energy    =      -1.4283344217138825 [Eh]
	 SCS Total Energy          =    -310.6061596622448064 [Eh]
	-----------------------------------------------------------

  Dipole Moment: [D]
     X:    -0.4262      Y:     2.1506      Z:    -1.4058     Total:     2.6044

*** Psi4 exiting successfully. Buy a developer a beer!
