                               Psi4 1.3.2 release

  ==> Input File <==

--------------------------------------------------------------------------
#psi4
#
memory 32 gb

molecule  {
0 1
  O        0.3935890    -1.1834810     0.6928250
  C       -1.1363630     0.3083220    -0.3952430
  C        0.4312219    -0.2529696     0.0372132
  C        1.4343240     0.6136100    -0.5100380
  C       -1.6230330     1.2650800     0.7040440
  C       -2.1008890    -0.8571740    -0.5744690
  C        2.7660710     0.0938090     0.0047360
  H       -1.0562100     0.8719860    -1.3362890
  H        1.2791640     1.6640640    -0.2248860
  H        1.4031030     0.6104820    -1.6083150
  H       -0.9521060     2.1204610     0.8293460
  H       -1.6846230     0.7313890     1.6588270
  H       -2.6168740     1.6507050     0.4584890
  H       -1.7562200    -1.5424760    -1.3562160
  H       -2.1750630    -1.4236530     0.3564710
  H       -3.0946750    -0.4900390    -0.8506910
  H        2.7911150     0.1168120     1.0954440
  H        2.9171760    -0.9417660    -0.3044500
  H        3.5913670     0.6986870    -0.3779970
units angstrom
no_reorient  #important for SAPT in psi4, default
symmetry c1  #important for SAPT in psi4, default
}

set PROPERTIES_ORIGIN ["COM"]
properties('MP2/aug-cc-pvtz', properties = ['dipole'])
--------------------------------------------------------------------------

    Molecular point group: c1
  Charge       = 0
  Multiplicity = 1
  Basis Set: AUG-CC-PVTZ
    Blend: AUG-CC-PVTZ
  Basis Set: (AUG-CC-PVTZ AUX)
    Blend: AUG-CC-PVTZ-JKFIT

    Orbital Energies [Eh]
    ---------------------

    Doubly Occupied:

       1A    -20.553990     2A    -11.322126     3A    -11.242395
       4A    -11.226679     5A    -11.220981     6A    -11.215350
       7A    -11.205524     8A     -1.442480     9A     -1.085454
      10A     -1.048403    11A     -0.924911    12A     -0.905631
      13A     -0.794027    14A     -0.734535    15A     -0.681150
      16A     -0.649934    17A     -0.638262    18A     -0.605661
      19A     -0.562600    20A     -0.550936    21A     -0.538024
      22A     -0.534236    23A     -0.528303    24A     -0.517207
      25A     -0.502568    26A     -0.473056    27A     -0.468677
      28A     -0.356849

  @DF-RHF Final Energy:  -309.14459100498499

   => Energetics <=

    Nuclear Repulsion Energy =            315.3456203783666751
    One-Electron Energy =               -1043.9205245162595475
    Two-Electron Energy =                 419.4303131329078838
    Total Energy =                       -309.1445910049849886
  Basis Set: (AUG-CC-PVTZ AUX)
    Blend: AUG-CC-PVTZ-RI
    Molecular point group: c1

    Geometry (in Angstrom), charge = 0, multiplicity = 1:

       Center              X                  Y                   Z               Mass
    ------------   -----------------  -----------------  -----------------  -----------------
         O            0.371738752682    -1.175657198051     0.686796988993    15.994914619570
         C           -1.158213247318     0.316145801949    -0.401271011007    12.000000000000
         C            0.409371652682    -0.245145798051     0.031185188993    12.000000000000
         C            1.412473752682     0.621433801949    -0.516066011007    12.000000000000
         C           -1.644883247318     1.272903801949     0.698015988993    12.000000000000
         C           -2.122739247318    -0.849350198051    -0.580497011007    12.000000000000
         C            2.744220752682     0.101632801949    -0.001292011007    12.000000000000
         H           -1.078060247318     0.879809801949    -1.342317011007     1.007825032230
         H            1.257313752682     1.671887801949    -0.230914011007     1.007825032230
         H            1.381252752682     0.618305801949    -1.614343011007     1.007825032230
         H           -0.973956247318     2.128284801949     0.823317988993     1.007825032230
         H           -1.706473247318     0.739212801949     1.652798988993     1.007825032230
         H           -2.638724247318     1.658528801949     0.452460988993     1.007825032230
         H           -1.778070247318    -1.534652198051    -1.362244011007     1.007825032230
         H           -2.196913247318    -1.415829198051     0.350442988993     1.007825032230
         H           -3.116525247318    -0.482215198051    -0.856719011007     1.007825032230
         H            2.769264752682     0.124635801949     1.089415988993     1.007825032230
         H            2.895325752682    -0.933942198051    -0.310478011007     1.007825032230
         H            3.569516752682     0.706510801949    -0.384025011007     1.007825032230

  Basis Set: AUG-CC-PVTZ
    Blend: AUG-CC-PVTZ
  Basis Set: (AUG-CC-PVTZ AUX)
    Blend: AUG-CC-PVTZ-JKFIT
	 Reference Energy          =    -309.1445910049849886 [Eh]
	 Singles Energy            =      -0.0000000000000000 [Eh]
	 Same-Spin Energy          =      -0.3160836889503073 [Eh]
	 Opposite-Spin Energy      =      -1.1011312075648225 [Eh]
	 Correlation Energy        =      -1.4172148965151297 [Eh]
	 Total Energy              =    -310.5618059015001222 [Eh]

	 ================> DF-SCS-MP2 Energies <==================
	-----------------------------------------------------------
	 SCS Same-Spin Scale       =       0.3333333333333333 [-]
	 SCS Opposite-Spin Scale   =       1.2000000000000000 [-]
	 SCS Same-Spin Energy      =      -0.1053612296501024 [Eh]
	 SCS Opposite-Spin Energy  =      -1.3213574490777871 [Eh]
	 SCS Correlation Energy    =      -1.4267186787278896 [Eh]
	 SCS Total Energy          =    -310.5713096837128546 [Eh]
	-----------------------------------------------------------

  Dipole Moment: [D]
     X:     0.7592      Y:     1.8980      Z:    -1.3095     Total:     2.4277

*** Psi4 exiting successfully. Buy a developer a beer!
