                               Psi4 1.3.2 release

  ==> Input File <==

--------------------------------------------------------------------------
#psi4
#
memory 32 gb

molecule  {
0 1
  O        0.3935890    -1.1834810     0.6928250
  C       -1.1363630     0.3083220    -0.3952430
  C        0.2306418    -0.2374786    -0.0148832
  C        1.4343240     0.6136100    -0.5100380
  C       -1.6230330     1.2650800     0.7040440
  C       -2.0612991    -0.8905737    -0.5624419
  C        2.7660710     0.0938090     0.0047360
  H       -1.0562100     0.8719860    -1.3362890
  H        1.2791640     1.6640640    -0.2248860
  H        1.4031030     0.6104820    -1.6083150
  H       -0.9521060     2.1204610     0.8293460
  H       -1.6846230     0.7313890     1.6588270
  H       -2.6168740     1.6507050     0.4584890
  H       -1.7562200    -1.5424760    -1.3562160
  H       -2.1750630    -1.4236530     0.3564710
  H       -3.0946750    -0.4900390    -0.8506910
  H        2.7911150     0.1168120     1.0954440
  H        2.9171760    -0.9417660    -0.3044500
  H        3.5913670     0.6986870    -0.3779970
units angstrom
no_reorient  #important for SAPT in psi4, default
symmetry c1  #important for SAPT in psi4, default
}

set PROPERTIES_ORIGIN ["COM"]
properties('MP2/aug-cc-pvtz', properties = ['dipole'])
--------------------------------------------------------------------------

    Molecular point group: c1
  Charge       = 0
  Multiplicity = 1
  Basis Set: AUG-CC-PVTZ
    Blend: AUG-CC-PVTZ
  Basis Set: (AUG-CC-PVTZ AUX)
    Blend: AUG-CC-PVTZ-JKFIT

    Orbital Energies [Eh]
    ---------------------

    Doubly Occupied:

       1A    -20.543873     2A    -11.321270     3A    -11.241182
       4A    -11.235898     5A    -11.229395     6A    -11.216382
       7A    -11.213137     8A     -1.398573     9A     -1.090242
      10A     -1.040467    11A     -0.939242    12A     -0.900720
      13A     -0.820094    14A     -0.721928    15A     -0.674791
      16A     -0.630169    17A     -0.627619    18A     -0.612843
      19A     -0.568797    20A     -0.553138    21A     -0.541655
      22A     -0.522343    23A     -0.514879    24A     -0.501671
      25A     -0.494160    26A     -0.485149    27A     -0.479126
      28A     -0.391910

  @DF-RHF Final Energy:  -309.17401446973372

   => Energetics <=

    Nuclear Repulsion Energy =            315.5018836473229840
    One-Electron Energy =               -1044.3304930057611273
    Two-Electron Energy =                 419.6545948887044233
    Total Energy =                       -309.1740144697337200
  Basis Set: (AUG-CC-PVTZ AUX)
    Blend: AUG-CC-PVTZ-RI
    Molecular point group: c1

    Geometry (in Angstrom), charge = 0, multiplicity = 1:

       Center              X                  Y                   Z               Mass
    ------------   -----------------  -----------------  -----------------  -----------------
         O            0.391040433893    -1.173510061031     0.691601038277    15.994914619570
         C           -1.138911566107     0.318292938969    -0.396466961723    12.000000000000
         C            0.228093233893    -0.227507661031    -0.016107161723    12.000000000000
         C            1.431775433893     0.623580938969    -0.511261961723    12.000000000000
         C           -1.625581566107     1.275050938969     0.702820038277    12.000000000000
         C           -2.063847666107    -0.880602761031    -0.563665861723    12.000000000000
         C            2.763522433893     0.103779938969     0.003512038277    12.000000000000
         H           -1.058758566107     0.881956938969    -1.337512961723     1.007825032230
         H            1.276615433893     1.674034938969    -0.226109961723     1.007825032230
         H            1.400554433893     0.620452938969    -1.609538961723     1.007825032230
         H           -0.954654566107     2.130431938969     0.828122038277     1.007825032230
         H           -1.687171566107     0.741359938969     1.657603038277     1.007825032230
         H           -2.619422566107     1.660675938969     0.457265038277     1.007825032230
         H           -1.758768566107    -1.532505061031    -1.357439961723     1.007825032230
         H           -2.177611566107    -1.413682061031     0.355247038277     1.007825032230
         H           -3.097223566107    -0.480068061031    -0.851914961723     1.007825032230
         H            2.788566433893     0.126782938969     1.094220038277     1.007825032230
         H            2.914627433893    -0.931795061031    -0.305673961723     1.007825032230
         H            3.588818433893     0.708657938969    -0.379220961723     1.007825032230

  Basis Set: AUG-CC-PVTZ
    Blend: AUG-CC-PVTZ
  Basis Set: (AUG-CC-PVTZ AUX)
    Blend: AUG-CC-PVTZ-JKFIT
	 Reference Energy          =    -309.1740144697337200 [Eh]
	 Singles Energy            =      -0.0000000000000000 [Eh]
	 Same-Spin Energy          =      -0.3161563436899734 [Eh]
	 Opposite-Spin Energy      =      -1.1017106077582230 [Eh]
	 Correlation Energy        =      -1.4178669514481963 [Eh]
	 Total Energy              =    -310.5918814211819381 [Eh]

	 ================> DF-SCS-MP2 Energies <==================
	-----------------------------------------------------------
	 SCS Same-Spin Scale       =       0.3333333333333333 [-]
	 SCS Opposite-Spin Scale   =       1.2000000000000000 [-]
	 SCS Same-Spin Energy      =      -0.1053854478966578 [Eh]
	 SCS Opposite-Spin Energy  =      -1.3220527293098676 [Eh]
	 SCS Correlation Energy    =      -1.4274381772065254 [Eh]
	 SCS Total Energy          =    -310.6014526469402313 [Eh]
	-----------------------------------------------------------

  Dipole Moment: [D]
     X:    -0.4635      Y:     2.0668      Z:    -1.3557     Total:     2.5148

*** Psi4 exiting successfully. Buy a developer a beer!
