                               Psi4 1.3.2 release

  ==> Input File <==

--------------------------------------------------------------------------
#psi4
#
memory 32 gb

molecule  {
0 1
  O        0.3295749    -1.1899579     0.6938697
  C       -1.1363630     0.3083220    -0.3952430
  C        0.2489750    -0.1877140    -0.0130640
  C        1.3834779     0.6620986    -0.5468029
  C       -1.6230330     1.2650800     0.7040440
  C       -2.1008890    -0.8571740    -0.5744690
  C        2.7660710     0.0938090     0.0047360
  H       -1.0562100     0.8719860    -1.3362890
  H        1.2791640     1.6640640    -0.2248860
  H        1.4031030     0.6104820    -1.6083150
  H       -0.9521060     2.1204610     0.8293460
  H       -1.6846230     0.7313890     1.6588270
  H       -2.6168740     1.6507050     0.4584890
  H       -1.7562200    -1.5424760    -1.3562160
  H       -2.1750630    -1.4236530     0.3564710
  H       -3.0946750    -0.4900390    -0.8506910
  H        2.7911150     0.1168120     1.0954440
  H        2.9171760    -0.9417660    -0.3044500
  H        3.5913670     0.6986870    -0.3779970
units angstrom
no_reorient  #important for SAPT in psi4, default
symmetry c1  #important for SAPT in psi4, default
}

set PROPERTIES_ORIGIN ["COM"]
properties('MP2/aug-cc-pvtz', properties = ['dipole'])
--------------------------------------------------------------------------

    Molecular point group: c1
  Charge       = 0
  Multiplicity = 1
  Basis Set: AUG-CC-PVTZ
    Blend: AUG-CC-PVTZ
  Basis Set: (AUG-CC-PVTZ AUX)
    Blend: AUG-CC-PVTZ-JKFIT

    Orbital Energies [Eh]
    ---------------------

    Doubly Occupied:

       1A    -20.543362     2A    -11.326175     3A    -11.239494
       4A    -11.236941     5A    -11.227031     6A    -11.220261
       7A    -11.212896     8A     -1.374123     9A     -1.089752
      10A     -1.041498    11A     -0.935517    12A     -0.906877
      13A     -0.824941    14A     -0.723042    15A     -0.671951
      16A     -0.640942    17A     -0.622804    18A     -0.606924
      19A     -0.566659    20A     -0.546915    21A     -0.540442
      22A     -0.522528    23A     -0.516970    24A     -0.499757
      25A     -0.497339    26A     -0.476919    27A     -0.470663
      28A     -0.399638

  @DF-RHF Final Energy:  -309.16949675584812

   => Energetics <=

    Nuclear Repulsion Energy =            314.8264491834011096
    One-Electron Energy =               -1043.0271710612389597
    Two-Electron Energy =                 419.0312251219897348
    Total Energy =                       -309.1694967558481153
  Basis Set: (AUG-CC-PVTZ AUX)
    Blend: AUG-CC-PVTZ-RI
    Molecular point group: c1

    Geometry (in Angstrom), charge = 0, multiplicity = 1:

       Center              X                  Y                   Z               Mass
    ------------   -----------------  -----------------  -----------------  -----------------
         O            0.345900907079    -1.194736234837     0.698110521856    15.994914619570
         C           -1.120036992921     0.303543665163    -0.391002178144    12.000000000000
         C            0.265301007079    -0.192492334837    -0.008823178144    12.000000000000
         C            1.399803907079     0.657320265163    -0.542562078144    12.000000000000
         C           -1.606706992921     1.260301665163     0.708284821856    12.000000000000
         C           -2.084562992921    -0.861952334837    -0.570228178144    12.000000000000
         C            2.782397007079     0.089030665163     0.008976821856    12.000000000000
         H           -1.039883992921     0.867207665163    -1.332048178144     1.007825032230
         H            1.295490007079     1.659285665163    -0.220645178144     1.007825032230
         H            1.419429007079     0.605703665163    -1.604074178144     1.007825032230
         H           -0.935779992921     2.115682665163     0.833586821856     1.007825032230
         H           -1.668296992921     0.726610665163     1.663067821856     1.007825032230
         H           -2.600547992921     1.645926665163     0.462729821856     1.007825032230
         H           -1.739893992921    -1.547254334837    -1.351975178144     1.007825032230
         H           -2.158736992921    -1.428431334837     0.360711821856     1.007825032230
         H           -3.078348992921    -0.494817334837    -0.846450178144     1.007825032230
         H            2.807441007079     0.112033665163     1.099684821856     1.007825032230
         H            2.933502007079    -0.946544334837    -0.300209178144     1.007825032230
         H            3.607693007079     0.693908665163    -0.373756178144     1.007825032230

  Basis Set: AUG-CC-PVTZ
    Blend: AUG-CC-PVTZ
  Basis Set: (AUG-CC-PVTZ AUX)
    Blend: AUG-CC-PVTZ-JKFIT
	 Reference Energy          =    -309.1694967558481153 [Eh]
	 Singles Energy            =      -0.0000000000000000 [Eh]
	 Same-Spin Energy          =      -0.3169188962053461 [Eh]
	 Opposite-Spin Energy      =      -1.1038565538657048 [Eh]
	 Correlation Energy        =      -1.4207754500710510 [Eh]
	 Total Energy              =    -310.5902722059191774 [Eh]

	 ================> DF-SCS-MP2 Energies <==================
	-----------------------------------------------------------
	 SCS Same-Spin Scale       =       0.3333333333333333 [-]
	 SCS Opposite-Spin Scale   =       1.2000000000000000 [-]
	 SCS Same-Spin Energy      =      -0.1056396320684487 [Eh]
	 SCS Opposite-Spin Energy  =      -1.3246278646388456 [Eh]
	 SCS Correlation Energy    =      -1.4302674967072944 [Eh]
	 SCS Total Energy          =    -310.5997642525554170 [Eh]
	-----------------------------------------------------------

  Dipole Moment: [D]
     X:    -0.1902      Y:     2.2273      Z:    -1.4535     Total:     2.6664

*** Psi4 exiting successfully. Buy a developer a beer!
