                               Psi4 1.3.2 release

  ==> Input File <==

--------------------------------------------------------------------------
#psi4
#
memory 32 gb

molecule  {
0 1
  O        0.3935890    -1.1834810     0.6928250
  C       -1.1363630     0.3083220    -0.3952430
  C        0.2328124    -0.1717632    -0.0265979
  C        1.4343240     0.6136100    -0.5100380
  C       -1.6230330     1.2650800     0.7040440
  C       -2.1008890    -0.8571740    -0.5744690
  C        2.7784886     0.1130367    -0.0086566
  H       -1.0562100     0.8719860    -1.3362890
  H        1.2791640     1.6640640    -0.2248860
  H        1.4031030     0.6104820    -1.6083150
  H       -0.9521060     2.1204610     0.8293460
  H       -1.6846230     0.7313890     1.6588270
  H       -2.6168740     1.6507050     0.4584890
  H       -1.7562200    -1.5424760    -1.3562160
  H       -2.1750630    -1.4236530     0.3564710
  H       -3.0946750    -0.4900390    -0.8506910
  H        2.7911150     0.1168120     1.0954440
  H        2.9171760    -0.9417660    -0.3044500
  H        3.5913670     0.6986870    -0.3779970
units angstrom
no_reorient  #important for SAPT in psi4, default
symmetry c1  #important for SAPT in psi4, default
}

set PROPERTIES_ORIGIN ["COM"]
properties('MP2/aug-cc-pvtz', properties = ['dipole'])
--------------------------------------------------------------------------

    Molecular point group: c1
  Charge       = 0
  Multiplicity = 1
  Basis Set: AUG-CC-PVTZ
    Blend: AUG-CC-PVTZ
  Basis Set: (AUG-CC-PVTZ AUX)
    Blend: AUG-CC-PVTZ-JKFIT

    Orbital Energies [Eh]
    ---------------------

    Doubly Occupied:

       1A    -20.538606     2A    -11.327194     3A    -11.243311
       4A    -11.240215     5A    -11.230423     6A    -11.217049
       7A    -11.215637     8A     -1.358126     9A     -1.095060
      10A     -1.047259    11A     -0.939205    12A     -0.910655
      13A     -0.826762    14A     -0.719820    15A     -0.671526
      16A     -0.629990    17A     -0.623929    18A     -0.602866
      19A     -0.569286    20A     -0.555603    21A     -0.546171
      22A     -0.521563    23A     -0.508359    24A     -0.502543
      25A     -0.491026    26A     -0.482003    27A     -0.463288
      28A     -0.406678

  @DF-RHF Final Energy:  -309.17219778491693

   => Energetics <=

    Nuclear Repulsion Energy =            314.8070310700551317
    One-Electron Energy =               -1042.9901495302549392
    Two-Electron Energy =                 419.0109206752828754
    Total Energy =                       -309.1721977849169321
  Basis Set: (AUG-CC-PVTZ AUX)
    Blend: AUG-CC-PVTZ-RI
    Molecular point group: c1

    Geometry (in Angstrom), charge = 0, multiplicity = 1:

       Center              X                  Y                   Z               Mass
    ------------   -----------------  -----------------  -----------------  -----------------
         O            0.394037975626    -1.187698595483     0.696053212078    15.994914619570
         C           -1.135914024374     0.304104404517    -0.392014787922    12.000000000000
         C            0.233261375626    -0.175980795483    -0.023369687922    12.000000000000
         C            1.434772975626     0.609392404517    -0.506809787922    12.000000000000
         C           -1.622584024374     1.260862404517     0.707272212078    12.000000000000
         C           -2.100440024374    -0.861391595483    -0.571240787922    12.000000000000
         C            2.778937575626     0.108819104517    -0.005428387922    12.000000000000
         H           -1.055761024374     0.867768404517    -1.333060787922     1.007825032230
         H            1.279612975626     1.659846404517    -0.221657787922     1.007825032230
         H            1.403551975626     0.606264404517    -1.605086787922     1.007825032230
         H           -0.951657024374     2.116243404517     0.832574212078     1.007825032230
         H           -1.684174024374     0.727171404517     1.662055212078     1.007825032230
         H           -2.616425024374     1.646487404517     0.461717212078     1.007825032230
         H           -1.755771024374    -1.546693595483    -1.352987787922     1.007825032230
         H           -2.174614024374    -1.427870595483     0.359699212078     1.007825032230
         H           -3.094226024374    -0.494256595483    -0.847462787922     1.007825032230
         H            2.791563975626     0.112594404517     1.098672212078     1.007825032230
         H            2.917624975626    -0.945983595483    -0.301221787922     1.007825032230
         H            3.591815975626     0.694469404517    -0.374768787922     1.007825032230

  Basis Set: AUG-CC-PVTZ
    Blend: AUG-CC-PVTZ
  Basis Set: (AUG-CC-PVTZ AUX)
    Blend: AUG-CC-PVTZ-JKFIT
	 Reference Energy          =    -309.1721977849169321 [Eh]
	 Singles Energy            =      -0.0000000000000000 [Eh]
	 Same-Spin Energy          =      -0.3178040273923683 [Eh]
	 Opposite-Spin Energy      =      -1.1049975108417283 [Eh]
	 Correlation Energy        =      -1.4228015382340966 [Eh]
	 Total Energy              =    -310.5949993231510007 [Eh]

	 ================> DF-SCS-MP2 Energies <==================
	-----------------------------------------------------------
	 SCS Same-Spin Scale       =       0.3333333333333333 [-]
	 SCS Opposite-Spin Scale   =       1.2000000000000000 [-]
	 SCS Same-Spin Energy      =      -0.1059346757974561 [Eh]
	 SCS Opposite-Spin Energy  =      -1.3259970130100738 [Eh]
	 SCS Correlation Energy    =      -1.4319316888075300 [Eh]
	 SCS Total Energy          =    -310.6041294737244698 [Eh]
	-----------------------------------------------------------

  Dipole Moment: [D]
     X:    -0.4492      Y:     2.2942      Z:    -1.4930     Total:     2.7739

*** Psi4 exiting successfully. Buy a developer a beer!
