                               Psi4 1.3.2 release

  ==> Input File <==

--------------------------------------------------------------------------
#psi4
#
memory 32 gb

molecule  {
0 1
  O        0.3935890    -1.1834810     0.6928250
  C       -1.1671543     0.2469128    -0.3550453
  C        0.2489750    -0.1877140    -0.0130640
  C        1.4819940     0.5618078    -0.4735384
  C       -1.6230330     1.2650800     0.7040440
  C       -2.1008890    -0.8571740    -0.5744690
  C        2.7660710     0.0938090     0.0047360
  H       -1.0562100     0.8719860    -1.3362890
  H        1.2791640     1.6640640    -0.2248860
  H        1.4031030     0.6104820    -1.6083150
  H       -0.9521060     2.1204610     0.8293460
  H       -1.6846230     0.7313890     1.6588270
  H       -2.6168740     1.6507050     0.4584890
  H       -1.7562200    -1.5424760    -1.3562160
  H       -2.1750630    -1.4236530     0.3564710
  H       -3.0946750    -0.4900390    -0.8506910
  H        2.7911150     0.1168120     1.0954440
  H        2.9171760    -0.9417660    -0.3044500
  H        3.5913670     0.6986870    -0.3779970
units angstrom
no_reorient  #important for SAPT in psi4, default
symmetry c1  #important for SAPT in psi4, default
}

set PROPERTIES_ORIGIN ["COM"]
properties('MP2/aug-cc-pvtz', properties = ['dipole'])
--------------------------------------------------------------------------

    Molecular point group: c1
  Charge       = 0
  Multiplicity = 1
  Basis Set: AUG-CC-PVTZ
    Blend: AUG-CC-PVTZ
  Basis Set: (AUG-CC-PVTZ AUX)
    Blend: AUG-CC-PVTZ-JKFIT

    Orbital Energies [Eh]
    ---------------------

    Doubly Occupied:

       1A    -20.536755     2A    -11.323857     3A    -11.247618
       4A    -11.245762     5A    -11.229160     6A    -11.214631
       7A    -11.213586     8A     -1.373067     9A     -1.094855
      10A     -1.060753    11A     -0.944931    12A     -0.907340
      13A     -0.819056    14A     -0.712321    15A     -0.671661
      16A     -0.630510    17A     -0.628703    18A     -0.606597
      19A     -0.576334    20A     -0.562882    21A     -0.546205
      22A     -0.524188    23A     -0.515162    24A     -0.507598
      25A     -0.494118    26A     -0.464653    27A     -0.458713
      28A     -0.401708

  @DF-RHF Final Energy:  -309.16047972644594

   => Energetics <=

    Nuclear Repulsion Energy =            315.8712083563777924
    One-Electron Energy =               -1045.0379213964099563
    Two-Electron Energy =                 420.0062333135862218
    Total Energy =                       -309.1604797264459421
  Basis Set: (AUG-CC-PVTZ AUX)
    Blend: AUG-CC-PVTZ-RI
    Molecular point group: c1

    Geometry (in Angstrom), charge = 0, multiplicity = 1:

       Center              X                  Y                   Z               Mass
    ------------   -----------------  -----------------  -----------------  -----------------
         O            0.391565327708    -1.169907608549     0.683629390296    15.994914619570
         C           -1.169177972292     0.260486191451    -0.364240909704    12.000000000000
         C            0.246951327708    -0.174140608549    -0.022259609704    12.000000000000
         C            1.479970327708     0.575381191451    -0.482734009704    12.000000000000
         C           -1.625056672292     1.278653391451     0.694848390296    12.000000000000
         C           -2.102912672292    -0.843600608549    -0.583664609704    12.000000000000
         C            2.764047327708     0.107382391451    -0.004459609704    12.000000000000
         H           -1.058233672292     0.885559391451    -1.345484609704     1.007825032230
         H            1.277140327708     1.677637391451    -0.234081609704     1.007825032230
         H            1.401079327708     0.624055391451    -1.617510609704     1.007825032230
         H           -0.954129672292     2.134034391451     0.820150390296     1.007825032230
         H           -1.686646672292     0.744962391451     1.649631390296     1.007825032230
         H           -2.618897672292     1.664278391451     0.449293390296     1.007825032230
         H           -1.758243672292    -1.528902608549    -1.365411609704     1.007825032230
         H           -2.177086672292    -1.410079608549     0.347275390296     1.007825032230
         H           -3.096698672292    -0.476465608549    -0.859886609704     1.007825032230
         H            2.789091327708     0.130385391451     1.086248390296     1.007825032230
         H            2.915152327708    -0.928192608549    -0.313645609704     1.007825032230
         H            3.589343327708     0.712260391451    -0.387192609704     1.007825032230

  Basis Set: AUG-CC-PVTZ
    Blend: AUG-CC-PVTZ
  Basis Set: (AUG-CC-PVTZ AUX)
    Blend: AUG-CC-PVTZ-JKFIT
	 Reference Energy          =    -309.1604797264459421 [Eh]
	 Singles Energy            =      -0.0000000000000000 [Eh]
	 Same-Spin Energy          =      -0.3182233317180870 [Eh]
	 Opposite-Spin Energy      =      -1.1049966749789890 [Eh]
	 Correlation Energy        =      -1.4232200066970759 [Eh]
	 Total Energy              =    -310.5836997331430211 [Eh]

	 ================> DF-SCS-MP2 Energies <==================
	-----------------------------------------------------------
	 SCS Same-Spin Scale       =       0.3333333333333333 [-]
	 SCS Opposite-Spin Scale   =       1.2000000000000000 [-]
	 SCS Same-Spin Energy      =      -0.1060744439060290 [Eh]
	 SCS Opposite-Spin Energy  =      -1.3259960099747867 [Eh]
	 SCS Correlation Energy    =      -1.4320704538808158 [Eh]
	 SCS Total Energy          =    -310.5925501803267821 [Eh]
	-----------------------------------------------------------

  Dipole Moment: [D]
     X:    -0.3187      Y:     2.1841      Z:    -1.4284     Total:     2.6291

*** Psi4 exiting successfully. Buy a developer a beer!
