                               Psi4 1.3.2 release

  ==> Input File <==

--------------------------------------------------------------------------
#psi4
#
memory 32 gb

molecule  {
0 1
  O        0.3935890    -1.1834810     0.6928250
  C       -1.1363630     0.3083220    -0.3952430
  C        0.2489750    -0.1877140    -0.0130640
  C        1.3560649     0.5607050    -0.4772268
  C       -1.6230330     1.2650800     0.7040440
  C       -2.1008890    -0.8571740    -0.5744690
  C        2.7660710     0.0938090     0.0047360
  H       -1.0562100     0.8719860    -1.3362890
  H        1.2791640     1.6640640    -0.2248860
  H        1.4031030     0.6104820    -1.6083150
  H       -0.9521060     2.1204610     0.8293460
  H       -1.6846230     0.7313890     1.6588270
  H       -2.6168740     1.6507050     0.4584890
  H       -1.7562200    -1.5424760    -1.3562160
  H       -2.1750630    -1.4236530     0.3564710
  H       -3.0946750    -0.4900390    -0.8506910
  H        2.7911150     0.1168120     1.0954440
  H        2.9171760    -0.9417660    -0.3044500
  H        3.5913670     0.6986870    -0.3779970
units angstrom
no_reorient  #important for SAPT in psi4, default
symmetry c1  #important for SAPT in psi4, default
}

set PROPERTIES_ORIGIN ["COM"]
properties('MP2/aug-cc-pvtz', properties = ['dipole'])
--------------------------------------------------------------------------

    Molecular point group: c1
  Charge       = 0
  Multiplicity = 1
  Basis Set: AUG-CC-PVTZ
    Blend: AUG-CC-PVTZ
  Basis Set: (AUG-CC-PVTZ AUX)
    Blend: AUG-CC-PVTZ-JKFIT

    Orbital Energies [Eh]
    ---------------------

    Doubly Occupied:

       1A    -20.538761     2A    -11.319660     3A    -11.242464
       4A    -11.240959     5A    -11.227952     6A    -11.218898
       7A    -11.215211     8A     -1.374747     9A     -1.094688
      10A     -1.048287    11A     -0.937224    12A     -0.916795
      13A     -0.821706    14A     -0.723495    15A     -0.678640
      16A     -0.629493    17A     -0.624632    18A     -0.607101
      19A     -0.566270    20A     -0.556007    21A     -0.544254
      22A     -0.522658    23A     -0.513273    24A     -0.492059
      25A     -0.487827    26A     -0.477872    27A     -0.464165
      28A     -0.410187

  @DF-RHF Final Energy:  -309.16547413135311

   => Energetics <=

    Nuclear Repulsion Energy =            316.3719284338143893
    One-Electron Energy =               -1046.0842351629264613
    Two-Electron Energy =                 420.5468325977589075
    Total Energy =                       -309.1654741313531076
  Basis Set: (AUG-CC-PVTZ AUX)
    Blend: AUG-CC-PVTZ-RI
    Molecular point group: c1

    Geometry (in Angstrom), charge = 0, multiplicity = 1:

       Center              X                  Y                   Z               Mass
    ------------   -----------------  -----------------  -----------------  -----------------
         O            0.402971733109    -1.177137954917     0.688891049154    15.994914619570
         C           -1.126980266891     0.314665045083    -0.399176950846    12.000000000000
         C            0.258357733109    -0.181370954917    -0.016997950846    12.000000000000
         C            1.365447633109     0.567048045083    -0.481160750846    12.000000000000
         C           -1.613650266891     1.271423045083     0.700110049154    12.000000000000
         C           -2.091506266891    -0.850830954917    -0.578402950846    12.000000000000
         C            2.775453733109     0.100152045083     0.000802049154    12.000000000000
         H           -1.046827266891     0.878329045083    -1.340222950846     1.007825032230
         H            1.288546733109     1.670407045083    -0.228819950846     1.007825032230
         H            1.412485733109     0.616825045083    -1.612248950846     1.007825032230
         H           -0.942723266891     2.126804045083     0.825412049154     1.007825032230
         H           -1.675240266891     0.737732045083     1.654893049154     1.007825032230
         H           -2.607491266891     1.657048045083     0.454555049154     1.007825032230
         H           -1.746837266891    -1.536132954917    -1.360149950846     1.007825032230
         H           -2.165680266891    -1.417309954917     0.352537049154     1.007825032230
         H           -3.085292266891    -0.483695954917    -0.854624950846     1.007825032230
         H            2.800497733109     0.123155045083     1.091510049154     1.007825032230
         H            2.926558733109    -0.935422954917    -0.308383950846     1.007825032230
         H            3.600749733109     0.705030045083    -0.381930950846     1.007825032230

  Basis Set: AUG-CC-PVTZ
    Blend: AUG-CC-PVTZ
  Basis Set: (AUG-CC-PVTZ AUX)
    Blend: AUG-CC-PVTZ-JKFIT
	 Reference Energy          =    -309.1654741313531076 [Eh]
	 Singles Energy            =      -0.0000000000000000 [Eh]
	 Same-Spin Energy          =      -0.3178772392402452 [Eh]
	 Opposite-Spin Energy      =      -1.1045532905383966 [Eh]
	 Correlation Energy        =      -1.4224305297786417 [Eh]
	 Total Energy              =    -310.5879046611317449 [Eh]

	 ================> DF-SCS-MP2 Energies <==================
	-----------------------------------------------------------
	 SCS Same-Spin Scale       =       0.3333333333333333 [-]
	 SCS Opposite-Spin Scale   =       1.2000000000000000 [-]
	 SCS Same-Spin Energy      =      -0.1059590797467484 [Eh]
	 SCS Opposite-Spin Energy  =      -1.3254639486460758 [Eh]
	 SCS Correlation Energy    =      -1.4314230283928242 [Eh]
	 SCS Total Energy          =    -310.5968971597459358 [Eh]
	-----------------------------------------------------------

  Dipole Moment: [D]
     X:    -0.2345      Y:     2.3113      Z:    -1.5190     Total:     2.7757

*** Psi4 exiting successfully. Buy a developer a beer!
