                               Psi4 1.3.2 release

  ==> Input File <==

--------------------------------------------------------------------------
#psi4
#
memory 32 gb

molecule  {
0 1
  O        0.3935890    -1.1834810     0.6928250
  C       -1.1363630     0.3083220    -0.3952430
  C        0.2825880    -0.2526037    -0.0438474
  C        1.4343240     0.6136100    -0.5100380
  C       -1.6230330     1.2650800     0.7040440
  C       -2.1008890    -0.8571740    -0.5744690
  C        2.7660710     0.0938090     0.0047360
  H       -1.0562100     0.8719860    -1.3362890
  H        1.3293877     1.6767225    -0.2499996
  H        1.4031030     0.6104820    -1.6083150
  H       -0.9521060     2.1204610     0.8293460
  H       -1.6846230     0.7313890     1.6588270
  H       -2.6168740     1.6507050     0.4584890
  H       -1.7562200    -1.5424760    -1.3562160
  H       -2.1750630    -1.4236530     0.3564710
  H       -3.0946750    -0.4900390    -0.8506910
  H        2.7911150     0.1168120     1.0954440
  H        2.9171760    -0.9417660    -0.3044500
  H        3.5913670     0.6986870    -0.3779970
units angstrom
no_reorient  #important for SAPT in psi4, default
symmetry c1  #important for SAPT in psi4, default
}

set PROPERTIES_ORIGIN ["COM"]
properties('MP2/aug-cc-pvtz', properties = ['dipole'])
--------------------------------------------------------------------------

    Molecular point group: c1
  Charge       = 0
  Multiplicity = 1
  Basis Set: AUG-CC-PVTZ
    Blend: AUG-CC-PVTZ
  Basis Set: (AUG-CC-PVTZ AUX)
    Blend: AUG-CC-PVTZ-JKFIT

    Orbital Energies [Eh]
    ---------------------

    Doubly Occupied:

       1A    -20.545908     2A    -11.323122     3A    -11.239773
       4A    -11.237841     5A    -11.226183     6A    -11.214859
       7A    -11.213268     8A     -1.399923     9A     -1.083751
      10A     -1.047467    11A     -0.934866    12A     -0.902402
      13A     -0.815906    14A     -0.723730    15A     -0.675659
      16A     -0.631187    17A     -0.627058    18A     -0.611811
      19A     -0.566564    20A     -0.550548    21A     -0.542910
      22A     -0.523593    23A     -0.517253    24A     -0.507414
      25A     -0.490842    26A     -0.479951    27A     -0.476600
      28A     -0.393027

  @DF-RHF Final Energy:  -309.17456415730544

   => Energetics <=

    Nuclear Repulsion Energy =            314.9851910862686282
    One-Electron Energy =               -1043.3126787284575130
    Two-Electron Energy =                 419.1529234848834449
    Total Energy =                       -309.1745641573054399
  Basis Set: (AUG-CC-PVTZ AUX)
    Blend: AUG-CC-PVTZ-RI
    Molecular point group: c1

    Geometry (in Angstrom), charge = 0, multiplicity = 1:

       Center              X                  Y                   Z               Mass
    ------------   -----------------  -----------------  -----------------  -----------------
         O            0.389053275767    -1.175828529415     0.696768505937    15.994914619570
         C           -1.140898724233     0.315974470585    -0.391299494063    12.000000000000
         C            0.278052275767    -0.244951229415    -0.039903894063    12.000000000000
         C            1.429788275767     0.621262470585    -0.506094494063    12.000000000000
         C           -1.627568724233     1.272732470585     0.707987505937    12.000000000000
         C           -2.105424724233    -0.849521529415    -0.570525494063    12.000000000000
         C            2.761535275767     0.101461470585     0.008679505937    12.000000000000
         H           -1.060745724233     0.879638470585    -1.332345494063     1.007825032230
         H            1.324851975767     1.684374970585    -0.246056094063     1.007825032230
         H            1.398567275767     0.618134470585    -1.604371494063     1.007825032230
         H           -0.956641724233     2.128113470585     0.833289505937     1.007825032230
         H           -1.689158724233     0.739041470585     1.662770505937     1.007825032230
         H           -2.621409724233     1.658357470585     0.462432505937     1.007825032230
         H           -1.760755724233    -1.534823529415    -1.352272494063     1.007825032230
         H           -2.179598724233    -1.416000529415     0.360414505937     1.007825032230
         H           -3.099210724233    -0.482386529415    -0.846747494063     1.007825032230
         H            2.786579275767     0.124464470585     1.099387505937     1.007825032230
         H            2.912640275767    -0.934113529415    -0.300506494063     1.007825032230
         H            3.586831275767     0.706339470585    -0.374053494063     1.007825032230

  Basis Set: AUG-CC-PVTZ
    Blend: AUG-CC-PVTZ
  Basis Set: (AUG-CC-PVTZ AUX)
    Blend: AUG-CC-PVTZ-JKFIT
	 Reference Energy          =    -309.1745641573054399 [Eh]
	 Singles Energy            =      -0.0000000000000000 [Eh]
	 Same-Spin Energy          =      -0.3160694475945316 [Eh]
	 Opposite-Spin Energy      =      -1.1017220226203654 [Eh]
	 Correlation Energy        =      -1.4177914702148970 [Eh]
	 Total Energy              =    -310.5923556275203623 [Eh]

	 ================> DF-SCS-MP2 Energies <==================
	-----------------------------------------------------------
	 SCS Same-Spin Scale       =       0.3333333333333333 [-]
	 SCS Opposite-Spin Scale   =       1.2000000000000000 [-]
	 SCS Same-Spin Energy      =      -0.1053564825315105 [Eh]
	 SCS Opposite-Spin Energy  =      -1.3220664271444384 [Eh]
	 SCS Correlation Energy    =      -1.4274229096759490 [Eh]
	 SCS Total Energy          =    -310.6019870669813940 [Eh]
	-----------------------------------------------------------

  Dipole Moment: [D]
     X:    -0.1877      Y:     2.0930      Z:    -1.3971     Total:     2.5235

*** Psi4 exiting successfully. Buy a developer a beer!
