                               Psi4 1.3.2 release

  ==> Input File <==

--------------------------------------------------------------------------
#psi4
#
memory 32 gb

molecule  {
0 1
  O        0.3935890    -1.1834810     0.6928250
  C       -1.1363630     0.3083220    -0.3952430
  C        0.2607406    -0.2687284     0.0443663
  C        1.4343240     0.6136100    -0.5100380
  C       -1.6230330     1.2650800     0.7040440
  C       -2.1008890    -0.8571740    -0.5744690
  C        2.7660710     0.0938090     0.0047360
  H       -1.0562100     0.8719860    -1.3362890
  H        1.2791640     1.6640640    -0.2248860
  H        1.4031030     0.6104820    -1.6083150
  H       -0.9521060     2.1204610     0.8293460
  H       -1.6846230     0.7313890     1.6588270
  H       -2.6168740     1.6507050     0.4584890
  H       -1.7562200    -1.5424760    -1.3562160
  H       -2.1750630    -1.4236530     0.3564710
  H       -3.0946750    -0.4900390    -0.8506910
  H        2.7911150     0.1168120     1.0954440
  H        2.9171760    -0.9417660    -0.3044500
  H        3.5913670     0.6986870    -0.3779970
units angstrom
no_reorient  #important for SAPT in psi4, default
symmetry c1  #important for SAPT in psi4, default
}

set PROPERTIES_ORIGIN ["COM"]
properties('MP2/aug-cc-pvtz', properties = ['dipole'])
--------------------------------------------------------------------------

    Molecular point group: c1
  Charge       = 0
  Multiplicity = 1
  Basis Set: AUG-CC-PVTZ
    Blend: AUG-CC-PVTZ
  Basis Set: (AUG-CC-PVTZ AUX)
    Blend: AUG-CC-PVTZ-JKFIT

    Orbital Energies [Eh]
    ---------------------

    Doubly Occupied:

       1A    -20.550005     2A    -11.316737     3A    -11.236555
       4A    -11.233190     5A    -11.224763     6A    -11.213280
       7A    -11.212570     8A     -1.447172     9A     -1.081152
      10A     -1.038897    11A     -0.934742    12A     -0.892102
      13A     -0.811786    14A     -0.726082    15A     -0.682927
      16A     -0.640168    17A     -0.630264    18A     -0.611592
      19A     -0.570446    20A     -0.548794    21A     -0.542369
      22A     -0.534724    23A     -0.524866    24A     -0.510375
      25A     -0.493420    26A     -0.481597    27A     -0.478831
      28A     -0.376420

  @DF-RHF Final Energy:  -309.16836949341109

   => Energetics <=

    Nuclear Repulsion Energy =            315.7047568694410415
    One-Electron Energy =               -1044.6546011387547424
    Two-Electron Energy =                 419.7814747759025522
    Total Energy =                       -309.1683694934110918
  Basis Set: (AUG-CC-PVTZ AUX)
    Blend: AUG-CC-PVTZ-RI
    Molecular point group: c1

    Geometry (in Angstrom), charge = 0, multiplicity = 1:

       Center              X                  Y                   Z               Mass
    ------------   -----------------  -----------------  -----------------  -----------------
         O            0.392178355248    -1.173767820102     0.685939378680    15.994914619570
         C           -1.137773644752     0.318035179898    -0.402128621320    12.000000000000
         C            0.259329955248    -0.259015220102     0.037480678680    12.000000000000
         C            1.432913355248     0.623323179898    -0.516923621320    12.000000000000
         C           -1.624443644752     1.274793179898     0.697158378680    12.000000000000
         C           -2.102299644752    -0.847460820102    -0.581354621320    12.000000000000
         C            2.764660355248     0.103522179898    -0.002149621320    12.000000000000
         H           -1.057620644752     0.881699179898    -1.343174621320     1.007825032230
         H            1.277753355248     1.673777179898    -0.231771621320     1.007825032230
         H            1.401692355248     0.620195179898    -1.615200621320     1.007825032230
         H           -0.953516644752     2.130174179898     0.822460378680     1.007825032230
         H           -1.686033644752     0.741102179898     1.651941378680     1.007825032230
         H           -2.618284644752     1.660418179898     0.451603378680     1.007825032230
         H           -1.757630644752    -1.532762820102    -1.363101621320     1.007825032230
         H           -2.176473644752    -1.413939820102     0.349585378680     1.007825032230
         H           -3.096085644752    -0.480325820102    -0.857576621320     1.007825032230
         H            2.789704355248     0.126525179898     1.088558378680     1.007825032230
         H            2.915765355248    -0.932052820102    -0.311335621320     1.007825032230
         H            3.589956355248     0.708400179898    -0.384882621320     1.007825032230

  Basis Set: AUG-CC-PVTZ
    Blend: AUG-CC-PVTZ
  Basis Set: (AUG-CC-PVTZ AUX)
    Blend: AUG-CC-PVTZ-JKFIT
	 Reference Energy          =    -309.1683694934110918 [Eh]
	 Singles Energy            =      -0.0000000000000000 [Eh]
	 Same-Spin Energy          =      -0.3145615122808196 [Eh]
	 Opposite-Spin Energy      =      -1.0982979063996157 [Eh]
	 Correlation Energy        =      -1.4128594186804353 [Eh]
	 Total Energy              =    -310.5812289120915466 [Eh]

	 ================> DF-SCS-MP2 Energies <==================
	-----------------------------------------------------------
	 SCS Same-Spin Scale       =       0.3333333333333333 [-]
	 SCS Opposite-Spin Scale   =       1.2000000000000000 [-]
	 SCS Same-Spin Energy      =      -0.1048538374269398 [Eh]
	 SCS Opposite-Spin Energy  =      -1.3179574876795388 [Eh]
	 SCS Correlation Energy    =      -1.4228113251064787 [Eh]
	 SCS Total Energy          =    -310.5911808185175573 [Eh]
	-----------------------------------------------------------

  Dipole Moment: [D]
     X:    -0.3030      Y:     1.8377      Z:    -1.2207     Total:     2.2269

*** Psi4 exiting successfully. Buy a developer a beer!
