                               Psi4 1.3.2 release

  ==> Input File <==

--------------------------------------------------------------------------
#psi4
#
memory 32 gb

molecule  {
0 1
  O        0.3935890    -1.1834810     0.6928250
  C       -1.1573179     0.2675233    -0.3685542
  C        0.2489750    -0.1877140    -0.0130640
  C        1.4664733     0.5793106    -0.4858502
  C       -1.6230330     1.2650800     0.7040440
  C       -2.1008890    -0.8571740    -0.5744690
  C        2.7660710     0.0938090     0.0047360
  H       -1.0562100     0.8719860    -1.3362890
  H        1.2791640     1.6640640    -0.2248860
  H        1.4031030     0.6104820    -1.6083150
  H       -0.9521060     2.1204610     0.8293460
  H       -1.6846230     0.7313890     1.6588270
  H       -2.6168740     1.6507050     0.4584890
  H       -1.7562200    -1.5424760    -1.3562160
  H       -2.1750630    -1.4236530     0.3564710
  H       -3.0946750    -0.4900390    -0.8506910
  H        2.7911150     0.1168120     1.0954440
  H        2.9171760    -0.9417660    -0.3044500
  H        3.5913670     0.6986870    -0.3779970
units angstrom
no_reorient  #important for SAPT in psi4, default
symmetry c1  #important for SAPT in psi4, default
}

set PROPERTIES_ORIGIN ["COM"]
properties('MP2/aug-cc-pvtz', properties = ['dipole'])
--------------------------------------------------------------------------

    Molecular point group: c1
  Charge       = 0
  Multiplicity = 1
  Basis Set: AUG-CC-PVTZ
    Blend: AUG-CC-PVTZ
  Basis Set: (AUG-CC-PVTZ AUX)
    Blend: AUG-CC-PVTZ-JKFIT

    Orbital Energies [Eh]
    ---------------------

    Doubly Occupied:

       1A    -20.538022     2A    -11.323995     3A    -11.245553
       4A    -11.243415     5A    -11.228889     6A    -11.214992
       7A    -11.214183     8A     -1.372951     9A     -1.093320
      10A     -1.055925    11A     -0.942487    12A     -0.907426
      13A     -0.820133    14A     -0.714825    15A     -0.671871
      16A     -0.629438    17A     -0.627954    18A     -0.606537
      19A     -0.572764    20A     -0.559279    21A     -0.545691
      22A     -0.521509    23A     -0.513889    24A     -0.507960
      25A     -0.493928    26A     -0.470108    27A     -0.464589
      28A     -0.402117

  @DF-RHF Final Energy:  -309.16914446364655

   => Energetics <=

    Nuclear Repulsion Energy =            315.5851841628326611
    One-Electron Energy =               -1044.5011578940650452
    Two-Electron Energy =                 419.7468292675858379
    Total Energy =                       -309.1691444636465462
  Basis Set: (AUG-CC-PVTZ AUX)
    Blend: AUG-CC-PVTZ-RI
    Molecular point group: c1

    Geometry (in Angstrom), charge = 0, multiplicity = 1:

       Center              X                  Y                   Z               Mass
    ------------   -----------------  -----------------  -----------------  -----------------
         O            0.392246838425    -1.174477146114     0.686725124819    15.994914619570
         C           -1.158660061575     0.276527153886    -0.374654075181    12.000000000000
         C            0.247632838425    -0.178710146114    -0.019163875181    12.000000000000
         C            1.465131138425     0.588314453886    -0.491950075181    12.000000000000
         C           -1.624375161575     1.274083853886     0.697944124819    12.000000000000
         C           -2.102231161575    -0.848170146114    -0.580568875181    12.000000000000
         C            2.764728838425     0.102812853886    -0.001363875181    12.000000000000
         H           -1.057552161575     0.880989853886    -1.342388875181     1.007825032230
         H            1.277821838425     1.673067853886    -0.230985875181     1.007825032230
         H            1.401760838425     0.619485853886    -1.614414875181     1.007825032230
         H           -0.953448161575     2.129464853886     0.823246124819     1.007825032230
         H           -1.685965161575     0.740392853886     1.652727124819     1.007825032230
         H           -2.618216161575     1.659708853886     0.452389124819     1.007825032230
         H           -1.757562161575    -1.533472146114    -1.362315875181     1.007825032230
         H           -2.176405161575    -1.414649146114     0.350371124819     1.007825032230
         H           -3.096017161575    -0.481035146114    -0.856790875181     1.007825032230
         H            2.789772838425     0.125815853886     1.089344124819     1.007825032230
         H            2.915833838425    -0.932762146114    -0.310549875181     1.007825032230
         H            3.590024838425     0.707690853886    -0.384096875181     1.007825032230

  Basis Set: AUG-CC-PVTZ
    Blend: AUG-CC-PVTZ
  Basis Set: (AUG-CC-PVTZ AUX)
    Blend: AUG-CC-PVTZ-JKFIT
	 Reference Energy          =    -309.1691444636465462 [Eh]
	 Singles Energy            =      -0.0000000000000000 [Eh]
	 Same-Spin Energy          =      -0.3177350723778880 [Eh]
	 Opposite-Spin Energy      =      -1.1042928273361365 [Eh]
	 Correlation Energy        =      -1.4220278997140245 [Eh]
	 Total Energy              =    -310.5911723633605561 [Eh]

	 ================> DF-SCS-MP2 Energies <==================
	-----------------------------------------------------------
	 SCS Same-Spin Scale       =       0.3333333333333333 [-]
	 SCS Opposite-Spin Scale   =       1.2000000000000000 [-]
	 SCS Same-Spin Energy      =      -0.1059116907926293 [Eh]
	 SCS Opposite-Spin Energy  =      -1.3251513928033638 [Eh]
	 SCS Correlation Energy    =      -1.4310630835959932 [Eh]
	 SCS Total Energy          =    -310.6002075472425190 [Eh]
	-----------------------------------------------------------

  Dipole Moment: [D]
     X:    -0.3355      Y:     2.1994      Z:    -1.4398     Total:     2.6501

*** Psi4 exiting successfully. Buy a developer a beer!
