                               Psi4 1.3.2 release

  ==> Input File <==

--------------------------------------------------------------------------
#psi4
#
memory 32 gb

molecule  {
0 1
  O        0.3935890    -1.1834810     0.6928250
  C       -1.1363630     0.3083220    -0.3952430
  C        0.3400984    -0.2203418     0.0120746
  C        1.4343240     0.6136100    -0.5100380
  C       -1.6230330     1.2650800     0.7040440
  C       -2.1008890    -0.8571740    -0.5744690
  C        2.7660710     0.0938090     0.0047360
  H       -1.0562100     0.8719860    -1.3362890
  H        1.2791640     1.6640640    -0.2248860
  H        1.4031030     0.6104820    -1.6083150
  H       -0.9521060     2.1204610     0.8293460
  H       -1.6846230     0.7313890     1.6588270
  H       -2.6168740     1.6507050     0.4584890
  H       -1.7562200    -1.5424760    -1.3562160
  H       -2.1750630    -1.4236530     0.3564710
  H       -3.0946750    -0.4900390    -0.8506910
  H        2.7911150     0.1168120     1.0954440
  H        2.9171760    -0.9417660    -0.3044500
  H        3.5913670     0.6986870    -0.3779970
units angstrom
no_reorient  #important for SAPT in psi4, default
symmetry c1  #important for SAPT in psi4, default
}

set PROPERTIES_ORIGIN ["COM"]
properties('MP2/aug-cc-pvtz', properties = ['dipole'])
--------------------------------------------------------------------------

    Molecular point group: c1
  Charge       = 0
  Multiplicity = 1
  Basis Set: AUG-CC-PVTZ
    Blend: AUG-CC-PVTZ
  Basis Set: (AUG-CC-PVTZ AUX)
    Blend: AUG-CC-PVTZ-JKFIT

    Orbital Energies [Eh]
    ---------------------

    Doubly Occupied:

       1A    -20.546271     2A    -11.321472     3A    -11.239466
       4A    -11.236680     5A    -11.222107     6A    -11.217585
       7A    -11.210958     8A     -1.407862     9A     -1.081372
      10A     -1.052596    11A     -0.931542    12A     -0.904992
      13A     -0.808441    14A     -0.725718    15A     -0.675416
      16A     -0.639717    17A     -0.627652    18A     -0.610473
      19A     -0.563933    20A     -0.551607    21A     -0.540750
      22A     -0.526196    23A     -0.519664    24A     -0.510793
      25A     -0.495242    26A     -0.477520    27A     -0.475285
      28A     -0.384291

  @DF-RHF Final Energy:  -309.17093110000883

   => Energetics <=

    Nuclear Repulsion Energy =            315.1716065633096377
    One-Electron Energy =               -1043.6738797188215813
    Two-Electron Energy =                 419.3313420555031144
    Total Energy =                       -309.1709311000088292
  Basis Set: (AUG-CC-PVTZ AUX)
    Blend: AUG-CC-PVTZ-RI
    Molecular point group: c1

    Geometry (in Angstrom), charge = 0, multiplicity = 1:

       Center              X                  Y                   Z               Mass
    ------------   -----------------  -----------------  -----------------  -----------------
         O            0.382663869539    -1.179569059731     0.689810944149    15.994914619570
         C           -1.147288130461     0.312233940269    -0.398257055851    12.000000000000
         C            0.329173269539    -0.216429859731     0.009060544149    12.000000000000
         C            1.423398869539     0.617521940269    -0.513052055851    12.000000000000
         C           -1.633958130461     1.268991940269     0.701029944149    12.000000000000
         C           -2.111814130461    -0.853262059731    -0.577483055851    12.000000000000
         C            2.755145869539     0.097720940269     0.001721944149    12.000000000000
         H           -1.067135130461     0.875897940269    -1.339303055851     1.007825032230
         H            1.268238869539     1.667975940269    -0.227900055851     1.007825032230
         H            1.392177869539     0.614393940269    -1.611329055851     1.007825032230
         H           -0.963031130461     2.124372940269     0.826331944149     1.007825032230
         H           -1.695548130461     0.735300940269     1.655812944149     1.007825032230
         H           -2.627799130461     1.654616940269     0.455474944149     1.007825032230
         H           -1.767145130461    -1.538564059731    -1.359230055851     1.007825032230
         H           -2.185988130461    -1.419741059731     0.353456944149     1.007825032230
         H           -3.105600130461    -0.486127059731    -0.853705055851     1.007825032230
         H            2.780189869539     0.120723940269     1.092429944149     1.007825032230
         H            2.906250869539    -0.937854059731    -0.307464055851     1.007825032230
         H            3.580441869539     0.702598940269    -0.381011055851     1.007825032230

  Basis Set: AUG-CC-PVTZ
    Blend: AUG-CC-PVTZ
  Basis Set: (AUG-CC-PVTZ AUX)
    Blend: AUG-CC-PVTZ-JKFIT
	 Reference Energy          =    -309.1709311000088292 [Eh]
	 Singles Energy            =      -0.0000000000000000 [Eh]
	 Same-Spin Energy          =      -0.3160111476826812 [Eh]
	 Opposite-Spin Energy      =      -1.1013098576400320 [Eh]
	 Correlation Energy        =      -1.4173210053227132 [Eh]
	 Total Energy              =    -310.5882521053315486 [Eh]

	 ================> DF-SCS-MP2 Energies <==================
	-----------------------------------------------------------
	 SCS Same-Spin Scale       =       0.3333333333333333 [-]
	 SCS Opposite-Spin Scale   =       1.2000000000000000 [-]
	 SCS Same-Spin Energy      =      -0.1053370492275604 [Eh]
	 SCS Opposite-Spin Energy  =      -1.3215718291680383 [Eh]
	 SCS Correlation Energy    =      -1.4269088783955988 [Eh]
	 SCS Total Energy          =    -310.5978399784044086 [Eh]
	-----------------------------------------------------------

  Dipole Moment: [D]
     X:     0.1449      Y:     2.0739      Z:    -1.3952     Total:     2.5037

*** Psi4 exiting successfully. Buy a developer a beer!
