                               Psi4 1.4a3.dev225

  ==> Input File <==

--------------------------------------------------------------------------
#psi4
#
memory 32 gb

molecule  {
0 1
  O        0.3867680    -1.0807900     0.9052720
  C       -1.1214160     0.2406750    -0.4118090
  C        0.2605584    -0.2372475     0.0472194
  C        1.4564740     0.4415910    -0.6154860
  C       -1.6022690     1.3118620     0.5765650
  C       -2.0946590    -0.9328810    -0.4718410
  C        2.7794930     0.0533630     0.0271350
  H       -1.0310200     0.6977280    -1.4061650
  H        1.3003680     1.5285790    -0.5907700
  H        1.4393040     0.1721120    -1.6810660
  H       -0.9145280     2.1623330     0.6220120
  H       -1.6816780     0.8793070     1.5782240
  H       -2.5863060     1.6880250     0.2813590
  H       -1.7648280    -1.6840550    -1.1955420
  H       -2.1566630    -1.4129490     0.5070730
  H       -3.0917530    -0.5897300    -0.7635520
  H        2.7964250     0.3427930     1.0801170
  H        2.9252090    -1.0274260    -0.0178250
  H        3.6147550     0.5417630    -0.4816370
units angstrom
no_reorient  #important for SAPT in psi4, default
symmetry c1  #important for SAPT in psi4, default
}

set PROPERTIES_ORIGIN ["COM"]
properties('MP2/aug-cc-pvtz', properties = ['dipole'])
--------------------------------------------------------------------------

    Molecular point group: c1
  Charge       = 0
  Multiplicity = 1
  Basis Set: AUG-CC-PVTZ
    Blend: AUG-CC-PVTZ
  Basis Set: (AUG-CC-PVTZ AUX)
    Blend: AUG-CC-PVTZ-JKFIT

    Orbital Energies [Eh]
    ---------------------

    Doubly Occupied:

       1A    -20.542357     2A    -11.323523     3A    -11.240954
       4A    -11.238825     5A    -11.226976     6A    -11.215872
       7A    -11.215485     8A     -1.386066     9A     -1.088755
      10A     -1.045345    11A     -0.937333    12A     -0.904544
      13A     -0.820212    14A     -0.721553    15A     -0.673416
      16A     -0.632140    17A     -0.623539    18A     -0.608160
      19A     -0.568699    20A     -0.552103    21A     -0.544356
      22A     -0.521883    23A     -0.514568    24A     -0.506959
      25A     -0.492600    26A     -0.481864    27A     -0.473630
      28A     -0.397149

  @DF-RHF Final Energy:  -309.17831820997475

   => Energetics <=

    Nuclear Repulsion Energy =            314.9664367725390548
    One-Electron Energy =               -1043.2917786272305420
    Two-Electron Energy =                 419.1470236447167395
    Total Energy =                       -309.1783182099747478
  Basis Set: (AUG-CC-PVTZ AUX)
    Blend: AUG-CC-PVTZ-RI
    Molecular point group: c1

    Geometry (in Angstrom), charge = 0, multiplicity = 1:

       Center              X                  Y                   Z               Mass
    ------------   -----------------  -----------------  -----------------  -----------------
         O            0.375130550246    -1.046475445880     0.883119706911    15.994914619570
         C           -1.133053449754     0.274989554120    -0.433961293089    12.000000000000
         C            0.248920950246    -0.202932945880     0.025067106911    12.000000000000
         C            1.444836550246     0.475905554120    -0.637638293089    12.000000000000
         C           -1.613906449754     1.346176554120     0.554412706911    12.000000000000
         C           -2.106296449754    -0.898566445880    -0.493993293089    12.000000000000
         C            2.767855550246     0.087677554120     0.004982706911    12.000000000000
         H           -1.042657449754     0.732042554120    -1.428317293089     1.007825032230
         H            1.288730550246     1.562893554120    -0.612922293089     1.007825032230
         H            1.427666550246     0.206426554120    -1.703218293089     1.007825032230
         H           -0.926165449754     2.196647554120     0.599859706911     1.007825032230
         H           -1.693315449754     0.913621554120     1.556071706911     1.007825032230
         H           -2.597943449754     1.722339554120     0.259206706911     1.007825032230
         H           -1.776465449754    -1.649740445880    -1.217694293089     1.007825032230
         H           -2.168300449754    -1.378634445880     0.484920706911     1.007825032230
         H           -3.103390449754    -0.555415445880    -0.785704293089     1.007825032230
         H            2.784787550246     0.377107554120     1.057964706911     1.007825032230
         H            2.913571550246    -0.993111445880    -0.039977293089     1.007825032230
         H            3.603117550246     0.576077554120    -0.503789293089     1.007825032230

  Basis Set: AUG-CC-PVTZ
    Blend: AUG-CC-PVTZ
  Basis Set: (AUG-CC-PVTZ AUX)
    Blend: AUG-CC-PVTZ-JKFIT
	 Reference Energy          =    -309.1783182099747478 [Eh]
	 Singles Energy            =      -0.0000000000000000 [Eh]
	 Same-Spin Energy          =      -0.3164355973657051 [Eh]
	 Opposite-Spin Energy      =      -1.1023466790608851 [Eh]
	 Correlation Energy        =      -1.4187822764265903 [Eh]
	 Total Energy              =    -310.5971004864013594 [Eh]

	 ================> DF-SCS-MP2 Energies <==================
	-----------------------------------------------------------
	 SCS Same-Spin Scale       =       0.3333333333333333 [-]
	 SCS Opposite-Spin Scale   =       1.2000000000000000 [-]
	 SCS Same-Spin Energy      =      -0.1054785324552350 [Eh]
	 SCS Opposite-Spin Energy  =      -1.3228160148730621 [Eh]
	 SCS Correlation Energy    =      -1.4282945473282971 [Eh]
	 SCS Total Energy          =    -310.6066127573030258 [Eh]
	-----------------------------------------------------------

  Dipole Moment: [D]
     X:    -0.3160      Y:     1.8586      Z:    -1.7732     Total:     2.5881

*** Psi4 exiting successfully. Buy a developer a beer!
