                               Psi4 1.3.2 release

  ==> Input File <==

--------------------------------------------------------------------------
#psi4
#
memory 32 gb

molecule  {
0 1
  O        0.3935890    -1.1834810     0.6928250
  C       -1.1363630     0.3083220    -0.3952430
  C        0.1578516    -0.1550862    -0.0382026
  C        1.4343240     0.6136100    -0.5100380
  C       -1.6230330     1.2650800     0.7040440
  C       -2.1008890    -0.8571740    -0.5744690
  C        2.7660710     0.0938090     0.0047360
  H       -1.0562100     0.8719860    -1.3362890
  H        1.2791640     1.6640640    -0.2248860
  H        1.4031030     0.6104820    -1.6083150
  H       -0.9521060     2.1204610     0.8293460
  H       -1.6846230     0.7313890     1.6588270
  H       -2.6168740     1.6507050     0.4584890
  H       -1.7562200    -1.5424760    -1.3562160
  H       -2.1750630    -1.4236530     0.3564710
  H       -3.0946750    -0.4900390    -0.8506910
  H        2.7911150     0.1168120     1.0954440
  H        2.9171760    -0.9417660    -0.3044500
  H        3.5913670     0.6986870    -0.3779970
units angstrom
no_reorient  #important for SAPT in psi4, default
symmetry c1  #important for SAPT in psi4, default
}

set PROPERTIES_ORIGIN ["COM"]
properties('MP2/aug-cc-pvtz', properties = ['dipole'])
--------------------------------------------------------------------------

    Molecular point group: c1
  Charge       = 0
  Multiplicity = 1
  Basis Set: AUG-CC-PVTZ
    Blend: AUG-CC-PVTZ
  Basis Set: (AUG-CC-PVTZ AUX)
    Blend: AUG-CC-PVTZ-JKFIT

    Orbital Energies [Eh]
    ---------------------

    Doubly Occupied:

       1A    -20.534945     2A    -11.329482     3A    -11.243628
       4A    -11.240918     5A    -11.235972     6A    -11.220674
       7A    -11.213750     8A     -1.338197     9A     -1.108982
      10A     -1.039307    11A     -0.944057    12A     -0.914364
      13A     -0.834577    14A     -0.720022    15A     -0.668544
      16A     -0.627518    17A     -0.626925    18A     -0.595517
      19A     -0.571735    20A     -0.553599    21A     -0.548496
      22A     -0.516140    23A     -0.510551    24A     -0.504670
      25A     -0.492790    26A     -0.483812    27A     -0.452778
      28A     -0.406756

  @DF-RHF Final Energy:  -309.15792547324469

   => Energetics <=

    Nuclear Repulsion Energy =            315.0192248541711137
    One-Electron Energy =               -1043.3968890607570756
    Two-Electron Energy =                 419.2197387333412166
    Total Energy =                       -309.1579254732446884
  Basis Set: (AUG-CC-PVTZ AUX)
    Blend: AUG-CC-PVTZ-RI
    Molecular point group: c1

    Geometry (in Angstrom), charge = 0, multiplicity = 1:

       Center              X                  Y                   Z               Mass
    ------------   -----------------  -----------------  -----------------  -----------------
         O            0.404514079274    -1.187392783090     0.695838854460    15.994914619570
         C           -1.125437920726     0.304410216910    -0.392229145540    12.000000000000
         C            0.168776679274    -0.158997983090    -0.035188745540    12.000000000000
         C            1.445249079274     0.609698216910    -0.507024145540    12.000000000000
         C           -1.612107920726     1.261168216910     0.707057854460    12.000000000000
         C           -2.089963920726    -0.861085783090    -0.571455145540    12.000000000000
         C            2.776996079274     0.089897216910     0.007749854460    12.000000000000
         H           -1.045284920726     0.868074216910    -1.333275145540     1.007825032230
         H            1.290089079274     1.660152216910    -0.221872145540     1.007825032230
         H            1.414028079274     0.606570216910    -1.605301145540     1.007825032230
         H           -0.941180920726     2.116549216910     0.832359854460     1.007825032230
         H           -1.673697920726     0.727477216910     1.661840854460     1.007825032230
         H           -2.605948920726     1.646793216910     0.461502854460     1.007825032230
         H           -1.745294920726    -1.546387783090    -1.353202145540     1.007825032230
         H           -2.164137920726    -1.427564783090     0.359484854460     1.007825032230
         H           -3.083749920726    -0.493950783090    -0.847677145540     1.007825032230
         H            2.802040079274     0.112900216910     1.098457854460     1.007825032230
         H            2.928101079274    -0.945677783090    -0.301436145540     1.007825032230
         H            3.602292079274     0.694775216910    -0.374983145540     1.007825032230

  Basis Set: AUG-CC-PVTZ
    Blend: AUG-CC-PVTZ
  Basis Set: (AUG-CC-PVTZ AUX)
    Blend: AUG-CC-PVTZ-JKFIT
	 Reference Energy          =    -309.1579254732446884 [Eh]
	 Singles Energy            =      -0.0000000000000000 [Eh]
	 Same-Spin Energy          =      -0.3192773960357838 [Eh]
	 Opposite-Spin Energy      =      -1.1077583244449263 [Eh]
	 Correlation Energy        =      -1.4270357204807100 [Eh]
	 Total Energy              =    -310.5849611937254053 [Eh]

	 ================> DF-SCS-MP2 Energies <==================
	-----------------------------------------------------------
	 SCS Same-Spin Scale       =       0.3333333333333333 [-]
	 SCS Opposite-Spin Scale   =       1.2000000000000000 [-]
	 SCS Same-Spin Energy      =      -0.1064257986785946 [Eh]
	 SCS Opposite-Spin Energy  =      -1.3293099893339115 [Eh]
	 SCS Correlation Energy    =      -1.4357357880125061 [Eh]
	 SCS Total Energy          =    -310.5936612612571821 [Eh]
	-----------------------------------------------------------

  Dipole Moment: [D]
     X:    -0.8247      Y:     2.3547      Z:    -1.4936     Total:     2.9078

*** Psi4 exiting successfully. Buy a developer a beer!
