                               Psi4 1.3.2 release

  ==> Input File <==

--------------------------------------------------------------------------
#psi4
#
memory 32 gb

molecule  {
0 1
  O        0.3935890    -1.1834810     0.6928250
  C       -1.1363630     0.3083220    -0.3952430
  C        0.2683031    -0.1645171    -0.0567018
  C        1.4343240     0.6136100    -0.5100380
  C       -1.6230330     1.2650800     0.7040440
  C       -2.1008890    -0.8571740    -0.5744690
  C        2.7660710     0.0938090     0.0047360
  H       -1.0184623     0.8649921    -1.3364800
  H        1.2791640     1.6640640    -0.2248860
  H        1.4031030     0.6104820    -1.6083150
  H       -0.9521060     2.1204610     0.8293460
  H       -1.6846230     0.7313890     1.6588270
  H       -2.6168740     1.6507050     0.4584890
  H       -1.7562200    -1.5424760    -1.3562160
  H       -2.1750630    -1.4236530     0.3564710
  H       -3.0946750    -0.4900390    -0.8506910
  H        2.7911150     0.1168120     1.0954440
  H        2.9171760    -0.9417660    -0.3044500
  H        3.5913670     0.6986870    -0.3779970
units angstrom
no_reorient  #important for SAPT in psi4, default
symmetry c1  #important for SAPT in psi4, default
}

set PROPERTIES_ORIGIN ["COM"]
properties('MP2/aug-cc-pvtz', properties = ['dipole'])
--------------------------------------------------------------------------

    Molecular point group: c1
  Charge       = 0
  Multiplicity = 1
  Basis Set: AUG-CC-PVTZ
    Blend: AUG-CC-PVTZ
  Basis Set: (AUG-CC-PVTZ AUX)
    Blend: AUG-CC-PVTZ-JKFIT

    Orbital Energies [Eh]
    ---------------------

    Doubly Occupied:

       1A    -20.536601     2A    -11.327621     3A    -11.243965
       4A    -11.241726     5A    -11.229428     6A    -11.217472
       7A    -11.216109     8A     -1.345781     9A     -1.092857
      10A     -1.054000    11A     -0.937686    12A     -0.914853
      13A     -0.826234    14A     -0.718887    15A     -0.669027
      16A     -0.635011    17A     -0.623060    18A     -0.599782
      19A     -0.567062    20A     -0.555587    21A     -0.543877
      22A     -0.518443    23A     -0.510863    24A     -0.502789
      25A     -0.491646    26A     -0.482796    27A     -0.457730
      28A     -0.407648

  @DF-RHF Final Energy:  -309.16806071763256

   => Energetics <=

    Nuclear Repulsion Energy =            314.7814509549975810
    One-Electron Energy =               -1042.9619431126909603
    Two-Electron Energy =                 419.0124314400608228
    Total Energy =                       -309.1680607176325566
  Basis Set: (AUG-CC-PVTZ AUX)
    Blend: AUG-CC-PVTZ-RI
    Molecular point group: c1

    Geometry (in Angstrom), charge = 0, multiplicity = 1:

       Center              X                  Y                   Z               Mass
    ------------   -----------------  -----------------  -----------------  -----------------
         O            0.390891567339    -1.186191655597     0.698058711839    15.994914619570
         C           -1.139060432661     0.305611344403    -0.390009288161    12.000000000000
         C            0.265605667339    -0.167227755597    -0.051468088161    12.000000000000
         C            1.431626567339     0.610899344403    -0.504804288161    12.000000000000
         C           -1.625730432661     1.262369344403     0.709277711839    12.000000000000
         C           -2.103586432661    -0.859884655597    -0.569235288161    12.000000000000
         C            2.763373567339     0.091098344403     0.009969711839    12.000000000000
         H           -1.021159732661     0.862281444403    -1.331246288161     1.007825032230
         H            1.276466567339     1.661353344403    -0.219652288161     1.007825032230
         H            1.400405567339     0.607771344403    -1.603081288161     1.007825032230
         H           -0.954803432661     2.117750344403     0.834579711839     1.007825032230
         H           -1.687320432661     0.728678344403     1.664060711839     1.007825032230
         H           -2.619571432661     1.647994344403     0.463722711839     1.007825032230
         H           -1.758917432661    -1.545186655597    -1.350982288161     1.007825032230
         H           -2.177760432661    -1.426363655597     0.361704711839     1.007825032230
         H           -3.097372432661    -0.492749655597    -0.845457288161     1.007825032230
         H            2.788417567339     0.114101344403     1.100677711839     1.007825032230
         H            2.914478567339    -0.944476655597    -0.299216288161     1.007825032230
         H            3.588669567339     0.695976344403    -0.372763288161     1.007825032230

  Basis Set: AUG-CC-PVTZ
    Blend: AUG-CC-PVTZ
  Basis Set: (AUG-CC-PVTZ AUX)
    Blend: AUG-CC-PVTZ-JKFIT
	 Reference Energy          =    -309.1680607176325566 [Eh]
	 Singles Energy            =      -0.0000000000000000 [Eh]
	 Same-Spin Energy          =      -0.3184256660783640 [Eh]
	 Opposite-Spin Energy      =      -1.1062522765751552 [Eh]
	 Correlation Energy        =      -1.4246779426535192 [Eh]
	 Total Energy              =    -310.5927386602861020 [Eh]

	 ================> DF-SCS-MP2 Energies <==================
	-----------------------------------------------------------
	 SCS Same-Spin Scale       =       0.3333333333333333 [-]
	 SCS Opposite-Spin Scale   =       1.2000000000000000 [-]
	 SCS Same-Spin Energy      =      -0.1061418886927880 [Eh]
	 SCS Opposite-Spin Energy  =      -1.3275027318901862 [Eh]
	 SCS Correlation Energy    =      -1.4336446205829743 [Eh]
	 SCS Total Energy          =    -310.6017053382155382 [Eh]
	-----------------------------------------------------------

  Dipole Moment: [D]
     X:    -0.2641      Y:     2.3493      Z:    -1.5376     Total:     2.8201

*** Psi4 exiting successfully. Buy a developer a beer!
