                               Psi4 1.3.2 release

  ==> Input File <==

--------------------------------------------------------------------------
#psi4
#
memory 32 gb

molecule  {
0 1
  O        0.4360910    -1.1782831     0.6901463
  C       -1.1136887     0.3477714    -0.4225477
  C        0.2489750    -0.1877140    -0.0130640
  C        1.4343240     0.6136100    -0.5100380
  C       -1.6230330     1.2650800     0.7040440
  C       -2.1008890    -0.8571740    -0.5744690
  C        2.7660710     0.0938090     0.0047360
  H       -1.0562100     0.8719860    -1.3362890
  H        1.2791640     1.6640640    -0.2248860
  H        1.4031030     0.6104820    -1.6083150
  H       -0.9521060     2.1204610     0.8293460
  H       -1.6846230     0.7313890     1.6588270
  H       -2.6168740     1.6507050     0.4584890
  H       -1.7562200    -1.5424760    -1.3562160
  H       -2.1750630    -1.4236530     0.3564710
  H       -3.0946750    -0.4900390    -0.8506910
  H        2.7911150     0.1168120     1.0954440
  H        2.9171760    -0.9417660    -0.3044500
  H        3.5913670     0.6986870    -0.3779970
units angstrom
no_reorient  #important for SAPT in psi4, default
symmetry c1  #important for SAPT in psi4, default
}

set PROPERTIES_ORIGIN ["COM"]
properties('MP2/aug-cc-pvtz', properties = ['dipole'])
--------------------------------------------------------------------------

    Molecular point group: c1
  Charge       = 0
  Multiplicity = 1
  Basis Set: AUG-CC-PVTZ
    Blend: AUG-CC-PVTZ
  Basis Set: (AUG-CC-PVTZ AUX)
    Blend: AUG-CC-PVTZ-JKFIT

    Orbital Energies [Eh]
    ---------------------

    Doubly Occupied:

       1A    -20.541482     2A    -11.325399     3A    -11.242579
       4A    -11.235979     5A    -11.230174     6A    -11.218661
       7A    -11.213230     8A     -1.372931     9A     -1.090745
      10A     -1.044099    11A     -0.934729    12A     -0.907683
      13A     -0.824556    14A     -0.726058    15A     -0.673618
      16A     -0.631075    17A     -0.621067    18A     -0.605876
      19A     -0.567114    20A     -0.552171    21A     -0.544903
      22A     -0.518954    23A     -0.512537    24A     -0.505613
      25A     -0.491963    26A     -0.487715    27A     -0.465312
      28A     -0.401018

  @DF-RHF Final Energy:  -309.17332867899870

   => Energetics <=

    Nuclear Repulsion Energy =            314.7278201643629814
    One-Electron Energy =               -1042.8278164646128516
    Two-Electron Energy =                 418.9266676212511129
    Total Energy =                       -309.1733286789987005
  Basis Set: (AUG-CC-PVTZ AUX)
    Blend: AUG-CC-PVTZ-RI
    Molecular point group: c1

    Geometry (in Angstrom), charge = 0, multiplicity = 1:

       Center              X                  Y                   Z               Mass
    ------------   -----------------  -----------------  -----------------  -----------------
         O            0.426580346660    -1.183843410618     0.693847931389    15.994914619570
         C           -1.123199353340     0.342211089382    -0.418846068611    12.000000000000
         C            0.239464346660    -0.193274310618    -0.009362368611    12.000000000000
         C            1.424813346660     0.608049689382    -0.506336368611    12.000000000000
         C           -1.632543653340     1.259519689382     0.707745631389    12.000000000000
         C           -2.110399653340    -0.862734310618    -0.570767368611    12.000000000000
         C            2.756560346660     0.088248689382     0.008437631389    12.000000000000
         H           -1.065720653340     0.866425689382    -1.332587368611     1.007825032230
         H            1.269653346660     1.658503689382    -0.221184368611     1.007825032230
         H            1.393592346660     0.604921689382    -1.604613368611     1.007825032230
         H           -0.961616653340     2.114900689382     0.833047631389     1.007825032230
         H           -1.694133653340     0.725828689382     1.662528631389     1.007825032230
         H           -2.626384653340     1.645144689382     0.462190631389     1.007825032230
         H           -1.765730653340    -1.548036310618    -1.352514368611     1.007825032230
         H           -2.184573653340    -1.429213310618     0.360172631389     1.007825032230
         H           -3.104185653340    -0.495599310618    -0.846989368611     1.007825032230
         H            2.781604346660     0.111251689382     1.099145631389     1.007825032230
         H            2.907665346660    -0.947326310618    -0.300748368611     1.007825032230
         H            3.581856346660     0.693126689382    -0.374295368611     1.007825032230

  Basis Set: AUG-CC-PVTZ
    Blend: AUG-CC-PVTZ
  Basis Set: (AUG-CC-PVTZ AUX)
    Blend: AUG-CC-PVTZ-JKFIT
	 Reference Energy          =    -309.1733286789987005 [Eh]
	 Singles Energy            =      -0.0000000000000000 [Eh]
	 Same-Spin Energy          =      -0.3169828524448087 [Eh]
	 Opposite-Spin Energy      =      -1.1035469905556541 [Eh]
	 Correlation Energy        =      -1.4205298430004629 [Eh]
	 Total Energy              =    -310.5938585219991523 [Eh]

	 ================> DF-SCS-MP2 Energies <==================
	-----------------------------------------------------------
	 SCS Same-Spin Scale       =       0.3333333333333333 [-]
	 SCS Opposite-Spin Scale   =       1.2000000000000000 [-]
	 SCS Same-Spin Energy      =      -0.1056609508149362 [Eh]
	 SCS Opposite-Spin Energy  =      -1.3242563886667849 [Eh]
	 SCS Correlation Energy    =      -1.4299173394817211 [Eh]
	 SCS Total Energy          =    -310.6032460184804336 [Eh]
	-----------------------------------------------------------

  Dipole Moment: [D]
     X:    -0.5166      Y:     2.2212      Z:    -1.4522     Total:     2.7036

*** Psi4 exiting successfully. Buy a developer a beer!
