                               Psi4 1.3.2 release

  ==> Input File <==

--------------------------------------------------------------------------
#psi4
#
memory 32 gb

molecule  {
0 1
  O        0.3829340    -1.1845911     0.6933604
  C       -1.1417689     0.2983633    -0.3883428
  C        0.2489750    -0.1877140    -0.0130640
  C        1.4343240     0.6136100    -0.5100380
  C       -1.6230330     1.2650800     0.7040440
  C       -2.1008890    -0.8571740    -0.5744690
  C        2.7660710     0.0938090     0.0047360
  H       -1.0562100     0.8719860    -1.3362890
  H        1.2791640     1.6640640    -0.2248860
  H        1.4031030     0.6104820    -1.6083150
  H       -0.9521060     2.1204610     0.8293460
  H       -1.6846230     0.7313890     1.6588270
  H       -2.6168740     1.6507050     0.4584890
  H       -1.7562200    -1.5424760    -1.3562160
  H       -2.1750630    -1.4236530     0.3564710
  H       -3.0946750    -0.4900390    -0.8506910
  H        2.7911150     0.1168120     1.0954440
  H        2.9171760    -0.9417660    -0.3044500
  H        3.5913670     0.6986870    -0.3779970
units angstrom
no_reorient  #important for SAPT in psi4, default
symmetry c1  #important for SAPT in psi4, default
}

set PROPERTIES_ORIGIN ["COM"]
properties('MP2/aug-cc-pvtz', properties = ['dipole'])
--------------------------------------------------------------------------

    Molecular point group: c1
  Charge       = 0
  Multiplicity = 1
  Basis Set: AUG-CC-PVTZ
    Blend: AUG-CC-PVTZ
  Basis Set: (AUG-CC-PVTZ AUX)
    Blend: AUG-CC-PVTZ-JKFIT

    Orbital Energies [Eh]
    ---------------------

    Doubly Occupied:

       1A    -20.540444     2A    -11.324680     3A    -11.241974
       4A    -11.240084     5A    -11.228416     6A    -11.215907
       7A    -11.215123     8A     -1.373079     9A     -1.091296
      10A     -1.048122    11A     -0.938530    12A     -0.907358
      13A     -0.822378    14A     -0.719518    15A     -0.672187
      16A     -0.632370    17A     -0.624277    18A     -0.606640
      19A     -0.568685    20A     -0.552400    21A     -0.544317
      22A     -0.520371    23A     -0.512411    24A     -0.506125
      25A     -0.493939    26A     -0.478780    27A     -0.469906
      28A     -0.402013

  @DF-RHF Final Energy:  -309.17626638231587

   => Energetics <=

    Nuclear Repulsion Energy =            315.1277885963609720
    One-Electron Energy =               -1043.6254490055694077
    Two-Electron Energy =                 419.3213940268926194
    Total Energy =                       -309.1762663823158732
  Basis Set: (AUG-CC-PVTZ AUX)
    Blend: AUG-CC-PVTZ-RI
    Molecular point group: c1

    Geometry (in Angstrom), charge = 0, multiplicity = 1:

       Center              X                  Y                   Z               Mass
    ------------   -----------------  -----------------  -----------------  -----------------
         O            0.385284852627    -1.183219635860     0.692447449279    15.994914619570
         C           -1.139418047373     0.299734764140    -0.389255750721    12.000000000000
         C            0.251325852627    -0.186342535860    -0.013976950721    12.000000000000
         C            1.436674852627     0.614981464140    -0.510950950721    12.000000000000
         C           -1.620682147373     1.266451464140     0.703131049279    12.000000000000
         C           -2.098538147373    -0.855802535860    -0.575381950721    12.000000000000
         C            2.768421852627     0.095180464140     0.003823049279    12.000000000000
         H           -1.053859147373     0.873357464140    -1.337201950721     1.007825032230
         H            1.281514852627     1.665435464140    -0.225798950721     1.007825032230
         H            1.405453852627     0.611853464140    -1.609227950721     1.007825032230
         H           -0.949755147373     2.121832464140     0.828433049279     1.007825032230
         H           -1.682272147373     0.732760464140     1.657914049279     1.007825032230
         H           -2.614523147373     1.652076464140     0.457576049279     1.007825032230
         H           -1.753869147373    -1.541104535860    -1.357128950721     1.007825032230
         H           -2.172712147373    -1.422281535860     0.355558049279     1.007825032230
         H           -3.092324147373    -0.488667535860    -0.851603950721     1.007825032230
         H            2.793465852627     0.118183464140     1.094531049279     1.007825032230
         H            2.919526852627    -0.940394535860    -0.305362950721     1.007825032230
         H            3.593717852627     0.700058464140    -0.378909950721     1.007825032230

  Basis Set: AUG-CC-PVTZ
    Blend: AUG-CC-PVTZ
  Basis Set: (AUG-CC-PVTZ AUX)
    Blend: AUG-CC-PVTZ-JKFIT
	 Reference Energy          =    -309.1762663823158732 [Eh]
	 Singles Energy            =      -0.0000000000000000 [Eh]
	 Same-Spin Energy          =      -0.3171144838518737 [Eh]
	 Opposite-Spin Energy      =      -1.1035752607395186 [Eh]
	 Correlation Energy        =      -1.4206897445913924 [Eh]
	 Total Energy              =    -310.5969561269072869 [Eh]

	 ================> DF-SCS-MP2 Energies <==================
	-----------------------------------------------------------
	 SCS Same-Spin Scale       =       0.3333333333333333 [-]
	 SCS Opposite-Spin Scale   =       1.2000000000000000 [-]
	 SCS Same-Spin Energy      =      -0.1057048279506246 [Eh]
	 SCS Opposite-Spin Energy  =      -1.3242903128874224 [Eh]
	 SCS Correlation Energy    =      -1.4299951408380469 [Eh]
	 SCS Total Energy          =    -310.6062615231539326 [Eh]
	-----------------------------------------------------------

  Dipole Moment: [D]
     X:    -0.3312      Y:     2.2192      Z:    -1.4526     Total:     2.6729

*** Psi4 exiting successfully. Buy a developer a beer!
