                               Psi4 1.3.2 release

  ==> Input File <==

--------------------------------------------------------------------------
#psi4
#
memory 32 gb

molecule  {
0 1
  O        0.3935890    -1.1834810     0.6928250
  C       -1.1363630     0.3083220    -0.3952430
  C        0.2208491    -0.2621153    -0.0159668
  C        1.4343240     0.6136100    -0.5100380
  C       -1.6230330     1.2650800     0.7040440
  C       -2.0410785    -0.9067283    -0.5563511
  C        2.7660710     0.0938090     0.0047360
  H       -1.0562100     0.8719860    -1.3362890
  H        1.2791640     1.6640640    -0.2248860
  H        1.4031030     0.6104820    -1.6083150
  H       -0.9521060     2.1204610     0.8293460
  H       -1.6846230     0.7313890     1.6588270
  H       -2.6168740     1.6507050     0.4584890
  H       -1.7562200    -1.5424760    -1.3562160
  H       -2.1750630    -1.4236530     0.3564710
  H       -3.0946750    -0.4900390    -0.8506910
  H        2.7911150     0.1168120     1.0954440
  H        2.9171760    -0.9417660    -0.3044500
  H        3.5913670     0.6986870    -0.3779970
units angstrom
no_reorient  #important for SAPT in psi4, default
symmetry c1  #important for SAPT in psi4, default
}

set PROPERTIES_ORIGIN ["COM"]
properties('MP2/aug-cc-pvtz', properties = ['dipole'])
--------------------------------------------------------------------------

    Molecular point group: c1
  Charge       = 0
  Multiplicity = 1
  Basis Set: AUG-CC-PVTZ
    Blend: AUG-CC-PVTZ
  Basis Set: (AUG-CC-PVTZ AUX)
    Blend: AUG-CC-PVTZ-JKFIT

    Orbital Energies [Eh]
    ---------------------

    Doubly Occupied:

       1A    -20.545668     2A    -11.319905     3A    -11.241146
       4A    -11.233950     5A    -11.229848     6A    -11.217176
       7A    -11.211993     8A     -1.411623     9A     -1.090270
      10A     -1.037066    11A     -0.940369    12A     -0.897464
      13A     -0.818980    14A     -0.722971    15A     -0.676515
      16A     -0.631485    17A     -0.628576    18A     -0.615312
      19A     -0.570626    20A     -0.555421    21A     -0.539586
      22A     -0.526547    23A     -0.513878    24A     -0.499148
      25A     -0.493667    26A     -0.487104    27A     -0.481718
      28A     -0.385763

  @DF-RHF Final Energy:  -309.16768807178380

   => Energetics <=

    Nuclear Repulsion Energy =            315.7439254141332299
    One-Electron Energy =               -1044.7756794315839670
    Two-Electron Energy =                 419.8640659456669937
    Total Energy =                       -309.1676880717838003
  Basis Set: (AUG-CC-PVTZ AUX)
    Blend: AUG-CC-PVTZ-RI
    Molecular point group: c1

    Geometry (in Angstrom), charge = 0, multiplicity = 1:

       Center              X                  Y                   Z               Mass
    ------------   -----------------  -----------------  -----------------  -----------------
         O            0.389790196292    -1.168619448629     0.691000707460    15.994914619570
         C           -1.140161803708     0.323183551371    -0.397067292540    12.000000000000
         C            0.217050296292    -0.247253748629    -0.017791092540    12.000000000000
         C            1.430525196292     0.628471551371    -0.511862292540    12.000000000000
         C           -1.626831803708     1.279941551371     0.702219707460    12.000000000000
         C           -2.044877303708    -0.891866748629    -0.558175392540    12.000000000000
         C            2.762272196292     0.108670551371     0.002911707460    12.000000000000
         H           -1.060008803708     0.886847551371    -1.338113292540     1.007825032230
         H            1.275365196292     1.678925551371    -0.226710292540     1.007825032230
         H            1.399304196292     0.625343551371    -1.610139292540     1.007825032230
         H           -0.955904803708     2.135322551371     0.827521707460     1.007825032230
         H           -1.688421803708     0.746250551371     1.657002707460     1.007825032230
         H           -2.620672803708     1.665566551371     0.456664707460     1.007825032230
         H           -1.760018803708    -1.527614448629    -1.358040292540     1.007825032230
         H           -2.178861803708    -1.408791448629     0.354646707460     1.007825032230
         H           -3.098473803708    -0.475177448629    -0.852515292540     1.007825032230
         H            2.787316196292     0.131673551371     1.093619707460     1.007825032230
         H            2.913377196292    -0.926904448629    -0.306274292540     1.007825032230
         H            3.587568196292     0.713548551371    -0.379821292540     1.007825032230

  Basis Set: AUG-CC-PVTZ
    Blend: AUG-CC-PVTZ
  Basis Set: (AUG-CC-PVTZ AUX)
    Blend: AUG-CC-PVTZ-JKFIT
	 Reference Energy          =    -309.1676880717838003 [Eh]
	 Singles Energy            =      -0.0000000000000000 [Eh]
	 Same-Spin Energy          =      -0.3158752189990088 [Eh]
	 Opposite-Spin Energy      =      -1.1011670850454223 [Eh]
	 Correlation Energy        =      -1.4170423040444311 [Eh]
	 Total Energy              =    -310.5847303758282578 [Eh]

	 ================> DF-SCS-MP2 Energies <==================
	-----------------------------------------------------------
	 SCS Same-Spin Scale       =       0.3333333333333333 [-]
	 SCS Opposite-Spin Scale   =       1.2000000000000000 [-]
	 SCS Same-Spin Energy      =      -0.1052917396663363 [Eh]
	 SCS Opposite-Spin Energy  =      -1.3214005020545068 [Eh]
	 SCS Correlation Energy    =      -1.4266922417208430 [Eh]
	 SCS Total Energy          =    -310.5943803135046437 [Eh]
	-----------------------------------------------------------

  Dipole Moment: [D]
     X:    -0.5146      Y:     1.9837      Z:    -1.3020     Total:     2.4279

*** Psi4 exiting successfully. Buy a developer a beer!
