                               Psi4 1.3.2 release

  ==> Input File <==

--------------------------------------------------------------------------
#psi4
#
memory 32 gb

molecule  {
0 1
  O        0.4572067    -1.1742748     0.6898455
  C       -1.1363630     0.3083220    -0.3952430
  C        0.2489750    -0.1877140    -0.0130640
  C        1.4819211     0.5629250    -0.4719110
  C       -1.6230330     1.2650800     0.7040440
  C       -2.1008890    -0.8571740    -0.5744690
  C        2.7660710     0.0938090     0.0047360
  H       -1.0562100     0.8719860    -1.3362890
  H        1.2791640     1.6640640    -0.2248860
  H        1.4031030     0.6104820    -1.6083150
  H       -0.9521060     2.1204610     0.8293460
  H       -1.6846230     0.7313890     1.6588270
  H       -2.6168740     1.6507050     0.4584890
  H       -1.7562200    -1.5424760    -1.3562160
  H       -2.1750630    -1.4236530     0.3564710
  H       -3.0946750    -0.4900390    -0.8506910
  H        2.7911150     0.1168120     1.0954440
  H        2.9171760    -0.9417660    -0.3044500
  H        3.5913670     0.6986870    -0.3779970
units angstrom
no_reorient  #important for SAPT in psi4, default
symmetry c1  #important for SAPT in psi4, default
}

set PROPERTIES_ORIGIN ["COM"]
properties('MP2/aug-cc-pvtz', properties = ['dipole'])
--------------------------------------------------------------------------

    Molecular point group: c1
  Charge       = 0
  Multiplicity = 1
  Basis Set: AUG-CC-PVTZ
    Blend: AUG-CC-PVTZ
  Basis Set: (AUG-CC-PVTZ AUX)
    Blend: AUG-CC-PVTZ-JKFIT

    Orbital Energies [Eh]
    ---------------------

    Doubly Occupied:

       1A    -20.537849     2A    -11.324180     3A    -11.247043
       4A    -11.240928     5A    -11.230357     6A    -11.218737
       7A    -11.210441     8A     -1.372753     9A     -1.092920
      10A     -1.055869    11A     -0.939970    12A     -0.907876
      13A     -0.820814    14A     -0.718073    15A     -0.673302
      16A     -0.627138    17A     -0.625638    18A     -0.606501
      19A     -0.571556    20A     -0.563108    21A     -0.546813
      22A     -0.521097    23A     -0.510900    24A     -0.506549
      25A     -0.488979    26A     -0.480259    27A     -0.461819
      28A     -0.401108

  @DF-RHF Final Energy:  -309.16738895228195

   => Energetics <=

    Nuclear Repulsion Energy =            315.4088801717713864
    One-Electron Energy =               -1044.1473822568095784
    Two-Electron Energy =                 419.5711131327561816
    Total Energy =                       -309.1673889522819536
  Basis Set: (AUG-CC-PVTZ AUX)
    Blend: AUG-CC-PVTZ-RI
    Molecular point group: c1

    Geometry (in Angstrom), charge = 0, multiplicity = 1:

       Center              X                  Y                   Z               Mass
    ------------   -----------------  -----------------  -----------------  -----------------
         O            0.441333523349    -1.169669135692     0.685750364791    15.994914619570
         C           -1.152236176651     0.312927664308    -0.399338135209    12.000000000000
         C            0.233101823349    -0.183108335692    -0.017159135209    12.000000000000
         C            1.466047923349     0.567530664308    -0.476006135209    12.000000000000
         C           -1.638906176651     1.269685664308     0.699948864791    12.000000000000
         C           -2.116762176651    -0.852568335692    -0.578564135209    12.000000000000
         C            2.750197823349     0.098414664308     0.000640864791    12.000000000000
         H           -1.072083176651     0.876591664308    -1.340384135209     1.007825032230
         H            1.263290823349     1.668669664308    -0.228981135209     1.007825032230
         H            1.387229823349     0.615087664308    -1.612410135209     1.007825032230
         H           -0.967979176651     2.125066664308     0.825250864791     1.007825032230
         H           -1.700496176651     0.735994664308     1.654731864791     1.007825032230
         H           -2.632747176651     1.655310664308     0.454393864791     1.007825032230
         H           -1.772093176651    -1.537870335692    -1.360311135209     1.007825032230
         H           -2.190936176651    -1.419047335692     0.352375864791     1.007825032230
         H           -3.110548176651    -0.485433335692    -0.854786135209     1.007825032230
         H            2.775241823349     0.121417664308     1.091348864791     1.007825032230
         H            2.901302823349    -0.937160335692    -0.308545135209     1.007825032230
         H            3.575493823349     0.703292664308    -0.382092135209     1.007825032230

  Basis Set: AUG-CC-PVTZ
    Blend: AUG-CC-PVTZ
  Basis Set: (AUG-CC-PVTZ AUX)
    Blend: AUG-CC-PVTZ-JKFIT
	 Reference Energy          =    -309.1673889522819536 [Eh]
	 Singles Energy            =      -0.0000000000000000 [Eh]
	 Same-Spin Energy          =      -0.3177816896919463 [Eh]
	 Opposite-Spin Energy      =      -1.1042992518955175 [Eh]
	 Correlation Energy        =      -1.4220809415874638 [Eh]
	 Total Energy              =    -310.5894698938694205 [Eh]

	 ================> DF-SCS-MP2 Energies <==================
	-----------------------------------------------------------
	 SCS Same-Spin Scale       =       0.3333333333333333 [-]
	 SCS Opposite-Spin Scale   =       1.2000000000000000 [-]
	 SCS Same-Spin Energy      =      -0.1059272298973154 [Eh]
	 SCS Opposite-Spin Energy  =      -1.3251591022746210 [Eh]
	 SCS Correlation Energy    =      -1.4310863321719365 [Eh]
	 SCS Total Energy          =    -310.5984752844539116 [Eh]
	-----------------------------------------------------------

  Dipole Moment: [D]
     X:    -0.5335      Y:     2.1917      Z:    -1.4375     Total:     2.6748

*** Psi4 exiting successfully. Buy a developer a beer!
