                               Psi4 1.3.2 release

  ==> Input File <==

--------------------------------------------------------------------------
#psi4
#
memory 32 gb

molecule  {
0 1
  O        0.3935890    -1.1834810     0.6928250
  C       -1.1363630     0.3083220    -0.3952430
  C        0.2489750    -0.1877140    -0.0130640
  C        1.5125831     0.6665150    -0.5428492
  C       -1.6230330     1.2650800     0.7040440
  C       -2.1008890    -0.8571740    -0.5744690
  C        2.7660710     0.0938090     0.0047360
  H       -1.0562100     0.8719860    -1.3362890
  H        1.2791640     1.6640640    -0.2248860
  H        1.4031030     0.6104820    -1.6083150
  H       -0.9521060     2.1204610     0.8293460
  H       -1.6846230     0.7313890     1.6588270
  H       -2.6168740     1.6507050     0.4584890
  H       -1.7562200    -1.5424760    -1.3562160
  H       -2.1750630    -1.4236530     0.3564710
  H       -3.0946750    -0.4900390    -0.8506910
  H        2.7911150     0.1168120     1.0954440
  H        2.9171760    -0.9417660    -0.3044500
  H        3.5913670     0.6986870    -0.3779970
units angstrom
no_reorient  #important for SAPT in psi4, default
symmetry c1  #important for SAPT in psi4, default
}

set PROPERTIES_ORIGIN ["COM"]
properties('MP2/aug-cc-pvtz', properties = ['dipole'])
--------------------------------------------------------------------------

    Molecular point group: c1
  Charge       = 0
  Multiplicity = 1
  Basis Set: AUG-CC-PVTZ
    Blend: AUG-CC-PVTZ
  Basis Set: (AUG-CC-PVTZ AUX)
    Blend: AUG-CC-PVTZ-JKFIT

    Orbital Energies [Eh]
    ---------------------

    Doubly Occupied:

       1A    -20.541948     2A    -11.327265     3A    -11.242604
       4A    -11.238201     5A    -11.229137     6A    -11.216095
       7A    -11.213165     8A     -1.371405     9A     -1.088961
      10A     -1.049037    11A     -0.937954    12A     -0.899429
      13A     -0.824371    14A     -0.718122    15A     -0.665914
      16A     -0.636797    17A     -0.622793    18A     -0.605029
      19A     -0.569510    20A     -0.552860    21A     -0.544768
      22A     -0.520851    23A     -0.515492    24A     -0.510168
      25A     -0.496882    26A     -0.481808    27A     -0.471821
      28A     -0.388828

  @DF-RHF Final Energy:  -309.16858961251103

   => Energetics <=

    Nuclear Repulsion Energy =            313.8061234109736688
    One-Electron Energy =               -1040.9869968921784675
    Two-Electron Energy =                 418.0122838686937712
    Total Energy =                       -309.1685896125110276
  Basis Set: (AUG-CC-PVTZ AUX)
    Blend: AUG-CC-PVTZ-RI
    Molecular point group: c1

    Geometry (in Angstrom), charge = 0, multiplicity = 1:

       Center              X                  Y                   Z               Mass
    ------------   -----------------  -----------------  -----------------  -----------------
         O            0.384206215704    -1.189823887905     0.696758749455    15.994914619570
         C           -1.145745784296     0.301979112095    -0.391309250545    12.000000000000
         C            0.239592215704    -0.194056887905    -0.009130250545    12.000000000000
         C            1.503200315704     0.660172112095    -0.538915450545    12.000000000000
         C           -1.632415784296     1.258737112095     0.707977749455    12.000000000000
         C           -2.110271784296    -0.863516887905    -0.570535250545    12.000000000000
         C            2.756688215704     0.087466112095     0.008669749455    12.000000000000
         H           -1.065592784296     0.865643112095    -1.332355250545     1.007825032230
         H            1.269781215704     1.657721112095    -0.220952250545     1.007825032230
         H            1.393720215704     0.604139112095    -1.604381250545     1.007825032230
         H           -0.961488784296     2.114118112095     0.833279749455     1.007825032230
         H           -1.694005784296     0.725046112095     1.662760749455     1.007825032230
         H           -2.626256784296     1.644362112095     0.462422749455     1.007825032230
         H           -1.765602784296    -1.548818887905    -1.352282250545     1.007825032230
         H           -2.184445784296    -1.429995887905     0.360404749455     1.007825032230
         H           -3.104057784296    -0.496381887905    -0.846757250545     1.007825032230
         H            2.781732215704     0.110469112095     1.099377749455     1.007825032230
         H            2.907793215704    -0.948108887905    -0.300516250545     1.007825032230
         H            3.581984215704     0.692344112095    -0.374063250545     1.007825032230

  Basis Set: AUG-CC-PVTZ
    Blend: AUG-CC-PVTZ
  Basis Set: (AUG-CC-PVTZ AUX)
    Blend: AUG-CC-PVTZ-JKFIT
	 Reference Energy          =    -309.1685896125110276 [Eh]
	 Singles Energy            =      -0.0000000000000000 [Eh]
	 Same-Spin Energy          =      -0.3172183584233661 [Eh]
	 Opposite-Spin Energy      =      -1.1040663294968933 [Eh]
	 Correlation Energy        =      -1.4212846879202594 [Eh]
	 Total Energy              =    -310.5898743004312905 [Eh]

	 ================> DF-SCS-MP2 Energies <==================
	-----------------------------------------------------------
	 SCS Same-Spin Scale       =       0.3333333333333333 [-]
	 SCS Opposite-Spin Scale   =       1.2000000000000000 [-]
	 SCS Same-Spin Energy      =      -0.1057394528077887 [Eh]
	 SCS Opposite-Spin Energy  =      -1.3248795953962720 [Eh]
	 SCS Correlation Energy    =      -1.4306190482040606 [Eh]
	 SCS Total Energy          =    -310.5992086607150782 [Eh]
	-----------------------------------------------------------

  Dipole Moment: [D]
     X:    -0.4793      Y:     2.1358      Z:    -1.3932     Total:     2.5947

*** Psi4 exiting successfully. Buy a developer a beer!
