                               Psi4 1.3.2 release

  ==> Input File <==

--------------------------------------------------------------------------
#psi4
#
memory 32 gb

molecule  {
0 1
  O        0.4572597    -1.1752312     0.6884855
  C       -1.1017271     0.3672545    -0.4360150
  C        0.2489750    -0.1877140    -0.0130640
  C        1.4343240     0.6136100    -0.5100380
  C       -1.6230330     1.2650800     0.7040440
  C       -2.1008890    -0.8571740    -0.5744690
  C        2.7660710     0.0938090     0.0047360
  H       -1.0562100     0.8719860    -1.3362890
  H        1.2791640     1.6640640    -0.2248860
  H        1.4031030     0.6104820    -1.6083150
  H       -0.9521060     2.1204610     0.8293460
  H       -1.6846230     0.7313890     1.6588270
  H       -2.6168740     1.6507050     0.4584890
  H       -1.7562200    -1.5424760    -1.3562160
  H       -2.1750630    -1.4236530     0.3564710
  H       -3.0946750    -0.4900390    -0.8506910
  H        2.7911150     0.1168120     1.0954440
  H        2.9171760    -0.9417660    -0.3044500
  H        3.5913670     0.6986870    -0.3779970
units angstrom
no_reorient  #important for SAPT in psi4, default
symmetry c1  #important for SAPT in psi4, default
}

set PROPERTIES_ORIGIN ["COM"]
properties('MP2/aug-cc-pvtz', properties = ['dipole'])
--------------------------------------------------------------------------

    Molecular point group: c1
  Charge       = 0
  Multiplicity = 1
  Basis Set: AUG-CC-PVTZ
    Blend: AUG-CC-PVTZ
  Basis Set: (AUG-CC-PVTZ AUX)
    Blend: AUG-CC-PVTZ-JKFIT

    Orbital Energies [Eh]
    ---------------------

    Doubly Occupied:

       1A    -20.541917     2A    -11.325864     3A    -11.243142
       4A    -11.234326     5A    -11.231073     6A    -11.220100
       7A    -11.212155     8A     -1.373053     9A     -1.090709
      10A     -1.042535    11A     -0.933362    12A     -0.907870
      13A     -0.825665    14A     -0.729178    15A     -0.674160
      16A     -0.630643    17A     -0.620069    18A     -0.605389
      19A     -0.566974    20A     -0.552110    21A     -0.545116
      22A     -0.519386    23A     -0.513303    24A     -0.505935
      25A     -0.494897    26A     -0.485819    27A     -0.461938
      28A     -0.400074

  @DF-RHF Final Energy:  -309.16872279750817

   => Energetics <=

    Nuclear Repulsion Energy =            314.5866898961726292
    One-Electron Energy =               -1042.5372988702467865
    Two-Electron Energy =                 418.7818861765659904
    Total Energy =                       -309.1687227975081669
  Basis Set: (AUG-CC-PVTZ AUX)
    Blend: AUG-CC-PVTZ-RI
    Molecular point group: c1

    Geometry (in Angstrom), charge = 0, multiplicity = 1:

       Center              X                  Y                   Z               Mass
    ------------   -----------------  -----------------  -----------------  -----------------
         O            0.442932017413    -1.183615123625     0.694067181164    15.994914619570
         C           -1.116054782587     0.358870576375    -0.430433318836    12.000000000000
         C            0.234647317413    -0.196097923625    -0.007482318836    12.000000000000
         C            1.419996317413     0.605226076375    -0.504456318836    12.000000000000
         C           -1.637360682587     1.256696076375     0.709625681164    12.000000000000
         C           -2.115216682587    -0.865557923625    -0.568887318836    12.000000000000
         C            2.751743317413     0.085425076375     0.010317681164    12.000000000000
         H           -1.070537682587     0.863602076375    -1.330707318836     1.007825032230
         H            1.264836317413     1.655680076375    -0.219304318836     1.007825032230
         H            1.388775317413     0.602098076375    -1.602733318836     1.007825032230
         H           -0.966433682587     2.112077076375     0.834927681164     1.007825032230
         H           -1.698950682587     0.723005076375     1.664408681164     1.007825032230
         H           -2.631201682587     1.642321076375     0.464070681164     1.007825032230
         H           -1.770547682587    -1.550859923625    -1.350634318836     1.007825032230
         H           -2.189390682587    -1.432036923625     0.362052681164     1.007825032230
         H           -3.109002682587    -0.498422923625    -0.845109318836     1.007825032230
         H            2.776787317413     0.108428076375     1.101025681164     1.007825032230
         H            2.902848317413    -0.950149923625    -0.298868318836     1.007825032230
         H            3.577039317413     0.690303076375    -0.372415318836     1.007825032230

  Basis Set: AUG-CC-PVTZ
    Blend: AUG-CC-PVTZ
  Basis Set: (AUG-CC-PVTZ AUX)
    Blend: AUG-CC-PVTZ-JKFIT
	 Reference Energy          =    -309.1687227975081669 [Eh]
	 Singles Energy            =      -0.0000000000000000 [Eh]
	 Same-Spin Energy          =      -0.3170280367530078 [Eh]
	 Opposite-Spin Energy      =      -1.1037659605474031 [Eh]
	 Correlation Energy        =      -1.4207939973004109 [Eh]
	 Total Energy              =    -310.5895167948085600 [Eh]

	 ================> DF-SCS-MP2 Energies <==================
	-----------------------------------------------------------
	 SCS Same-Spin Scale       =       0.3333333333333333 [-]
	 SCS Opposite-Spin Scale   =       1.2000000000000000 [-]
	 SCS Same-Spin Energy      =      -0.1056760122510026 [Eh]
	 SCS Opposite-Spin Energy  =      -1.3245191526568836 [Eh]
	 SCS Correlation Energy    =      -1.4301951649078861 [Eh]
	 SCS Total Energy          =    -310.5989179624160670 [Eh]
	-----------------------------------------------------------

  Dipole Moment: [D]
     X:    -0.5910      Y:     2.2178      Z:    -1.4472     Total:     2.7133

*** Psi4 exiting successfully. Buy a developer a beer!
