                               Psi4 1.4a3.dev225

  ==> Input File <==

--------------------------------------------------------------------------
#psi4
#
memory 32 gb

molecule  {
0 1
  O        0.3867680    -1.0807900     0.9052720
  C       -1.1214160     0.2406750    -0.4118090
  C        0.2403424    -0.2172071     0.0271905
  C        1.4564740     0.4415910    -0.6154860
  C       -1.6022690     1.3118620     0.5765650
  C       -2.0946590    -0.9328810    -0.4718410
  C        2.7794930     0.0533630     0.0271350
  H       -1.0310200     0.6977280    -1.4061650
  H        1.3003680     1.5285790    -0.5907700
  H        1.4393040     0.1721120    -1.6810660
  H       -0.9145280     2.1623330     0.6220120
  H       -1.6816780     0.8793070     1.5782240
  H       -2.5863060     1.6880250     0.2813590
  H       -1.7648280    -1.6840550    -1.1955420
  H       -2.1566630    -1.4129490     0.5070730
  H       -3.0917530    -0.5897300    -0.7635520
  H        2.7964250     0.3427930     1.0801170
  H        2.9252090    -1.0274260    -0.0178250
  H        3.6147550     0.5417630    -0.4816370
units angstrom
no_reorient  #important for SAPT in psi4, default
symmetry c1  #important for SAPT in psi4, default
}

set PROPERTIES_ORIGIN ["COM"]
properties('MP2/aug-cc-pvtz', properties = ['dipole'])
--------------------------------------------------------------------------

    Molecular point group: c1
  Charge       = 0
  Multiplicity = 1
  Basis Set: AUG-CC-PVTZ
    Blend: AUG-CC-PVTZ
  Basis Set: (AUG-CC-PVTZ AUX)
    Blend: AUG-CC-PVTZ-JKFIT

    Orbital Energies [Eh]
    ---------------------

    Doubly Occupied:

       1A    -20.539416     2A    -11.326093     3A    -11.242500
       4A    -11.240126     5A    -11.229092     6A    -11.217385
       7A    -11.215705     8A     -1.365374     9A     -1.093771
      10A     -1.045530    11A     -0.939152    12A     -0.908452
      13A     -0.825207    14A     -0.720340    15A     -0.671378
      16A     -0.631118    17A     -0.623187    18A     -0.602986
      19A     -0.569705    20A     -0.553416    21A     -0.545354
      22A     -0.519096    23A     -0.512076    24A     -0.505250
      25A     -0.492698    26A     -0.482982    27A     -0.466158
      28A     -0.403434

  @DF-RHF Final Energy:  -309.17507870689212

   => Energetics <=

    Nuclear Repulsion Energy =            314.8393001104443556
    One-Electron Energy =               -1043.0547978401555156
    Two-Electron Energy =                 419.0404190228190373
    Total Energy =                       -309.1750787068921227
  Basis Set: (AUG-CC-PVTZ AUX)
    Blend: AUG-CC-PVTZ-RI
    Molecular point group: c1

    Geometry (in Angstrom), charge = 0, multiplicity = 1:

       Center              X                  Y                   Z               Mass
    ------------   -----------------  -----------------  -----------------  -----------------
         O            0.377554317576    -1.048878159909     0.885521042165    15.994914619570
         C           -1.130629682424     0.272586840091    -0.431559957835    12.000000000000
         C            0.231128717576    -0.185295259909     0.007439542165    12.000000000000
         C            1.447260317576     0.473502840091    -0.635236957835    12.000000000000
         C           -1.611482682424     1.343773840091     0.556814042165    12.000000000000
         C           -2.103872682424    -0.900969159909    -0.491591957835    12.000000000000
         C            2.770279317576     0.085274840091     0.007384042165    12.000000000000
         H           -1.040233682424     0.729639840091    -1.425915957835     1.007825032230
         H            1.291154317576     1.560490840091    -0.610520957835     1.007825032230
         H            1.430090317576     0.204023840091    -1.700816957835     1.007825032230
         H           -0.923741682424     2.194244840091     0.602261042165     1.007825032230
         H           -1.690891682424     0.911218840091     1.558473042165     1.007825032230
         H           -2.595519682424     1.719936840091     0.261608042165     1.007825032230
         H           -1.774041682424    -1.652143159909    -1.215292957835     1.007825032230
         H           -2.165876682424    -1.381037159909     0.487322042165     1.007825032230
         H           -3.100966682424    -0.557818159909    -0.783302957835     1.007825032230
         H            2.787211317576     0.374704840091     1.060366042165     1.007825032230
         H            2.915995317576    -0.995514159909    -0.037575957835     1.007825032230
         H            3.605541317576     0.573674840091    -0.501387957835     1.007825032230

  Basis Set: AUG-CC-PVTZ
    Blend: AUG-CC-PVTZ
  Basis Set: (AUG-CC-PVTZ AUX)
    Blend: AUG-CC-PVTZ-JKFIT
	 Reference Energy          =    -309.1750787068921227 [Eh]
	 Singles Energy            =      -0.0000000000000000 [Eh]
	 Same-Spin Energy          =      -0.3173587763180170 [Eh]
	 Opposite-Spin Energy      =      -1.1041964641377673 [Eh]
	 Correlation Energy        =      -1.4215552404557843 [Eh]
	 Total Energy              =    -310.5966339473479252 [Eh]

	 ================> DF-SCS-MP2 Energies <==================
	-----------------------------------------------------------
	 SCS Same-Spin Scale       =       0.3333333333333333 [-]
	 SCS Opposite-Spin Scale   =       1.2000000000000000 [-]
	 SCS Same-Spin Energy      =      -0.1057862587726723 [Eh]
	 SCS Opposite-Spin Energy  =      -1.3250357569653206 [Eh]
	 SCS Correlation Energy    =      -1.4308220157379929 [Eh]
	 SCS Total Energy          =    -310.6059007226301105 [Eh]
	-----------------------------------------------------------

  Dipole Moment: [D]
     X:    -0.4204      Y:     1.9444      Z:    -1.8375     Total:     2.7081

*** Psi4 exiting successfully. Buy a developer a beer!
