                               Psi4 1.3.2 release

  ==> Input File <==

--------------------------------------------------------------------------
#psi4
#
memory 32 gb

molecule  {
0 1
  O        0.4148652    -1.1810334     0.6915930
  C       -1.1252351     0.3281253    -0.4089557
  C        0.2489750    -0.1877140    -0.0130640
  C        1.4343240     0.6136100    -0.5100380
  C       -1.6230330     1.2650800     0.7040440
  C       -2.1008890    -0.8571740    -0.5744690
  C        2.7660710     0.0938090     0.0047360
  H       -1.0562100     0.8719860    -1.3362890
  H        1.2791640     1.6640640    -0.2248860
  H        1.4031030     0.6104820    -1.6083150
  H       -0.9521060     2.1204610     0.8293460
  H       -1.6846230     0.7313890     1.6588270
  H       -2.6168740     1.6507050     0.4584890
  H       -1.7562200    -1.5424760    -1.3562160
  H       -2.1750630    -1.4236530     0.3564710
  H       -3.0946750    -0.4900390    -0.8506910
  H        2.7911150     0.1168120     1.0954440
  H        2.9171760    -0.9417660    -0.3044500
  H        3.5913670     0.6986870    -0.3779970
units angstrom
no_reorient  #important for SAPT in psi4, default
symmetry c1  #important for SAPT in psi4, default
}

set PROPERTIES_ORIGIN ["COM"]
properties('MP2/aug-cc-pvtz', properties = ['dipole'])
--------------------------------------------------------------------------

    Molecular point group: c1
  Charge       = 0
  Multiplicity = 1
  Basis Set: AUG-CC-PVTZ
    Blend: AUG-CC-PVTZ
  Basis Set: (AUG-CC-PVTZ AUX)
    Blend: AUG-CC-PVTZ-JKFIT

    Orbital Energies [Eh]
    ---------------------

    Doubly Occupied:

       1A    -20.541057     2A    -11.325034     3A    -11.242197
       4A    -11.237627     5A    -11.229386     6A    -11.217232
       7A    -11.214303     8A     -1.372907     9A     -1.090881
      10A     -1.045689    11A     -0.936189    12A     -0.907528
      13A     -0.823590    14A     -0.723213    15A     -0.673058
      16A     -0.631558    17A     -0.622255    18A     -0.606231
      19A     -0.567522    20A     -0.552263    21A     -0.544674
      22A     -0.519323    23A     -0.512143    24A     -0.505537
      25A     -0.490048    26A     -0.487256    27A     -0.467993
      28A     -0.401654

  @DF-RHF Final Energy:  -309.17596303330743

   => Energetics <=

    Nuclear Repulsion Energy =            314.8797715760412075
    One-Electron Energy =               -1043.1347718639401592
    Two-Electron Energy =                 419.0790372545915261
    Total Energy =                       -309.1759630333074256
  Basis Set: (AUG-CC-PVTZ AUX)
    Blend: AUG-CC-PVTZ-RI
    Molecular point group: c1

    Geometry (in Angstrom), charge = 0, multiplicity = 1:

       Center              X                  Y                   Z               Mass
    ------------   -----------------  -----------------  -----------------  -----------------
         O            0.410130921110    -1.183798752823     0.693433845616    15.994914619570
         C           -1.129969378890     0.325359947177    -0.407114854384    12.000000000000
         C            0.244240721110    -0.190479352823    -0.011223154384    12.000000000000
         C            1.429589721110     0.610844647177    -0.508197154384    12.000000000000
         C           -1.627767278890     1.262314647177     0.705884845616    12.000000000000
         C           -2.105623278890    -0.859939352823    -0.572628154384    12.000000000000
         C            2.761336721110     0.091043647177     0.006576845616    12.000000000000
         H           -1.060944278890     0.869220647177    -1.334448154384     1.007825032230
         H            1.274429721110     1.661298647177    -0.223045154384     1.007825032230
         H            1.398368721110     0.607716647177    -1.606474154384     1.007825032230
         H           -0.956840278890     2.117695647177     0.831186845616     1.007825032230
         H           -1.689357278890     0.728623647177     1.660667845616     1.007825032230
         H           -2.621608278890     1.647939647177     0.460329845616     1.007825032230
         H           -1.760954278890    -1.545241352823    -1.354375154384     1.007825032230
         H           -2.179797278890    -1.426418352823     0.358311845616     1.007825032230
         H           -3.099409278890    -0.492804352823    -0.848850154384     1.007825032230
         H            2.786380721110     0.114046647177     1.097284845616     1.007825032230
         H            2.912441721110    -0.944531352823    -0.302609154384     1.007825032230
         H            3.586632721110     0.695921647177    -0.376156154384     1.007825032230

  Basis Set: AUG-CC-PVTZ
    Blend: AUG-CC-PVTZ
  Basis Set: (AUG-CC-PVTZ AUX)
    Blend: AUG-CC-PVTZ-JKFIT
	 Reference Energy          =    -309.1759630333074256 [Eh]
	 Singles Energy            =      -0.0000000000000000 [Eh]
	 Same-Spin Energy          =      -0.3169937673654277 [Eh]
	 Opposite-Spin Energy      =      -1.1034607551244453 [Eh]
	 Correlation Energy        =      -1.4204545224898730 [Eh]
	 Total Energy              =    -310.5964175557973022 [Eh]

	 ================> DF-SCS-MP2 Energies <==================
	-----------------------------------------------------------
	 SCS Same-Spin Scale       =       0.3333333333333333 [-]
	 SCS Opposite-Spin Scale   =       1.2000000000000000 [-]
	 SCS Same-Spin Energy      =      -0.1056645891218092 [Eh]
	 SCS Opposite-Spin Energy  =      -1.3241529061493342 [Eh]
	 SCS Correlation Energy    =      -1.4298174952711435 [Eh]
	 SCS Total Energy          =    -310.6057805285785776 [Eh]
	-----------------------------------------------------------

  Dipole Moment: [D]
     X:    -0.4422      Y:     2.2223      Z:    -1.4544     Total:     2.6925

*** Psi4 exiting successfully. Buy a developer a beer!
