                               Psi4 1.3.2 release

  ==> Input File <==

--------------------------------------------------------------------------
#psi4
#
memory 32 gb

molecule  {
0 1
  O        0.3295219    -1.1890015     0.6952297
  C       -1.1672017     0.2480299    -0.3534234
  C        0.2489750    -0.1877140    -0.0130640
  C        1.4343240     0.6136100    -0.5100380
  C       -1.6230330     1.2650800     0.7040440
  C       -2.1008890    -0.8571740    -0.5744690
  C        2.7660710     0.0938090     0.0047360
  H       -1.0562100     0.8719860    -1.3362890
  H        1.2791640     1.6640640    -0.2248860
  H        1.4031030     0.6104820    -1.6083150
  H       -0.9521060     2.1204610     0.8293460
  H       -1.6846230     0.7313890     1.6588270
  H       -2.6168740     1.6507050     0.4584890
  H       -1.7562200    -1.5424760    -1.3562160
  H       -2.1750630    -1.4236530     0.3564710
  H       -3.0946750    -0.4900390    -0.8506910
  H        2.7911150     0.1168120     1.0954440
  H        2.9171760    -0.9417660    -0.3044500
  H        3.5913670     0.6986870    -0.3779970
units angstrom
no_reorient  #important for SAPT in psi4, default
symmetry c1  #important for SAPT in psi4, default
}

set PROPERTIES_ORIGIN ["COM"]
properties('MP2/aug-cc-pvtz', properties = ['dipole'])
--------------------------------------------------------------------------

    Molecular point group: c1
  Charge       = 0
  Multiplicity = 1
  Basis Set: AUG-CC-PVTZ
    Blend: AUG-CC-PVTZ
  Basis Set: (AUG-CC-PVTZ AUX)
    Blend: AUG-CC-PVTZ-JKFIT

    Orbital Energies [Eh]
    ---------------------

    Doubly Occupied:

       1A    -20.539523     2A    -11.324640     3A    -11.244121
       4A    -11.242597     5A    -11.227385     6A    -11.218554
       7A    -11.211776     8A     -1.374006     9A     -1.092652
      10A     -1.052286    11A     -0.942723    12A     -0.907247
      13A     -0.820898    14A     -0.714993    15A     -0.670698
      16A     -0.633942    17A     -0.627930    18A     -0.607350
      19A     -0.572189    20A     -0.552571    21A     -0.543758
      22A     -0.522670    23A     -0.514744    24A     -0.508978
      25A     -0.498952    26A     -0.476226    27A     -0.456162
      28A     -0.400816

  @DF-RHF Final Energy:  -309.16723784445054

   => Energetics <=

    Nuclear Repulsion Energy =            315.5937952493189869
    One-Electron Energy =               -1044.5212890605273515
    Two-Electron Energy =                 419.7602559667578248
    Total Energy =                       -309.1672378444505398
  Basis Set: (AUG-CC-PVTZ AUX)
    Blend: AUG-CC-PVTZ-RI
    Molecular point group: c1

    Geometry (in Angstrom), charge = 0, multiplicity = 1:

       Center              X                  Y                   Z               Mass
    ------------   -----------------  -----------------  -----------------  -----------------
         O            0.343457619318    -1.180890573799     0.689831411993    15.994914619570
         C           -1.153265980682     0.256140826201    -0.358821688007    12.000000000000
         C            0.262910719318    -0.179603073799    -0.018462288007    12.000000000000
         C            1.448259719318     0.621720926201    -0.515436288007    12.000000000000
         C           -1.609097280682     1.273190926201     0.698645711993    12.000000000000
         C           -2.086953280682    -0.849063073799    -0.579867288007    12.000000000000
         C            2.780006719318     0.101919926201    -0.000662288007    12.000000000000
         H           -1.042274280682     0.880096926201    -1.341687288007     1.007825032230
         H            1.293099719318     1.672174926201    -0.230284288007     1.007825032230
         H            1.417038719318     0.618592926201    -1.613713288007     1.007825032230
         H           -0.938170280682     2.128571926201     0.823947711993     1.007825032230
         H           -1.670687280682     0.739499926201     1.653428711993     1.007825032230
         H           -2.602938280682     1.658815926201     0.453090711993     1.007825032230
         H           -1.742284280682    -1.534365073799    -1.361614288007     1.007825032230
         H           -2.161127280682    -1.415542073799     0.351072711993     1.007825032230
         H           -3.080739280682    -0.481928073799    -0.856089288007     1.007825032230
         H            2.805050719318     0.124922926201     1.090045711993     1.007825032230
         H            2.931111719318    -0.933655073799    -0.309848288007     1.007825032230
         H            3.605302719318     0.706797926201    -0.383395288007     1.007825032230

  Basis Set: AUG-CC-PVTZ
    Blend: AUG-CC-PVTZ
  Basis Set: (AUG-CC-PVTZ AUX)
    Blend: AUG-CC-PVTZ-JKFIT
	 Reference Energy          =    -309.1672378444505398 [Eh]
	 Singles Energy            =      -0.0000000000000000 [Eh]
	 Same-Spin Energy          =      -0.3175923117930863 [Eh]
	 Opposite-Spin Energy      =      -1.1043855954034605 [Eh]
	 Correlation Energy        =      -1.4219779071965468 [Eh]
	 Total Energy              =    -310.5892157516470888 [Eh]

	 ================> DF-SCS-MP2 Energies <==================
	-----------------------------------------------------------
	 SCS Same-Spin Scale       =       0.3333333333333333 [-]
	 SCS Opposite-Spin Scale   =       1.2000000000000000 [-]
	 SCS Same-Spin Energy      =      -0.1058641039310288 [Eh]
	 SCS Opposite-Spin Energy  =      -1.3252627144841524 [Eh]
	 SCS Correlation Energy    =      -1.4311268184151813 [Eh]
	 SCS Total Energy          =    -310.5983646628657198 [Eh]
	-----------------------------------------------------------

  Dipole Moment: [D]
     X:    -0.1482      Y:     2.1995      Z:    -1.4337     Total:     2.6297

*** Psi4 exiting successfully. Buy a developer a beer!
