                               Psi4 1.3.2 release

  ==> Input File <==

--------------------------------------------------------------------------
#psi4
#
memory 32 gb

molecule  {
0 1
  O        0.3935890    -1.1834810     0.6928250
  C       -1.1363630     0.3083220    -0.3952430
  C        0.2588516    -0.1761893    -0.0348280
  C        1.4343240     0.6136100    -0.5100380
  C       -1.6230330     1.2650800     0.7040440
  C       -2.1008890    -0.8571740    -0.5744690
  C        2.7660710     0.0938090     0.0047360
  H       -1.0373210     0.8685744    -1.3365278
  H        1.2791640     1.6640640    -0.2248860
  H        1.4031030     0.6104820    -1.6083150
  H       -0.9521060     2.1204610     0.8293460
  H       -1.6846230     0.7313890     1.6588270
  H       -2.6168740     1.6507050     0.4584890
  H       -1.7562200    -1.5424760    -1.3562160
  H       -2.1750630    -1.4236530     0.3564710
  H       -3.0946750    -0.4900390    -0.8506910
  H        2.7911150     0.1168120     1.0954440
  H        2.9171760    -0.9417660    -0.3044500
  H        3.5913670     0.6986870    -0.3779970
units angstrom
no_reorient  #important for SAPT in psi4, default
symmetry c1  #important for SAPT in psi4, default
}

set PROPERTIES_ORIGIN ["COM"]
properties('MP2/aug-cc-pvtz', properties = ['dipole'])
--------------------------------------------------------------------------

    Molecular point group: c1
  Charge       = 0
  Multiplicity = 1
  Basis Set: AUG-CC-PVTZ
    Blend: AUG-CC-PVTZ
  Basis Set: (AUG-CC-PVTZ AUX)
    Blend: AUG-CC-PVTZ-JKFIT

    Orbital Energies [Eh]
    ---------------------

    Doubly Occupied:

       1A    -20.538639     2A    -11.326157     3A    -11.242930
       4A    -11.240573     5A    -11.229050     6A    -11.216430
       7A    -11.215949     8A     -1.359205     9A     -1.091855
      10A     -1.050699    11A     -0.937688    12A     -0.911140
      13A     -0.824447    14A     -0.719664    15A     -0.670673
      16A     -0.633402    17A     -0.623017    18A     -0.603436
      19A     -0.567619    20A     -0.553907    21A     -0.544175
      22A     -0.519023    23A     -0.511177    24A     -0.504516
      25A     -0.492146    26A     -0.482169    27A     -0.464129
      28A     -0.405226

  @DF-RHF Final Energy:  -309.17337397401866

   => Energetics <=

    Nuclear Repulsion Energy =            314.9085733353544470
    One-Electron Energy =               -1043.2058135965701240
    Two-Electron Energy =                 419.1238662871969609
    Total Energy =                       -309.1733739740186593
  Basis Set: (AUG-CC-PVTZ AUX)
    Blend: AUG-CC-PVTZ-RI
    Molecular point group: c1

    Geometry (in Angstrom), charge = 0, multiplicity = 1:

       Center              X                  Y                   Z               Mass
    ------------   -----------------  -----------------  -----------------  -----------------
         O            0.392214634956    -1.184828305772     0.695436666349    15.994914619570
         C           -1.137737365044     0.306974694228    -0.392631333651    12.000000000000
         C            0.257477234956    -0.177536605772    -0.032216333651    12.000000000000
         C            1.432949634956     0.612262694228    -0.507426333651    12.000000000000
         C           -1.624407365044     1.263732694228     0.706655666349    12.000000000000
         C           -2.102263365044    -0.858521305772    -0.571857333651    12.000000000000
         C            2.764696634956     0.092461694228     0.007347666349    12.000000000000
         H           -1.038695365044     0.867227094228    -1.333916133651     1.007825032230
         H            1.277789634956     1.662716694228    -0.222274333651     1.007825032230
         H            1.401728634956     0.609134694228    -1.605703333651     1.007825032230
         H           -0.953480365044     2.119113694228     0.831957666349     1.007825032230
         H           -1.685997365044     0.730041694228     1.661438666349     1.007825032230
         H           -2.618248365044     1.649357694228     0.461100666349     1.007825032230
         H           -1.757594365044    -1.543823305772    -1.353604333651     1.007825032230
         H           -2.176437365044    -1.425000305772     0.359082666349     1.007825032230
         H           -3.096049365044    -0.491386305772    -0.848079333651     1.007825032230
         H            2.789740634956     0.115464694228     1.098055666349     1.007825032230
         H            2.915801634956    -0.943113305772    -0.301838333651     1.007825032230
         H            3.589992634956     0.697339694228    -0.375385333651     1.007825032230

  Basis Set: AUG-CC-PVTZ
    Blend: AUG-CC-PVTZ
  Basis Set: (AUG-CC-PVTZ AUX)
    Blend: AUG-CC-PVTZ-JKFIT
	 Reference Energy          =    -309.1733739740186593 [Eh]
	 Singles Energy            =      -0.0000000000000000 [Eh]
	 Same-Spin Energy          =      -0.3177008308107571 [Eh]
	 Opposite-Spin Energy      =      -1.1048033879945536 [Eh]
	 Correlation Energy        =      -1.4225042188053107 [Eh]
	 Total Energy              =    -310.5958781928239887 [Eh]

	 ================> DF-SCS-MP2 Energies <==================
	-----------------------------------------------------------
	 SCS Same-Spin Scale       =       0.3333333333333333 [-]
	 SCS Opposite-Spin Scale   =       1.2000000000000000 [-]
	 SCS Same-Spin Energy      =      -0.1059002769369190 [Eh]
	 SCS Opposite-Spin Energy  =      -1.3257640655934642 [Eh]
	 SCS Correlation Energy    =      -1.4316643425303832 [Eh]
	 SCS Total Energy          =    -310.6050383165490416 [Eh]
	-----------------------------------------------------------

  Dipole Moment: [D]
     X:    -0.3143      Y:     2.2871      Z:    -1.4979     Total:     2.7520

*** Psi4 exiting successfully. Buy a developer a beer!
