                               Psi4 1.3.2 release

  ==> Input File <==

--------------------------------------------------------------------------
#psi4
#
memory 32 gb

molecule  {
0 1
  O        0.3935890    -1.1834810     0.6928250
  C       -1.1017746     0.3683716    -0.4343931
  C        0.2489750    -0.1877140    -0.0130640
  C        1.3834050     0.6632158    -0.5451754
  C       -1.6230330     1.2650800     0.7040440
  C       -2.1008890    -0.8571740    -0.5744690
  C        2.7660710     0.0938090     0.0047360
  H       -1.0562100     0.8719860    -1.3362890
  H        1.2791640     1.6640640    -0.2248860
  H        1.4031030     0.6104820    -1.6083150
  H       -0.9521060     2.1204610     0.8293460
  H       -1.6846230     0.7313890     1.6588270
  H       -2.6168740     1.6507050     0.4584890
  H       -1.7562200    -1.5424760    -1.3562160
  H       -2.1750630    -1.4236530     0.3564710
  H       -3.0946750    -0.4900390    -0.8506910
  H        2.7911150     0.1168120     1.0954440
  H        2.9171760    -0.9417660    -0.3044500
  H        3.5913670     0.6986870    -0.3779970
units angstrom
no_reorient  #important for SAPT in psi4, default
symmetry c1  #important for SAPT in psi4, default
}

set PROPERTIES_ORIGIN ["COM"]
properties('MP2/aug-cc-pvtz', properties = ['dipole'])
--------------------------------------------------------------------------

    Molecular point group: c1
  Charge       = 0
  Multiplicity = 1
  Basis Set: AUG-CC-PVTZ
    Blend: AUG-CC-PVTZ
  Basis Set: (AUG-CC-PVTZ AUX)
    Blend: AUG-CC-PVTZ-JKFIT

    Orbital Energies [Eh]
    ---------------------

    Doubly Occupied:

       1A    -20.544753     2A    -11.327115     3A    -11.238196
       4A    -11.234630     5A    -11.229394     6A    -11.217214
       7A    -11.217004     8A     -1.373659     9A     -1.089968
      10A     -1.036747    11A     -0.931229    12A     -0.906943
      13A     -0.827750    14A     -0.731581    15A     -0.673611
      16A     -0.639058    17A     -0.620862    18A     -0.604544
      19A     -0.565855    20A     -0.547369    21A     -0.540337
      22A     -0.520434    23A     -0.515779    24A     -0.505935
      25A     -0.495511    26A     -0.485761    27A     -0.460259
      28A     -0.398704

  @DF-RHF Final Energy:  -309.16383325024606

   => Energetics <=

    Nuclear Repulsion Energy =            314.3043693720038618
    One-Electron Energy =               -1041.9759998427866776
    Two-Electron Energy =                 418.5077972205367587
    Total Energy =                       -309.1638332502460571
  Basis Set: (AUG-CC-PVTZ AUX)
    Blend: AUG-CC-PVTZ-RI
    Molecular point group: c1

    Geometry (in Angstrom), charge = 0, multiplicity = 1:

       Center              X                  Y                   Z               Mass
    ------------   -----------------  -----------------  -----------------  -----------------
         O            0.395546907468    -1.196627892927     0.701731488916    15.994914619570
         C           -1.099816692532     0.355224707073    -0.425486611084    12.000000000000
         C            0.250932907468    -0.200860892927    -0.004157511084    12.000000000000
         C            1.385362907468     0.650068907073    -0.536268911084    12.000000000000
         C           -1.621075092532     1.251933107073     0.712950488916    12.000000000000
         C           -2.098931092532    -0.870320892927    -0.565562511084    12.000000000000
         C            2.768028907468     0.080662107073     0.013642488916    12.000000000000
         H           -1.054252092532     0.858839107073    -1.327382511084     1.007825032230
         H            1.281121907468     1.650917107073    -0.215979511084     1.007825032230
         H            1.405060907468     0.597335107073    -1.599408511084     1.007825032230
         H           -0.950148092532     2.107314107073     0.838252488916     1.007825032230
         H           -1.682665092532     0.718242107073     1.667733488916     1.007825032230
         H           -2.614916092532     1.637558107073     0.467395488916     1.007825032230
         H           -1.754262092532    -1.555622892927    -1.347309511084     1.007825032230
         H           -2.173105092532    -1.436799892927     0.365377488916     1.007825032230
         H           -3.092717092532    -0.503185892927    -0.841784511084     1.007825032230
         H            2.793072907468     0.103665107073     1.104350488916     1.007825032230
         H            2.919133907468    -0.954912892927    -0.295543511084     1.007825032230
         H            3.593324907468     0.685540107073    -0.369090511084     1.007825032230

  Basis Set: AUG-CC-PVTZ
    Blend: AUG-CC-PVTZ
  Basis Set: (AUG-CC-PVTZ AUX)
    Blend: AUG-CC-PVTZ-JKFIT
	 Reference Energy          =    -309.1638332502460571 [Eh]
	 Singles Energy            =      -0.0000000000000000 [Eh]
	 Same-Spin Energy          =      -0.3168139615654660 [Eh]
	 Opposite-Spin Energy      =      -1.1039509853255856 [Eh]
	 Correlation Energy        =      -1.4207649468910515 [Eh]
	 Total Energy              =    -310.5845981971370975 [Eh]

	 ================> DF-SCS-MP2 Energies <==================
	-----------------------------------------------------------
	 SCS Same-Spin Scale       =       0.3333333333333333 [-]
	 SCS Opposite-Spin Scale   =       1.2000000000000000 [-]
	 SCS Same-Spin Energy      =      -0.1056046538551553 [Eh]
	 SCS Opposite-Spin Energy  =      -1.3247411823907027 [Eh]
	 SCS Correlation Energy    =      -1.4303458362458581 [Eh]
	 SCS Total Energy          =    -310.5941790864919199 [Eh]
	-----------------------------------------------------------

  Dipole Moment: [D]
     X:    -0.4163      Y:     2.2359      Z:    -1.4561     Total:     2.7005

*** Psi4 exiting successfully. Buy a developer a beer!
