                               Psi4 1.3.2 release

  ==> Input File <==

--------------------------------------------------------------------------
#psi4
#
memory 32 gb

molecule  {
0 1
  O        0.3509462    -1.1881034     0.6937368
  C       -1.1363630     0.3083220    -0.3952430
  C        0.2489750    -0.1877140    -0.0130640
  C        1.4007792     0.6461881    -0.5347056
  C       -1.6230330     1.2650800     0.7040440
  C       -2.1008890    -0.8571740    -0.5744690
  C        2.7660710     0.0938090     0.0047360
  H       -1.0562100     0.8719860    -1.3362890
  H        1.2791640     1.6640640    -0.2248860
  H        1.4031030     0.6104820    -1.6083150
  H       -0.9521060     2.1204610     0.8293460
  H       -1.6846230     0.7313890     1.6588270
  H       -2.6168740     1.6507050     0.4584890
  H       -1.7562200    -1.5424760    -1.3562160
  H       -2.1750630    -1.4236530     0.3564710
  H       -3.0946750    -0.4900390    -0.8506910
  H        2.7911150     0.1168120     1.0954440
  H        2.9171760    -0.9417660    -0.3044500
  H        3.5913670     0.6986870    -0.3779970
units angstrom
no_reorient  #important for SAPT in psi4, default
symmetry c1  #important for SAPT in psi4, default
}

set PROPERTIES_ORIGIN ["COM"]
properties('MP2/aug-cc-pvtz', properties = ['dipole'])
--------------------------------------------------------------------------

    Molecular point group: c1
  Charge       = 0
  Multiplicity = 1
  Basis Set: AUG-CC-PVTZ
    Blend: AUG-CC-PVTZ
  Basis Set: (AUG-CC-PVTZ AUX)
    Blend: AUG-CC-PVTZ-JKFIT

    Orbital Energies [Eh]
    ---------------------

    Doubly Occupied:

       1A    -20.542469     2A    -11.325624     3A    -11.239204
       4A    -11.238624     5A    -11.227592     6A    -11.218652
       7A    -11.213869     8A     -1.373662     9A     -1.090160
      10A     -1.043172    11A     -0.936249    12A     -0.907045
      13A     -0.824191    14A     -0.722296    15A     -0.672079
      16A     -0.637590    17A     -0.622894    18A     -0.606800
      19A     -0.567086    20A     -0.548054    21A     -0.541821
      22A     -0.521760    23A     -0.514803    24A     -0.501111
      25A     -0.497280    26A     -0.479039    27A     -0.470653
      28A     -0.400755

  @DF-RHF Final Energy:  -309.17355612087891

   => Energetics <=

    Nuclear Repulsion Energy =            314.8823673368755180
    One-Electron Energy =               -1043.1427774262981529
    Two-Electron Energy =                 419.0868539685437213
    Total Energy =                       -309.1735561208789136
  Basis Set: (AUG-CC-PVTZ AUX)
    Blend: AUG-CC-PVTZ-RI
    Molecular point group: c1

    Geometry (in Angstrom), charge = 0, multiplicity = 1:

       Center              X                  Y                   Z               Mass
    ------------   -----------------  -----------------  -----------------  -----------------
         O            0.361782605481    -1.191270531519     0.696548472396    15.994914619570
         C           -1.125526594519     0.305154868481    -0.392431327604    12.000000000000
         C            0.259811405481    -0.190881131519    -0.010252327604    12.000000000000
         C            1.411615605481     0.643020968481    -0.531893927604    12.000000000000
         C           -1.612196594519     1.261912868481     0.706855672396    12.000000000000
         C           -2.090052594519    -0.860341131519    -0.571657327604    12.000000000000
         C            2.776907405481     0.090641868481     0.007547672396    12.000000000000
         H           -1.045373594519     0.868818868481    -1.333477327604     1.007825032230
         H            1.290000405481     1.660896868481    -0.222074327604     1.007825032230
         H            1.413939405481     0.607314868481    -1.605503327604     1.007825032230
         H           -0.941269594519     2.117293868481     0.832157672396     1.007825032230
         H           -1.673786594519     0.728221868481     1.661638672396     1.007825032230
         H           -2.606037594519     1.647537868481     0.461300672396     1.007825032230
         H           -1.745383594519    -1.545643131519    -1.353404327604     1.007825032230
         H           -2.164226594519    -1.426820131519     0.359282672396     1.007825032230
         H           -3.083838594519    -0.493206131519    -0.847879327604     1.007825032230
         H            2.801951405481     0.113644868481     1.098255672396     1.007825032230
         H            2.928012405481    -0.944933131519    -0.301638327604     1.007825032230
         H            3.602203405481     0.695519868481    -0.375185327604     1.007825032230

  Basis Set: AUG-CC-PVTZ
    Blend: AUG-CC-PVTZ
  Basis Set: (AUG-CC-PVTZ AUX)
    Blend: AUG-CC-PVTZ-JKFIT
	 Reference Energy          =    -309.1735561208789136 [Eh]
	 Singles Energy            =      -0.0000000000000000 [Eh]
	 Same-Spin Energy          =      -0.3169027743432239 [Eh]
	 Opposite-Spin Energy      =      -1.1036122305469909 [Eh]
	 Correlation Energy        =      -1.4205150048902149 [Eh]
	 Total Energy              =    -310.5940711257691191 [Eh]

	 ================> DF-SCS-MP2 Energies <==================
	-----------------------------------------------------------
	 SCS Same-Spin Scale       =       0.3333333333333333 [-]
	 SCS Opposite-Spin Scale   =       1.2000000000000000 [-]
	 SCS Same-Spin Energy      =      -0.1056342581144080 [Eh]
	 SCS Opposite-Spin Energy  =      -1.3243346766563890 [Eh]
	 SCS Correlation Energy    =      -1.4299689347707969 [Eh]
	 SCS Total Energy          =    -310.6035250556496976 [Eh]
	-----------------------------------------------------------

  Dipole Moment: [D]
     X:    -0.2506      Y:     2.2273      Z:    -1.4552     Total:     2.6723

*** Psi4 exiting successfully. Buy a developer a beer!
