                               Psi4 1.3.2 release

  ==> Input File <==

--------------------------------------------------------------------------
#psi4
#
memory 32 gb

molecule  {
0 1
  O        0.3935890    -1.1834810     0.6928250
  C       -1.1363630     0.3083220    -0.3952430
  C        0.2445491    -0.2002142    -0.0134752
  C        1.4343240     0.6136100    -0.5100380
  C       -1.6230330     1.2650800     0.7040440
  C       -2.0910998    -0.8656587    -0.5714821
  C        2.7660710     0.0938090     0.0047360
  H       -1.0562100     0.8719860    -1.3362890
  H        1.2791640     1.6640640    -0.2248860
  H        1.4031030     0.6104820    -1.6083150
  H       -0.9521060     2.1204610     0.8293460
  H       -1.6846230     0.7313890     1.6588270
  H       -2.6168740     1.6507050     0.4584890
  H       -1.7562200    -1.5424760    -1.3562160
  H       -2.1750630    -1.4236530     0.3564710
  H       -3.0946750    -0.4900390    -0.8506910
  H        2.7911150     0.1168120     1.0954440
  H        2.9171760    -0.9417660    -0.3044500
  H        3.5913670     0.6986870    -0.3779970
units angstrom
no_reorient  #important for SAPT in psi4, default
symmetry c1  #important for SAPT in psi4, default
}

set PROPERTIES_ORIGIN ["COM"]
properties('MP2/aug-cc-pvtz', properties = ['dipole'])
--------------------------------------------------------------------------

    Molecular point group: c1
  Charge       = 0
  Multiplicity = 1
  Basis Set: AUG-CC-PVTZ
    Blend: AUG-CC-PVTZ
  Basis Set: (AUG-CC-PVTZ AUX)
    Blend: AUG-CC-PVTZ-JKFIT

    Orbital Energies [Eh]
    ---------------------

    Doubly Occupied:

       1A    -20.541415     2A    -11.323810     3A    -11.241705
       4A    -11.238485     5A    -11.228854     6A    -11.215837
       7A    -11.214819     8A     -1.379307     9A     -1.090790
      10A     -1.045594    11A     -0.938009    12A     -0.905726
      13A     -0.822026    14A     -0.720884    15A     -0.672934
      16A     -0.631348    17A     -0.624597    18A     -0.608218
      19A     -0.567817    20A     -0.551746    21A     -0.544408
      22A     -0.519783    23A     -0.513459    24A     -0.505078
      25A     -0.493276    26A     -0.482540    27A     -0.472350
      28A     -0.399760

  @DF-RHF Final Energy:  -309.17727289131983

   => Energetics <=

    Nuclear Repulsion Energy =            315.1539897706436477
    One-Electron Energy =               -1043.6733716683945659
    Two-Electron Energy =                 419.3421090064310874
    Total Energy =                       -309.1772728913198307
  Basis Set: (AUG-CC-PVTZ AUX)
    Blend: AUG-CC-PVTZ-RI
    Molecular point group: c1

    Geometry (in Angstrom), charge = 0, multiplicity = 1:

       Center              X                  Y                   Z               Mass
    ------------   -----------------  -----------------  -----------------  -----------------
         O            0.392945949509    -1.180964967955     0.692516089574    15.994914619570
         C           -1.137006050491     0.310838032045    -0.395551910426    12.000000000000
         C            0.243906049509    -0.197698167955    -0.013784110426    12.000000000000
         C            1.433680949509     0.616126032045    -0.510346910426    12.000000000000
         C           -1.623676050491     1.267596032045     0.703735089574    12.000000000000
         C           -2.091742850491    -0.863142667955    -0.571791010426    12.000000000000
         C            2.765427949509     0.096325032045     0.004427089574    12.000000000000
         H           -1.056853050491     0.874502032045    -1.336597910426     1.007825032230
         H            1.278520949509     1.666580032045    -0.225194910426     1.007825032230
         H            1.402459949509     0.612998032045    -1.608623910426     1.007825032230
         H           -0.952749050491     2.122977032045     0.829037089574     1.007825032230
         H           -1.685266050491     0.733905032045     1.658518089574     1.007825032230
         H           -2.617517050491     1.653221032045     0.458180089574     1.007825032230
         H           -1.756863050491    -1.539959967955    -1.356524910426     1.007825032230
         H           -2.175706050491    -1.421136967955     0.356162089574     1.007825032230
         H           -3.095318050491    -0.487522967955    -0.850999910426     1.007825032230
         H            2.790471949509     0.119328032045     1.095135089574     1.007825032230
         H            2.916532949509    -0.939249967955    -0.304758910426     1.007825032230
         H            3.590723949509     0.701203032045    -0.378305910426     1.007825032230

  Basis Set: AUG-CC-PVTZ
    Blend: AUG-CC-PVTZ
  Basis Set: (AUG-CC-PVTZ AUX)
    Blend: AUG-CC-PVTZ-JKFIT
	 Reference Energy          =    -309.1772728913198307 [Eh]
	 Singles Energy            =      -0.0000000000000000 [Eh]
	 Same-Spin Energy          =      -0.3167918894615233 [Eh]
	 Opposite-Spin Energy      =      -1.1029681453038160 [Eh]
	 Correlation Energy        =      -1.4197600347653392 [Eh]
	 Total Energy              =    -310.5970329260851486 [Eh]

	 ================> DF-SCS-MP2 Energies <==================
	-----------------------------------------------------------
	 SCS Same-Spin Scale       =       0.3333333333333333 [-]
	 SCS Opposite-Spin Scale   =       1.2000000000000000 [-]
	 SCS Same-Spin Energy      =      -0.1055972964871744 [Eh]
	 SCS Opposite-Spin Energy  =      -1.3235617743645791 [Eh]
	 SCS Correlation Energy    =      -1.4291590708517536 [Eh]
	 SCS Total Energy          =    -310.6064319621715981 [Eh]
	-----------------------------------------------------------

  Dipole Moment: [D]
     X:    -0.3914      Y:     2.1839      Z:    -1.4306     Total:     2.6399

*** Psi4 exiting successfully. Buy a developer a beer!
