                               Psi4 1.3.2 release

  ==> Input File <==

--------------------------------------------------------------------------
#psi4
#
memory 32 gb

molecule  {
0 1
  O        0.3935890    -1.1834810     0.6928250
  C       -1.1363630     0.3083220    -0.3952430
  C        0.2170158    -0.1555733    -0.0402790
  C        1.4343240     0.6136100    -0.5100380
  C       -1.6230330     1.2650800     0.7040440
  C       -2.1008890    -0.8571740    -0.5744690
  C        2.7904968     0.1324169    -0.0222019
  H       -1.0562100     0.8719860    -1.3362890
  H        1.2791640     1.6640640    -0.2248860
  H        1.4031030     0.6104820    -1.6083150
  H       -0.9521060     2.1204610     0.8293460
  H       -1.6846230     0.7313890     1.6588270
  H       -2.6168740     1.6507050     0.4584890
  H       -1.7562200    -1.5424760    -1.3562160
  H       -2.1750630    -1.4236530     0.3564710
  H       -3.0946750    -0.4900390    -0.8506910
  H        2.7911150     0.1168120     1.0954440
  H        2.9171760    -0.9417660    -0.3044500
  H        3.5913670     0.6986870    -0.3779970
units angstrom
no_reorient  #important for SAPT in psi4, default
symmetry c1  #important for SAPT in psi4, default
}

set PROPERTIES_ORIGIN ["COM"]
properties('MP2/aug-cc-pvtz', properties = ['dipole'])
--------------------------------------------------------------------------

    Molecular point group: c1
  Charge       = 0
  Multiplicity = 1
  Basis Set: AUG-CC-PVTZ
    Blend: AUG-CC-PVTZ
  Basis Set: (AUG-CC-PVTZ AUX)
    Blend: AUG-CC-PVTZ-JKFIT

    Orbital Energies [Eh]
    ---------------------

    Doubly Occupied:

       1A    -20.536552     2A    -11.329731     3A    -11.244400
       4A    -11.241417     5A    -11.232178     6A    -11.218285
       7A    -11.216195     8A     -1.343822     9A     -1.099158
      10A     -1.047393    11A     -0.940678    12A     -0.914188
      13A     -0.830974    14A     -0.719206    15A     -0.670703
      16A     -0.628400    17A     -0.625112    18A     -0.598941
      19A     -0.571788    20A     -0.559052    21A     -0.547407
      22A     -0.522316    23A     -0.505844    24A     -0.499337
      25A     -0.489367    26A     -0.481455    27A     -0.456046
      28A     -0.410210

  @DF-RHF Final Energy:  -309.16387697433680

   => Energetics <=

    Nuclear Repulsion Energy =            314.5890626746340217
    One-Electron Energy =               -1042.5455676107901581
    Two-Electron Energy =                 418.7926279618192780
    Total Energy =                       -309.1638769743368016
  Basis Set: (AUG-CC-PVTZ AUX)
    Blend: AUG-CC-PVTZ-RI
    Molecular point group: c1

    Geometry (in Angstrom), charge = 0, multiplicity = 1:

       Center              X                  Y                   Z               Mass
    ------------   -----------------  -----------------  -----------------  -----------------
         O            0.394492180224    -1.191963219857     0.699317480917    15.994914619570
         C           -1.135459819776     0.299839780143    -0.388750519083    12.000000000000
         C            0.217918980224    -0.164055519857    -0.033786519083    12.000000000000
         C            1.435227180224     0.605127780143    -0.503545519083    12.000000000000
         C           -1.622129819776     1.256597780143     0.710536480917    12.000000000000
         C           -2.099985819776    -0.865656219857    -0.567976519083    12.000000000000
         C            2.791399980224     0.123934680143    -0.015709419083    12.000000000000
         H           -1.055306819776     0.863503780143    -1.329796519083     1.007825032230
         H            1.280067180224     1.655581780143    -0.218393519083     1.007825032230
         H            1.404006180224     0.601999780143    -1.601822519083     1.007825032230
         H           -0.951202819776     2.111978780143     0.835838480917     1.007825032230
         H           -1.683719819776     0.722906780143     1.665319480917     1.007825032230
         H           -2.615970819776     1.642222780143     0.464981480917     1.007825032230
         H           -1.755316819776    -1.550958219857    -1.349723519083     1.007825032230
         H           -2.174159819776    -1.432135219857     0.362963480917     1.007825032230
         H           -3.093771819776    -0.498521219857    -0.844198519083     1.007825032230
         H            2.792018180224     0.108329780143     1.101936480917     1.007825032230
         H            2.918079180224    -0.950248219857    -0.297957519083     1.007825032230
         H            3.592270180224     0.690204780143    -0.371504519083     1.007825032230

  Basis Set: AUG-CC-PVTZ
    Blend: AUG-CC-PVTZ
  Basis Set: (AUG-CC-PVTZ AUX)
    Blend: AUG-CC-PVTZ-JKFIT
	 Reference Energy          =    -309.1638769743368016 [Eh]
	 Singles Energy            =      -0.0000000000000000 [Eh]
	 Same-Spin Energy          =      -0.3186646584560948 [Eh]
	 Opposite-Spin Energy      =      -1.1067177660555663 [Eh]
	 Correlation Energy        =      -1.4253824245116611 [Eh]
	 Total Energy              =    -310.5892593988484691 [Eh]

	 ================> DF-SCS-MP2 Energies <==================
	-----------------------------------------------------------
	 SCS Same-Spin Scale       =       0.3333333333333333 [-]
	 SCS Opposite-Spin Scale   =       1.2000000000000000 [-]
	 SCS Same-Spin Energy      =      -0.1062215528186983 [Eh]
	 SCS Opposite-Spin Energy  =      -1.3280613192666795 [Eh]
	 SCS Correlation Energy    =      -1.4342828720853777 [Eh]
	 SCS Total Energy          =    -310.5981598464221634 [Eh]
	-----------------------------------------------------------

  Dipole Moment: [D]
     X:    -0.5282      Y:     2.3631      Z:    -1.5289     Total:     2.8637

*** Psi4 exiting successfully. Buy a developer a beer!
