                               Psi4 1.3.2 release

  ==> Input File <==

--------------------------------------------------------------------------
#psi4
#
memory 32 gb

molecule  {
0 1
  O        0.3935890    -1.1834810     0.6928250
  C       -1.1363630     0.3083220    -0.3952430
  C        0.2996089    -0.2340827     0.0266131
  C        1.4343240     0.6136100    -0.5100380
  C       -1.6230330     1.2650800     0.7040440
  C       -2.1008890    -0.8571740    -0.5744690
  C        2.7264000     0.0370990     0.0439568
  H       -1.0562100     0.8719860    -1.3362890
  H        1.2791640     1.6640640    -0.2248860
  H        1.4031030     0.6104820    -1.6083150
  H       -0.9521060     2.1204610     0.8293460
  H       -1.6846230     0.7313890     1.6588270
  H       -2.6168740     1.6507050     0.4584890
  H       -1.7562200    -1.5424760    -1.3562160
  H       -2.1750630    -1.4236530     0.3564710
  H       -3.0946750    -0.4900390    -0.8506910
  H        2.7911150     0.1168120     1.0954440
  H        2.9171760    -0.9417660    -0.3044500
  H        3.5913670     0.6986870    -0.3779970
units angstrom
no_reorient  #important for SAPT in psi4, default
symmetry c1  #important for SAPT in psi4, default
}

set PROPERTIES_ORIGIN ["COM"]
properties('MP2/aug-cc-pvtz', properties = ['dipole'])
--------------------------------------------------------------------------

    Molecular point group: c1
  Charge       = 0
  Multiplicity = 1
  Basis Set: AUG-CC-PVTZ
    Blend: AUG-CC-PVTZ
  Basis Set: (AUG-CC-PVTZ AUX)
    Blend: AUG-CC-PVTZ-JKFIT

    Orbital Energies [Eh]
    ---------------------

    Doubly Occupied:

       1A    -20.547179     2A    -11.318687     3A    -11.238130
       4A    -11.236347     5A    -11.223654     6A    -11.216570
       7A    -11.212056     8A     -1.420612     9A     -1.080671
      10A     -1.048372    11A     -0.933176    12A     -0.899667
      13A     -0.811624    14A     -0.724934    15A     -0.677061
      16A     -0.641598    17A     -0.630644    18A     -0.610647
      19A     -0.569898    20A     -0.549744    21A     -0.540271
      22A     -0.527710    23A     -0.516422    24A     -0.504973
      25A     -0.503080    26A     -0.478375    27A     -0.477477
      28A     -0.381763

  @DF-RHF Final Energy:  -309.16692847597409

   => Energetics <=

    Nuclear Repulsion Energy =            315.8508644423061469
    One-Electron Energy =               -1044.9928998581619908
    Two-Electron Energy =                 419.9751069398817549
    Total Energy =                       -309.1669284759740890
  Basis Set: (AUG-CC-PVTZ AUX)
    Blend: AUG-CC-PVTZ-RI
    Molecular point group: c1

    Geometry (in Angstrom), charge = 0, multiplicity = 1:

       Center              X                  Y                   Z               Mass
    ------------   -----------------  -----------------  -----------------  -----------------
         O            0.392274593774    -1.171122453585     0.683365552624    15.994914619570
         C           -1.137677406226     0.320680546415    -0.404702447376    12.000000000000
         C            0.298294493774    -0.221724153585     0.017153652624    12.000000000000
         C            1.433009593774     0.625968546415    -0.519497447376    12.000000000000
         C           -1.624347406226     1.277438546415     0.694584552624    12.000000000000
         C           -2.102203406226    -0.844815453585    -0.583928447376    12.000000000000
         C            2.725085593774     0.049457546415     0.034497352624    12.000000000000
         H           -1.057524406226     0.884344546415    -1.345748447376     1.007825032230
         H            1.277849593774     1.676422546415    -0.234345447376     1.007825032230
         H            1.401788593774     0.622840546415    -1.617774447376     1.007825032230
         H           -0.953420406226     2.132819546415     0.819886552624     1.007825032230
         H           -1.685937406226     0.743747546415     1.649367552624     1.007825032230
         H           -2.618188406226     1.663063546415     0.449029552624     1.007825032230
         H           -1.757534406226    -1.530117453585    -1.365675447376     1.007825032230
         H           -2.176377406226    -1.411294453585     0.347011552624     1.007825032230
         H           -3.095989406226    -0.477680453585    -0.860150447376     1.007825032230
         H            2.789800593774     0.129170546415     1.085984552624     1.007825032230
         H            2.915861593774    -0.929407453585    -0.313909447376     1.007825032230
         H            3.590052593774     0.711045546415    -0.387456447376     1.007825032230

  Basis Set: AUG-CC-PVTZ
    Blend: AUG-CC-PVTZ
  Basis Set: (AUG-CC-PVTZ AUX)
    Blend: AUG-CC-PVTZ-JKFIT
	 Reference Energy          =    -309.1669284759740890 [Eh]
	 Singles Energy            =      -0.0000000000000000 [Eh]
	 Same-Spin Energy          =      -0.3155409785103950 [Eh]
	 Opposite-Spin Energy      =      -1.1004424449120624 [Eh]
	 Correlation Energy        =      -1.4159834234224573 [Eh]
	 Total Energy              =    -310.5829118993965494 [Eh]

	 ================> DF-SCS-MP2 Energies <==================
	-----------------------------------------------------------
	 SCS Same-Spin Scale       =       0.3333333333333333 [-]
	 SCS Opposite-Spin Scale   =       1.2000000000000000 [-]
	 SCS Same-Spin Energy      =      -0.1051803261701316 [Eh]
	 SCS Opposite-Spin Energy  =      -1.3205309338944748 [Eh]
	 SCS Correlation Energy    =      -1.4257112600646065 [Eh]
	 SCS Total Energy          =    -310.5926397360386773 [Eh]
	-----------------------------------------------------------

  Dipole Moment: [D]
     X:    -0.0984      Y:     1.9732      Z:    -1.3169     Total:     2.3743

*** Psi4 exiting successfully. Buy a developer a beer!
