                               Psi4 1.3.2 release

  ==> Input File <==

--------------------------------------------------------------------------
#psi4
#
memory 32 gb

molecule  {
0 1
  O        0.3935890    -1.1834810     0.6928250
  C       -1.1417610     0.2981771    -0.3886132
  C        0.2489750    -0.1877140    -0.0130640
  C        1.4424983     0.6051251    -0.5040467
  C       -1.6230330     1.2650800     0.7040440
  C       -2.1008890    -0.8571740    -0.5744690
  C        2.7660710     0.0938090     0.0047360
  H       -1.0562100     0.8719860    -1.3362890
  H        1.2791640     1.6640640    -0.2248860
  H        1.4031030     0.6104820    -1.6083150
  H       -0.9521060     2.1204610     0.8293460
  H       -1.6846230     0.7313890     1.6588270
  H       -2.6168740     1.6507050     0.4584890
  H       -1.7562200    -1.5424760    -1.3562160
  H       -2.1750630    -1.4236530     0.3564710
  H       -3.0946750    -0.4900390    -0.8506910
  H        2.7911150     0.1168120     1.0954440
  H        2.9171760    -0.9417660    -0.3044500
  H        3.5913670     0.6986870    -0.3779970
units angstrom
no_reorient  #important for SAPT in psi4, default
symmetry c1  #important for SAPT in psi4, default
}

set PROPERTIES_ORIGIN ["COM"]
properties('MP2/aug-cc-pvtz', properties = ['dipole'])
--------------------------------------------------------------------------

    Molecular point group: c1
  Charge       = 0
  Multiplicity = 1
  Basis Set: AUG-CC-PVTZ
    Blend: AUG-CC-PVTZ
  Basis Set: (AUG-CC-PVTZ AUX)
    Blend: AUG-CC-PVTZ-JKFIT

    Orbital Energies [Eh]
    ---------------------

    Doubly Occupied:

       1A    -20.539979     2A    -11.324516     3A    -11.242815
       4A    -11.240231     5A    -11.228709     6A    -11.215602
       7A    -11.215079     8A     -1.372950     9A     -1.091568
      10A     -1.049334    11A     -0.938897    12A     -0.907434
      13A     -0.822041    14A     -0.719103    15A     -0.672312
      16A     -0.631269    17A     -0.624553    18A     -0.606541
      19A     -0.569068    20A     -0.553960    21A     -0.544811
      22A     -0.520061    23A     -0.512188    24A     -0.506817
      25A     -0.492834    26A     -0.478840    27A     -0.469365
      28A     -0.402139

  @DF-RHF Final Energy:  -309.17599209194526

   => Energetics <=

    Nuclear Repulsion Energy =            315.1743997915478985
    One-Electron Energy =               -1043.7147566183928120
    Two-Electron Energy =                 419.3643647348996524
    Total Energy =                       -309.1759920919452611
  Basis Set: (AUG-CC-PVTZ AUX)
    Blend: AUG-CC-PVTZ-RI
    Molecular point group: c1

    Geometry (in Angstrom), charge = 0, multiplicity = 1:

       Center              X                  Y                   Z               Mass
    ------------   -----------------  -----------------  -----------------  -----------------
         O            0.393256114037    -1.181247329176     0.691311711242    15.994914619570
         C           -1.142093885963     0.300410770824    -0.390126488758    12.000000000000
         C            0.248642114037    -0.185480329176    -0.014577288758    12.000000000000
         C            1.442165414037     0.607358770824    -0.505559988758    12.000000000000
         C           -1.623365885963     1.267313670824     0.702530711242    12.000000000000
         C           -2.101221885963    -0.854940329176    -0.575982288758    12.000000000000
         C            2.765738114037     0.096042670824     0.003222711242    12.000000000000
         H           -1.056542885963     0.874219670824    -1.337802288758     1.007825032230
         H            1.278831114037     1.666297670824    -0.226399288758     1.007825032230
         H            1.402770114037     0.612715670824    -1.609828288758     1.007825032230
         H           -0.952438885963     2.122694670824     0.827832711242     1.007825032230
         H           -1.684955885963     0.733622670824     1.657313711242     1.007825032230
         H           -2.617206885963     1.652938670824     0.456975711242     1.007825032230
         H           -1.756552885963    -1.540242329176    -1.357729288758     1.007825032230
         H           -2.175395885963    -1.421419329176     0.354957711242     1.007825032230
         H           -3.095007885963    -0.487805329176    -0.852204288758     1.007825032230
         H            2.790782114037     0.119045670824     1.093930711242     1.007825032230
         H            2.916843114037    -0.939532329176    -0.305963288758     1.007825032230
         H            3.591034114037     0.700920670824    -0.379510288758     1.007825032230

  Basis Set: AUG-CC-PVTZ
    Blend: AUG-CC-PVTZ
  Basis Set: (AUG-CC-PVTZ AUX)
    Blend: AUG-CC-PVTZ-JKFIT
	 Reference Energy          =    -309.1759920919452611 [Eh]
	 Singles Energy            =      -0.0000000000000000 [Eh]
	 Same-Spin Energy          =      -0.3171911492469763 [Eh]
	 Opposite-Spin Energy      =      -1.1036226154336903 [Eh]
	 Correlation Energy        =      -1.4208137646806667 [Eh]
	 Total Energy              =    -310.5968058566259060 [Eh]

	 ================> DF-SCS-MP2 Energies <==================
	-----------------------------------------------------------
	 SCS Same-Spin Scale       =       0.3333333333333333 [-]
	 SCS Opposite-Spin Scale   =       1.2000000000000000 [-]
	 SCS Same-Spin Energy      =      -0.1057303830823254 [Eh]
	 SCS Opposite-Spin Energy  =      -1.3243471385204284 [Eh]
	 SCS Correlation Energy    =      -1.4300775216027539 [Eh]
	 SCS Total Energy          =    -310.6060696135480157 [Eh]
	-----------------------------------------------------------

  Dipole Moment: [D]
     X:    -0.3601      Y:     2.2165      Z:    -1.4514     Total:     2.6738

*** Psi4 exiting successfully. Buy a developer a beer!
