                               Psi4 1.3.2 release

  ==> Input File <==

--------------------------------------------------------------------------
#psi4
#
memory 32 gb

molecule  {
0 1
  O        0.3935890    -1.1834810     0.6928250
  C       -1.1363630     0.3083220    -0.3952430
  C        0.2575100    -0.1626013    -0.0123289
  C        1.4343240     0.6136100    -0.5100380
  C       -1.6230330     1.2650800     0.7040440
  C       -2.1202462    -0.8399390    -0.5804016
  C        2.7660710     0.0938090     0.0047360
  H       -1.0562100     0.8719860    -1.3362890
  H        1.2791640     1.6640640    -0.2248860
  H        1.4031030     0.6104820    -1.6083150
  H       -0.9521060     2.1204610     0.8293460
  H       -1.6846230     0.7313890     1.6588270
  H       -2.6168740     1.6507050     0.4584890
  H       -1.7562200    -1.5424760    -1.3562160
  H       -2.1750630    -1.4236530     0.3564710
  H       -3.0946750    -0.4900390    -0.8506910
  H        2.7911150     0.1168120     1.0954440
  H        2.9171760    -0.9417660    -0.3044500
  H        3.5913670     0.6986870    -0.3779970
units angstrom
no_reorient  #important for SAPT in psi4, default
symmetry c1  #important for SAPT in psi4, default
}

set PROPERTIES_ORIGIN ["COM"]
properties('MP2/aug-cc-pvtz', properties = ['dipole'])
--------------------------------------------------------------------------

    Molecular point group: c1
  Charge       = 0
  Multiplicity = 1
  Basis Set: AUG-CC-PVTZ
    Blend: AUG-CC-PVTZ
  Basis Set: (AUG-CC-PVTZ AUX)
    Blend: AUG-CC-PVTZ-JKFIT

    Orbital Energies [Eh]
    ---------------------

    Doubly Occupied:

       1A    -20.539157     2A    -11.326838     3A    -11.242767
       4A    -11.240724     5A    -11.228476     6A    -11.216475
       7A    -11.216019     8A     -1.360561     9A     -1.092036
      10A     -1.050719    11A     -0.937402    12A     -0.910751
      13A     -0.824343    14A     -0.720439    15A     -0.671774
      16A     -0.633823    17A     -0.621755    18A     -0.602930
      19A     -0.570568    20A     -0.554424    21A     -0.543300
      22A     -0.520671    23A     -0.510116    24A     -0.506796
      25A     -0.490668    26A     -0.479256    27A     -0.464089
      28A     -0.405764

  @DF-RHF Final Energy:  -309.17276952439852

   => Energetics <=

    Nuclear Repulsion Energy =            314.8265207767690299
    One-Electron Energy =               -1043.0333060186812872
    Two-Electron Energy =                 419.0340157175137392
    Total Energy =                       -309.1727695243985181
  Basis Set: (AUG-CC-PVTZ AUX)
    Blend: AUG-CC-PVTZ-RI
    Molecular point group: c1

    Geometry (in Angstrom), charge = 0, multiplicity = 1:

       Center              X                  Y                   Z               Mass
    ------------   -----------------  -----------------  -----------------  -----------------
         O            0.394886486022    -1.188558136082     0.693448045857    15.994914619570
         C           -1.135065513978     0.303244863918    -0.394619954143    12.000000000000
         C            0.258807486022    -0.167678436082    -0.011705854143    12.000000000000
         C            1.435621486022     0.608532863918    -0.509414954143    12.000000000000
         C           -1.621735513978     1.260002863918     0.704667045857    12.000000000000
         C           -2.118948713978    -0.845016136082    -0.579778554143    12.000000000000
         C            2.767368486022     0.088731863918     0.005359045857    12.000000000000
         H           -1.054912513978     0.866908863918    -1.335665954143     1.007825032230
         H            1.280461486022     1.658986863918    -0.224262954143     1.007825032230
         H            1.404400486022     0.605404863918    -1.607691954143     1.007825032230
         H           -0.950808513978     2.115383863918     0.829969045857     1.007825032230
         H           -1.683325513978     0.726311863918     1.659450045857     1.007825032230
         H           -2.615576513978     1.645627863918     0.459112045857     1.007825032230
         H           -1.754922513978    -1.547553136082    -1.355592954143     1.007825032230
         H           -2.173765513978    -1.428730136082     0.357094045857     1.007825032230
         H           -3.093377513978    -0.495116136082    -0.850067954143     1.007825032230
         H            2.792412486022     0.111734863918     1.096067045857     1.007825032230
         H            2.918473486022    -0.946843136082    -0.303826954143     1.007825032230
         H            3.592664486022     0.693609863918    -0.377373954143     1.007825032230

  Basis Set: AUG-CC-PVTZ
    Blend: AUG-CC-PVTZ
  Basis Set: (AUG-CC-PVTZ AUX)
    Blend: AUG-CC-PVTZ-JKFIT
	 Reference Energy          =    -309.1727695243985181 [Eh]
	 Singles Energy            =      -0.0000000000000000 [Eh]
	 Same-Spin Energy          =      -0.3176815501097875 [Eh]
	 Opposite-Spin Energy      =      -1.1047545307588664 [Eh]
	 Correlation Energy        =      -1.4224360808686538 [Eh]
	 Total Energy              =    -310.5952056052671537 [Eh]

	 ================> DF-SCS-MP2 Energies <==================
	-----------------------------------------------------------
	 SCS Same-Spin Scale       =       0.3333333333333333 [-]
	 SCS Opposite-Spin Scale   =       1.2000000000000000 [-]
	 SCS Same-Spin Energy      =      -0.1058938500365958 [Eh]
	 SCS Opposite-Spin Energy  =      -1.3257054369106396 [Eh]
	 SCS Correlation Energy    =      -1.4315992869472354 [Eh]
	 SCS Total Energy          =    -310.6043688113457506 [Eh]
	-----------------------------------------------------------

  Dipole Moment: [D]
     X:    -0.3223      Y:     2.2918      Z:    -1.4982     Total:     2.7569

*** Psi4 exiting successfully. Buy a developer a beer!
