                               Psi4 1.3.2 release

  ==> Input File <==

--------------------------------------------------------------------------
#psi4
#
memory 32 gb

molecule  {
0 1
  O       -0.0101440     2.0708820    -0.1140410
  N        0.2351990    -0.2177110    -0.3583720
  C       -0.4115635    -1.4869409    -0.0644566
  C       -1.9502640    -0.9583450    -0.0482810
  C       -1.8489090     0.4999680     0.4010950
  C       -0.4582930     0.9265630    -0.0509830
  C        1.6617300    -0.1844710    -0.6214880
  C        2.4978900    -0.3314020     0.6460640
  H       -0.2060500    -1.8213230     0.9608810
  H       -0.2853850    -2.2161620    -0.7686800
  H       -2.5951790    -1.5710950     0.5868370
  H       -2.3326610    -1.0086390    -1.0720610
  H       -1.8916900     0.5931740     1.4933710
  H       -2.6106570     1.1621840    -0.0164710
  H        1.8952280    -0.9774960    -1.3410860
  H        1.8622980     0.7788290    -1.0968800
  H        2.2724650     0.4877290     1.3331980
  H        2.2931660    -1.2799200     1.1504100
  H        3.5653110    -0.2984830     0.4074420
units angstrom
no_reorient  #important for SAPT in psi4, default
symmetry c1  #important for SAPT in psi4, default
}

set PROPERTIES_ORIGIN ["COM"]
properties('MP2/aug-cc-pvtz', properties = ['dipole'])
--------------------------------------------------------------------------

    Molecular point group: c1
  Charge       = 0
  Multiplicity = 1
  Basis Set: AUG-CC-PVTZ
    Blend: AUG-CC-PVTZ
  Basis Set: (AUG-CC-PVTZ AUX)
    Blend: AUG-CC-PVTZ-JKFIT

    Orbital Energies [Eh]
    ---------------------

    Doubly Occupied:

       1A    -20.512823     2A    -15.582034     3A    -11.343333
       4A    -11.273327     5A    -11.258744     6A    -11.245433
       7A    -11.239809     8A    -11.217994     9A     -1.367275
      10A     -1.256350    11A     -1.079700    12A     -0.998649
      13A     -0.973305    14A     -0.868576    15A     -0.831877
      16A     -0.729183    17A     -0.689599    18A     -0.672405
      19A     -0.643230    20A     -0.605287    21A     -0.591812
      22A     -0.579385    23A     -0.560193    24A     -0.549236
      25A     -0.523486    26A     -0.515693    27A     -0.503918
      28A     -0.481860    29A     -0.470853    30A     -0.410833
      31A     -0.370985

  @DF-RHF Final Energy:  -363.06549227752970

   => Energetics <=

    Nuclear Repulsion Energy =            393.3919127534331324
    One-Electron Energy =               -1273.0204378032376553
    Two-Electron Energy =                 516.5630327722748234
    Total Energy =                       -363.0654922775296427
  Basis Set: (AUG-CC-PVTZ AUX)
    Blend: AUG-CC-PVTZ-RI
    Molecular point group: c1

    Geometry (in Angstrom), charge = 0, multiplicity = 1:

       Center              X                  Y                   Z               Mass
    ------------   -----------------  -----------------  -----------------  -----------------
         O           -0.001306143076     2.022598562116    -0.095919873552    15.994914619570
         N            0.244036856924    -0.265994437884    -0.340250873552    14.003074004430
         C           -0.402725643076    -1.535224337884    -0.046335473552    12.000000000000
         C           -1.941426143076    -1.006628437884    -0.030159873552    12.000000000000
         C           -1.840071143076     0.451684562116     0.419216126448    12.000000000000
         C           -0.449455143076     0.878279562116    -0.032861873552    12.000000000000
         C            1.670567856924    -0.232754437884    -0.603366873552    12.000000000000
         C            2.506727856924    -0.379685437884     0.664185126448    12.000000000000
         H           -0.197212143076    -1.869606437884     0.979002126448     1.007825032230
         H           -0.276547143076    -2.264445437884    -0.750558873552     1.007825032230
         H           -2.586341143076    -1.619378437884     0.604958126448     1.007825032230
         H           -2.323823143076    -1.056922437884    -1.053939873552     1.007825032230
         H           -1.882852143076     0.544890562116     1.511492126448     1.007825032230
         H           -2.601819143076     1.113900562116     0.001650126448     1.007825032230
         H            1.904065856924    -1.025779437884    -1.322964873552     1.007825032230
         H            1.871135856924     0.730545562116    -1.078758873552     1.007825032230
         H            2.281302856924     0.439445562116     1.351319126448     1.007825032230
         H            2.302003856924    -1.328203437884     1.168531126448     1.007825032230
         H            3.574148856924    -0.346766437884     0.425563126448     1.007825032230

  Basis Set: AUG-CC-PVTZ
    Blend: AUG-CC-PVTZ
  Basis Set: (AUG-CC-PVTZ AUX)
    Blend: AUG-CC-PVTZ-JKFIT
	 Reference Energy          =    -363.0654922775296995 [Eh]
	 Singles Energy            =      -0.0000000000000000 [Eh]
	 Same-Spin Energy          =      -0.3767988322572241 [Eh]
	 Opposite-Spin Energy      =      -1.2475855861541971 [Eh]
	 Correlation Energy        =      -1.6243844184114211 [Eh]
	 Total Energy              =    -364.6898766959411091 [Eh]

	 ================> DF-SCS-MP2 Energies <==================
	-----------------------------------------------------------
	 SCS Same-Spin Scale       =       0.3333333333333333 [-]
	 SCS Opposite-Spin Scale   =       1.2000000000000000 [-]
	 SCS Same-Spin Energy      =      -0.1255996107524080 [Eh]
	 SCS Opposite-Spin Energy  =      -1.4971027033850366 [Eh]
	 SCS Correlation Energy    =      -1.6227023141374446 [Eh]
	 SCS Total Energy          =    -364.6881945916671270 [Eh]
	-----------------------------------------------------------

  Dipole Moment: [D]
     X:    -0.4538      Y:    -3.9691      Z:     0.2222     Total:     4.0011

*** Psi4 exiting successfully. Buy a developer a beer!
