                               Psi4 1.3.2 release

  ==> Input File <==

--------------------------------------------------------------------------
#psi4
#
memory 32 gb

molecule  {
0 1
  O       -0.0101440     2.0708820    -0.1140410
  N        0.2571731    -0.2291671    -0.2601741
  C       -0.4908340    -1.4342940    -0.0290780
  C       -1.9502640    -0.9583450    -0.0482810
  C       -1.8489090     0.4999680     0.4010950
  C       -0.4582930     0.9265630    -0.0509830
  C        1.6617300    -0.1844710    -0.6214880
  C        2.4978900    -0.3314020     0.6460640
  H       -0.2060500    -1.8213230     0.9608810
  H       -0.2853850    -2.2161620    -0.7686800
  H       -2.5951790    -1.5710950     0.5868370
  H       -2.3326610    -1.0086390    -1.0720610
  H       -1.8916900     0.5931740     1.4933710
  H       -2.6106570     1.1621840    -0.0164710
  H        1.8952280    -0.9774960    -1.3410860
  H        1.8622980     0.7788290    -1.0968800
  H        2.2724650     0.4877290     1.3331980
  H        2.2931660    -1.2799200     1.1504100
  H        3.5653110    -0.2984830     0.4074420
units angstrom
no_reorient  #important for SAPT in psi4, default
symmetry c1  #important for SAPT in psi4, default
}

set PROPERTIES_ORIGIN ["COM"]
properties('MP2/aug-cc-pvtz', properties = ['dipole'])
--------------------------------------------------------------------------

    Molecular point group: c1
  Charge       = 0
  Multiplicity = 1
  Basis Set: AUG-CC-PVTZ
    Blend: AUG-CC-PVTZ
  Basis Set: (AUG-CC-PVTZ AUX)
    Blend: AUG-CC-PVTZ-JKFIT

    Orbital Energies [Eh]
    ---------------------

    Doubly Occupied:

       1A    -20.511347     2A    -15.579961     3A    -11.341529
       4A    -11.273883     5A    -11.261760     6A    -11.242833
       7A    -11.239587     8A    -11.216679     9A     -1.366586
      10A     -1.261263    11A     -1.088444    12A     -1.000052
      13A     -0.972997    14A     -0.868516    15A     -0.829757
      16A     -0.730022    17A     -0.691978    18A     -0.670660
      19A     -0.639965    20A     -0.605161    21A     -0.585888
      22A     -0.577092    23A     -0.561774    24A     -0.554688
      25A     -0.517877    26A     -0.517284    27A     -0.509450
      28A     -0.491862    29A     -0.476383    30A     -0.408423
      31A     -0.365989

  @DF-RHF Final Energy:  -363.07343812813076

   => Energetics <=

    Nuclear Repulsion Energy =            394.7132014819151209
    One-Electron Energy =               -1275.6539022235751872
    Two-Electron Energy =                 517.8672626135293058
    Total Energy =                       -363.0734381281307606
  Basis Set: (AUG-CC-PVTZ AUX)
    Blend: AUG-CC-PVTZ-RI
    Molecular point group: c1

    Geometry (in Angstrom), charge = 0, multiplicity = 1:

       Center              X                  Y                   Z               Mass
    ------------   -----------------  -----------------  -----------------  -----------------
         O            0.004384676911     2.018430493095    -0.111833837000    15.994914619570
         N            0.271701776911    -0.281618606905    -0.257966937000    14.003074004430
         C           -0.476305323089    -1.486745506905    -0.026870837000    12.000000000000
         C           -1.935735323089    -1.010796506905    -0.046073837000    12.000000000000
         C           -1.834380323089     0.447516493095     0.403302163000    12.000000000000
         C           -0.443764323089     0.874111493095    -0.048775837000    12.000000000000
         C            1.676258676911    -0.236922506905    -0.619280837000    12.000000000000
         C            2.512418676911    -0.383853506905     0.648271163000    12.000000000000
         H           -0.191521323089    -1.873774506905     0.963088163000     1.007825032230
         H           -0.270856323089    -2.268613506905    -0.766472837000     1.007825032230
         H           -2.580650323089    -1.623546506905     0.589044163000     1.007825032230
         H           -2.318132323089    -1.061090506905    -1.069853837000     1.007825032230
         H           -1.877161323089     0.540722493095     1.495578163000     1.007825032230
         H           -2.596128323089     1.109732493095    -0.014263837000     1.007825032230
         H            1.909756676911    -1.029947506905    -1.338878837000     1.007825032230
         H            1.876826676911     0.726377493095    -1.094672837000     1.007825032230
         H            2.286993676911     0.435277493095     1.335405163000     1.007825032230
         H            2.307694676911    -1.332371506905     1.152617163000     1.007825032230
         H            3.579839676911    -0.350934506905     0.409649163000     1.007825032230

  Basis Set: AUG-CC-PVTZ
    Blend: AUG-CC-PVTZ
  Basis Set: (AUG-CC-PVTZ AUX)
    Blend: AUG-CC-PVTZ-JKFIT
	 Reference Energy          =    -363.0734381281307606 [Eh]
	 Singles Energy            =      -0.0000000000000000 [Eh]
	 Same-Spin Energy          =      -0.3770444632937689 [Eh]
	 Opposite-Spin Energy      =      -1.2472187260368905 [Eh]
	 Correlation Energy        =      -1.6242631893306596 [Eh]
	 Total Energy              =    -364.6977013174613944 [Eh]

	 ================> DF-SCS-MP2 Energies <==================
	-----------------------------------------------------------
	 SCS Same-Spin Scale       =       0.3333333333333333 [-]
	 SCS Opposite-Spin Scale   =       1.2000000000000000 [-]
	 SCS Same-Spin Energy      =      -0.1256814877645896 [Eh]
	 SCS Opposite-Spin Energy  =      -1.4966624712442687 [Eh]
	 SCS Correlation Energy    =      -1.6223439590088584 [Eh]
	 SCS Total Energy          =    -364.6957820871396052 [Eh]
	-----------------------------------------------------------

  Dipole Moment: [D]
     X:    -0.4939      Y:    -3.9596      Z:     0.0929     Total:     3.9913

*** Psi4 exiting successfully. Buy a developer a beer!
