                               Psi4 1.3.2 release

  ==> Input File <==

--------------------------------------------------------------------------
#psi4
#
memory 32 gb

molecule  {
0 1
  O       -0.0289193     2.0784299    -0.1068451
  N        0.2351990    -0.2177110    -0.3583720
  C       -0.4908340    -1.4342940    -0.0290780
  C       -1.9502640    -0.9583450    -0.0482810
  C       -1.8489090     0.4999680     0.4010950
  C       -0.4582930     0.9265630    -0.0509830
  C        1.6617300    -0.1844710    -0.6214880
  C        2.4978900    -0.3314020     0.6460640
  H       -0.2060500    -1.8213230     0.9608810
  H       -0.2853850    -2.2161620    -0.7686800
  H       -2.5951790    -1.5710950     0.5868370
  H       -2.3326610    -1.0086390    -1.0720610
  H       -1.8916900     0.5931740     1.4933710
  H       -2.6106570     1.1621840    -0.0164710
  H        1.8952280    -0.9774960    -1.3410860
  H        1.8622980     0.7788290    -1.0968800
  H        2.2724650     0.4877290     1.3331980
  H        2.2931660    -1.2799200     1.1504100
  H        3.5653110    -0.2984830     0.4074420
units angstrom
no_reorient  #important for SAPT in psi4, default
symmetry c1  #important for SAPT in psi4, default
}

set PROPERTIES_ORIGIN ["COM"]
properties('MP2/aug-cc-pvtz', properties = ['dipole'])
--------------------------------------------------------------------------

    Molecular point group: c1
  Charge       = 0
  Multiplicity = 1
  Basis Set: AUG-CC-PVTZ
    Blend: AUG-CC-PVTZ
  Basis Set: (AUG-CC-PVTZ AUX)
    Blend: AUG-CC-PVTZ-JKFIT

    Orbital Energies [Eh]
    ---------------------

    Doubly Occupied:

       1A    -20.511857     2A    -15.581881     3A    -11.341368
       4A    -11.275199     5A    -11.261577     6A    -11.242052
       7A    -11.238909     8A    -11.219082     9A     -1.366569
      10A     -1.259431    11A     -1.087762    12A     -1.000793
      13A     -0.971968    14A     -0.870582    15A     -0.829409
      16A     -0.726689    17A     -0.693339    18A     -0.667711
      19A     -0.639421    20A     -0.604809    21A     -0.589366
      22A     -0.572494    23A     -0.563315    24A     -0.554586
      25A     -0.523150    26A     -0.513507    27A     -0.509539
      28A     -0.490485    29A     -0.477172    30A     -0.408878
      31A     -0.370213

  @DF-RHF Final Energy:  -363.07593961058632

   => Energetics <=

    Nuclear Repulsion Energy =            394.1632002679655784
    One-Electron Energy =               -1274.5520549965535793
    Two-Electron Energy =                 517.3129151180016834
    Total Energy =                       -363.0759396105863743
  Basis Set: (AUG-CC-PVTZ AUX)
    Blend: AUG-CC-PVTZ-RI
    Molecular point group: c1

    Geometry (in Angstrom), charge = 0, multiplicity = 1:

       Center              X                  Y                   Z               Mass
    ------------   -----------------  -----------------  -----------------  -----------------
         O           -0.009013965693     2.023492201652    -0.093496007622    15.994914619570
         N            0.255104334307    -0.272648698348    -0.345022907622    14.003074004430
         C           -0.470928665693    -1.489231698348    -0.015728907622    12.000000000000
         C           -1.930358665693    -1.013282698348    -0.034931907622    12.000000000000
         C           -1.829003665693     0.445030301652     0.414444092378    12.000000000000
         C           -0.438387665693     0.871625301652    -0.037633907622    12.000000000000
         C            1.681635334307    -0.239408698348    -0.608138907622    12.000000000000
         C            2.517795334307    -0.386339698348     0.659413092378    12.000000000000
         H           -0.186144665693    -1.876260698348     0.974230092378     1.007825032230
         H           -0.265479665693    -2.271099698348    -0.755330907622     1.007825032230
         H           -2.575273665693    -1.626032698348     0.600186092378     1.007825032230
         H           -2.312755665693    -1.063576698348    -1.058711907622     1.007825032230
         H           -1.871784665693     0.538236301652     1.506720092378     1.007825032230
         H           -2.590751665693     1.107246301652    -0.003121907622     1.007825032230
         H            1.915133334307    -1.032433698348    -1.327736907622     1.007825032230
         H            1.882203334307     0.723891301652    -1.083530907622     1.007825032230
         H            2.292370334307     0.432791301652     1.346547092378     1.007825032230
         H            2.313071334307    -1.334857698348     1.163759092378     1.007825032230
         H            3.585216334307    -0.353420698348     0.420791092378     1.007825032230

  Basis Set: AUG-CC-PVTZ
    Blend: AUG-CC-PVTZ
  Basis Set: (AUG-CC-PVTZ AUX)
    Blend: AUG-CC-PVTZ-JKFIT
	 Reference Energy          =    -363.0759396105863175 [Eh]
	 Singles Energy            =      -0.0000000000000000 [Eh]
	 Same-Spin Energy          =      -0.3767467370892412 [Eh]
	 Opposite-Spin Energy      =      -1.2469036447865607 [Eh]
	 Correlation Energy        =      -1.6236503818758019 [Eh]
	 Total Energy              =    -364.6995899924621085 [Eh]

	 ================> DF-SCS-MP2 Energies <==================
	-----------------------------------------------------------
	 SCS Same-Spin Scale       =       0.3333333333333333 [-]
	 SCS Opposite-Spin Scale   =       1.2000000000000000 [-]
	 SCS Same-Spin Energy      =      -0.1255822456964137 [Eh]
	 SCS Opposite-Spin Energy  =      -1.4962843737438727 [Eh]
	 SCS Correlation Energy    =      -1.6218666194402864 [Eh]
	 SCS Total Energy          =    -364.6978062300266288 [Eh]
	-----------------------------------------------------------

  Dipole Moment: [D]
     X:    -0.4087      Y:    -3.9651      Z:     0.2376     Total:     3.9932

*** Psi4 exiting successfully. Buy a developer a beer!
