                               Psi4 1.3.2 release

  ==> Input File <==

--------------------------------------------------------------------------
#psi4
#
memory 32 gb

molecule  {
0 1
  O       -0.0101440     2.0708820    -0.1140410
  N        0.2351990    -0.2177110    -0.3583720
  C       -0.4029699    -1.4845733    -0.0367620
  C       -1.9502640    -0.9583450    -0.0482810
  C       -1.8489090     0.4999680     0.4010950
  C       -0.4582930     0.9265630    -0.0509830
  C        1.6617300    -0.1844710    -0.6214880
  C        2.4978900    -0.3314020     0.6460640
  H       -0.2060500    -1.8213230     0.9608810
  H       -0.2853850    -2.2161620    -0.7686800
  H       -2.5951790    -1.5710950     0.5868370
  H       -2.3326610    -1.0086390    -1.0720610
  H       -1.8916900     0.5931740     1.4933710
  H       -2.6106570     1.1621840    -0.0164710
  H        1.8952280    -0.9774960    -1.3410860
  H        1.8622980     0.7788290    -1.0968800
  H        2.2724650     0.4877290     1.3331980
  H        2.2931660    -1.2799200     1.1504100
  H        3.5653110    -0.2984830     0.4074420
units angstrom
no_reorient  #important for SAPT in psi4, default
symmetry c1  #important for SAPT in psi4, default
}

set PROPERTIES_ORIGIN ["COM"]
properties('MP2/aug-cc-pvtz', properties = ['dipole'])
--------------------------------------------------------------------------

    Molecular point group: c1
  Charge       = 0
  Multiplicity = 1
  Basis Set: AUG-CC-PVTZ
    Blend: AUG-CC-PVTZ
  Basis Set: (AUG-CC-PVTZ AUX)
    Blend: AUG-CC-PVTZ-JKFIT

    Orbital Energies [Eh]
    ---------------------

    Doubly Occupied:

       1A    -20.512927     2A    -15.581885     3A    -11.343194
       4A    -11.272772     5A    -11.258573     6A    -11.245521
       7A    -11.239527     8A    -11.218180     9A     -1.367316
      10A     -1.256289    11A     -1.079284    12A     -0.998586
      13A     -0.972322    14A     -0.868861    15A     -0.831475
      16A     -0.728823    17A     -0.692470    18A     -0.669089
      19A     -0.642547    20A     -0.605478    21A     -0.594922
      22A     -0.577457    23A     -0.560840    24A     -0.549160
      25A     -0.524442    26A     -0.514654    27A     -0.502878
      28A     -0.481761    29A     -0.470006    30A     -0.410945
      31A     -0.372066

  @DF-RHF Final Energy:  -363.06645307483217

   => Energetics <=

    Nuclear Repulsion Energy =            393.4052062199376110
    One-Electron Energy =               -1273.0548161172234813
    Two-Electron Energy =                 516.5831568224538159
    Total Energy =                       -363.0664530748321113
  Basis Set: (AUG-CC-PVTZ AUX)
    Blend: AUG-CC-PVTZ-RI
    Molecular point group: c1

    Geometry (in Angstrom), charge = 0, multiplicity = 1:

       Center              X                  Y                   Z               Mass
    ------------   -----------------  -----------------  -----------------  -----------------
         O           -0.002218059366     2.022347322472    -0.098858706737    15.994914619570
         N            0.243124940634    -0.266245677528    -0.343189706737    14.003074004430
         C           -0.395043959366    -1.533107977528    -0.021579706737    12.000000000000
         C           -1.942338059366    -1.006879677528    -0.033098706737    12.000000000000
         C           -1.840983059366     0.451433322472     0.416277293263    12.000000000000
         C           -0.450367059366     0.878028322472    -0.035800706737    12.000000000000
         C            1.669655940634    -0.233005677528    -0.606305706737    12.000000000000
         C            2.505815940634    -0.379936677528     0.661246293263    12.000000000000
         H           -0.198124059366    -1.869857677528     0.976063293263     1.007825032230
         H           -0.277459059366    -2.264696677528    -0.753497706737     1.007825032230
         H           -2.587253059366    -1.619629677528     0.602019293263     1.007825032230
         H           -2.324735059366    -1.057173677528    -1.056878706737     1.007825032230
         H           -1.883764059366     0.544639322472     1.508553293263     1.007825032230
         H           -2.602731059366     1.113649322472    -0.001288706737     1.007825032230
         H            1.903153940634    -1.026030677528    -1.325903706737     1.007825032230
         H            1.870223940634     0.730294322472    -1.081697706737     1.007825032230
         H            2.280390940634     0.439194322472     1.348380293263     1.007825032230
         H            2.301091940634    -1.328454677528     1.165592293263     1.007825032230
         H            3.573236940634    -0.347017677528     0.422624293263     1.007825032230

  Basis Set: AUG-CC-PVTZ
    Blend: AUG-CC-PVTZ
  Basis Set: (AUG-CC-PVTZ AUX)
    Blend: AUG-CC-PVTZ-JKFIT
	 Reference Energy          =    -363.0664530748321681 [Eh]
	 Singles Energy            =      -0.0000000000000000 [Eh]
	 Same-Spin Energy          =      -0.3768047664150138 [Eh]
	 Opposite-Spin Energy      =      -1.2476042320346759 [Eh]
	 Correlation Energy        =      -1.6244089984496897 [Eh]
	 Total Energy              =    -364.6908620732818349 [Eh]

	 ================> DF-SCS-MP2 Energies <==================
	-----------------------------------------------------------
	 SCS Same-Spin Scale       =       0.3333333333333333 [-]
	 SCS Opposite-Spin Scale   =       1.2000000000000000 [-]
	 SCS Same-Spin Energy      =      -0.1256015888050046 [Eh]
	 SCS Opposite-Spin Energy  =      -1.4971250784416110 [Eh]
	 SCS Correlation Energy    =      -1.6227266672466156 [Eh]
	 SCS Total Energy          =    -364.6891797420788066 [Eh]
	-----------------------------------------------------------

  Dipole Moment: [D]
     X:    -0.4475      Y:    -3.9625      Z:     0.2611     Total:     3.9963

*** Psi4 exiting successfully. Buy a developer a beer!
