                               Psi4 1.3.2 release

  ==> Input File <==

--------------------------------------------------------------------------
#psi4
#
memory 32 gb

molecule  {
0 1
  O       -0.0101440     2.0708820    -0.1140410
  N        0.2351990    -0.2177110    -0.3583720
  C       -0.5101137    -1.4201955    -0.0204774
  C       -1.9502640    -0.9583450    -0.0482810
  C       -1.8489090     0.4999680     0.4010950
  C       -0.4582930     0.9265630    -0.0509830
  C        1.6617300    -0.1844710    -0.6214880
  C        2.4978900    -0.3314020     0.6460640
  H       -0.2060500    -1.8213230     0.9608810
  H       -0.2853850    -2.2161620    -0.7686800
  H       -2.5951790    -1.5710950     0.5868370
  H       -2.3326610    -1.0086390    -1.0720610
  H       -1.8916900     0.5931740     1.4933710
  H       -2.6106570     1.1621840    -0.0164710
  H        1.8952280    -0.9774960    -1.3410860
  H        1.8622980     0.7788290    -1.0968800
  H        2.2724650     0.4877290     1.3331980
  H        2.2931660    -1.2799200     1.1504100
  H        3.5653110    -0.2984830     0.4074420
units angstrom
no_reorient  #important for SAPT in psi4, default
symmetry c1  #important for SAPT in psi4, default
}

set PROPERTIES_ORIGIN ["COM"]
properties('MP2/aug-cc-pvtz', properties = ['dipole'])
--------------------------------------------------------------------------

    Molecular point group: c1
  Charge       = 0
  Multiplicity = 1
  Basis Set: AUG-CC-PVTZ
    Blend: AUG-CC-PVTZ
  Basis Set: (AUG-CC-PVTZ AUX)
    Blend: AUG-CC-PVTZ-JKFIT

    Orbital Energies [Eh]
    ---------------------

    Doubly Occupied:

       1A    -20.511369     2A    -15.580849     3A    -11.340947
       4A    -11.275713     5A    -11.261516     6A    -11.241681
       7A    -11.240093     8A    -11.218841     9A     -1.366858
      10A     -1.259250    11A     -1.090393    12A     -1.001195
      13A     -0.971928    14A     -0.870742    15A     -0.828787
      16A     -0.726218    17A     -0.694233    18A     -0.667128
      19A     -0.638441    20A     -0.604658    21A     -0.588746
      22A     -0.570506    23A     -0.564412    24A     -0.556422
      25A     -0.522882    26A     -0.514967    27A     -0.508630
      28A     -0.492170    29A     -0.476679    30A     -0.409067
      31A     -0.368918

  @DF-RHF Final Energy:  -363.07509722403489

   => Energetics <=

    Nuclear Repulsion Energy =            394.5315726308492685
    One-Electron Energy =               -1275.2848659642197617
    Two-Electron Energy =                 517.6781961093355449
    Total Energy =                       -363.0750972240349483
  Basis Set: (AUG-CC-PVTZ AUX)
    Blend: AUG-CC-PVTZ-RI
    Molecular point group: c1

    Geometry (in Angstrom), charge = 0, multiplicity = 1:

       Center              X                  Y                   Z               Mass
    ------------   -----------------  -----------------  -----------------  -----------------
         O            0.009151585081     2.015515824091    -0.100586759242    15.994914619570
         N            0.254494585081    -0.273077175909    -0.344917759242    14.003074004430
         C           -0.490818114919    -1.475561675909    -0.007023159242    12.000000000000
         C           -1.930968414919    -1.013711175909    -0.034826759242    12.000000000000
         C           -1.829613414919     0.444601824091     0.414549240758    12.000000000000
         C           -0.438997414919     0.871196824091    -0.037528759242    12.000000000000
         C            1.681025585081    -0.239837175909    -0.608033759242    12.000000000000
         C            2.517185585081    -0.386768175909     0.659518240758    12.000000000000
         H           -0.186754414919    -1.876689175909     0.974335240758     1.007825032230
         H           -0.266089414919    -2.271528175909    -0.755225759242     1.007825032230
         H           -2.575883414919    -1.626461175909     0.600291240758     1.007825032230
         H           -2.313365414919    -1.064005175909    -1.058606759242     1.007825032230
         H           -1.872394414919     0.537807824091     1.506825240758     1.007825032230
         H           -2.591361414919     1.106817824091    -0.003016759242     1.007825032230
         H            1.914523585081    -1.032862175909    -1.327631759242     1.007825032230
         H            1.881593585081     0.723462824091    -1.083425759242     1.007825032230
         H            2.291760585081     0.432362824091     1.346652240758     1.007825032230
         H            2.312461585081    -1.335286175909     1.163864240758     1.007825032230
         H            3.584606585081    -0.353849175909     0.420896240758     1.007825032230

  Basis Set: AUG-CC-PVTZ
    Blend: AUG-CC-PVTZ
  Basis Set: (AUG-CC-PVTZ AUX)
    Blend: AUG-CC-PVTZ-JKFIT
	 Reference Energy          =    -363.0750972240348915 [Eh]
	 Singles Energy            =      -0.0000000000000000 [Eh]
	 Same-Spin Energy          =      -0.3769158506626116 [Eh]
	 Opposite-Spin Energy      =      -1.2470109801787082 [Eh]
	 Correlation Energy        =      -1.6239268308413197 [Eh]
	 Total Energy              =    -364.6990240548761903 [Eh]

	 ================> DF-SCS-MP2 Energies <==================
	-----------------------------------------------------------
	 SCS Same-Spin Scale       =       0.3333333333333333 [-]
	 SCS Opposite-Spin Scale   =       1.2000000000000000 [-]
	 SCS Same-Spin Energy      =      -0.1256386168875372 [Eh]
	 SCS Opposite-Spin Energy  =      -1.4964131762144497 [Eh]
	 SCS Correlation Energy    =      -1.6220517931019869 [Eh]
	 SCS Total Energy          =    -364.6971490171368941 [Eh]
	-----------------------------------------------------------

  Dipole Moment: [D]
     X:    -0.4685      Y:    -3.9327      Z:     0.2630     Total:     3.9692

*** Psi4 exiting successfully. Buy a developer a beer!
