                               Psi4 1.3.2 release

  ==> Input File <==

--------------------------------------------------------------------------
#psi4
#
memory 32 gb

molecule  {
0 1
  O       -0.0101440     2.0708820    -0.1140410
  N        0.2351990    -0.2177110    -0.3583720
  C       -0.4908340    -1.4342940    -0.0290780
  C       -1.9502640    -0.9583450    -0.0482810
  C       -1.8489090     0.4999680     0.4010950
  C       -0.4582930     0.9265630    -0.0509830
  C        1.7600454    -0.1821801    -0.6396217
  C        2.4978900    -0.3314020     0.6460640
  H       -0.2060500    -1.8213230     0.9608810
  H       -0.2853850    -2.2161620    -0.7686800
  H       -2.5951790    -1.5710950     0.5868370
  H       -2.3326610    -1.0086390    -1.0720610
  H       -1.8916900     0.5931740     1.4933710
  H       -2.6106570     1.1621840    -0.0164710
  H        1.8952280    -0.9774960    -1.3410860
  H        1.8622980     0.7788290    -1.0968800
  H        2.2724650     0.4877290     1.3331980
  H        2.2931660    -1.2799200     1.1504100
  H        3.5653110    -0.2984830     0.4074420
units angstrom
no_reorient  #important for SAPT in psi4, default
symmetry c1  #important for SAPT in psi4, default
}

set PROPERTIES_ORIGIN ["COM"]
properties('MP2/aug-cc-pvtz', properties = ['dipole'])
--------------------------------------------------------------------------

    Molecular point group: c1
  Charge       = 0
  Multiplicity = 1
  Basis Set: AUG-CC-PVTZ
    Blend: AUG-CC-PVTZ
  Basis Set: (AUG-CC-PVTZ AUX)
    Blend: AUG-CC-PVTZ-JKFIT

    Orbital Energies [Eh]
    ---------------------

    Doubly Occupied:

       1A    -20.507222     2A    -15.576013     3A    -11.337065
       4A    -11.271430     5A    -11.265622     6A    -11.239724
       7A    -11.237025     8A    -11.221672     9A     -1.360905
      10A     -1.243831    11A     -1.081910    12A     -1.009228
      13A     -0.967634    14A     -0.866669    15A     -0.825294
      16A     -0.720605    17A     -0.687586    18A     -0.662647
      19A     -0.641552    20A     -0.606030    21A     -0.587517
      22A     -0.571616    23A     -0.563752    24A     -0.552199
      25A     -0.529014    26A     -0.512041    27A     -0.506330
      28A     -0.491001    29A     -0.475423    30A     -0.404280
      31A     -0.367926

  @DF-RHF Final Energy:  -363.06758042122959

   => Energetics <=

    Nuclear Repulsion Energy =            392.7262267696724507
    One-Electron Energy =               -1271.8060903953087291
    Two-Electron Energy =                 516.0122832044067991
    Total Energy =                       -363.0675804212295361
  Basis Set: (AUG-CC-PVTZ AUX)
    Blend: AUG-CC-PVTZ-RI
    Molecular point group: c1

    Geometry (in Angstrom), charge = 0, multiplicity = 1:

       Center              X                  Y                   Z               Mass
    ------------   -----------------  -----------------  -----------------  -----------------
         O           -0.003327106879     2.016768796393    -0.097749829009    15.994914619570
         N            0.242015893121    -0.271824203607    -0.342080829009    14.003074004430
         C           -0.484017106879    -1.488407203607    -0.012786829009    12.000000000000
         C           -1.943447106879    -1.012458203607    -0.031989829009    12.000000000000
         C           -1.842092106879     0.445854796393     0.417386170991    12.000000000000
         C           -0.451476106879     0.872449796393    -0.034691829009    12.000000000000
         C            1.766862293121    -0.236293303607    -0.623330529009    12.000000000000
         C            2.504706893121    -0.385515203607     0.662355170991    12.000000000000
         H           -0.199233106879    -1.875436203607     0.977172170991     1.007825032230
         H           -0.278568106879    -2.270275203607    -0.752388829009     1.007825032230
         H           -2.588362106879    -1.625208203607     0.603128170991     1.007825032230
         H           -2.325844106879    -1.062752203607    -1.055769829009     1.007825032230
         H           -1.884873106879     0.539060796393     1.509662170991     1.007825032230
         H           -2.603840106879     1.108070796393    -0.000179829009     1.007825032230
         H            1.902044893121    -1.031609203607    -1.324794829009     1.007825032230
         H            1.869114893121     0.724715796393    -1.080588829009     1.007825032230
         H            2.279281893121     0.433615796393     1.349489170991     1.007825032230
         H            2.299982893121    -1.334033203607     1.166701170991     1.007825032230
         H            3.572127893121    -0.352596203607     0.423733170991     1.007825032230

  Basis Set: AUG-CC-PVTZ
    Blend: AUG-CC-PVTZ
  Basis Set: (AUG-CC-PVTZ AUX)
    Blend: AUG-CC-PVTZ-JKFIT
	 Reference Energy          =    -363.0675804212295930 [Eh]
	 Singles Energy            =      -0.0000000000000000 [Eh]
	 Same-Spin Energy          =      -0.3768061212280752 [Eh]
	 Opposite-Spin Energy      =      -1.2475902563525838 [Eh]
	 Correlation Energy        =      -1.6243963775806589 [Eh]
	 Total Energy              =    -364.6919767988102308 [Eh]

	 ================> DF-SCS-MP2 Energies <==================
	-----------------------------------------------------------
	 SCS Same-Spin Scale       =       0.3333333333333333 [-]
	 SCS Opposite-Spin Scale   =       1.2000000000000000 [-]
	 SCS Same-Spin Energy      =      -0.1256020404093584 [Eh]
	 SCS Opposite-Spin Energy  =      -1.4971083076231004 [Eh]
	 SCS Correlation Energy    =      -1.6227103480324587 [Eh]
	 SCS Total Energy          =    -364.6902907692620488 [Eh]
	-----------------------------------------------------------

  Dipole Moment: [D]
     X:    -0.1396      Y:    -4.0113      Z:     0.2362     Total:     4.0206

*** Psi4 exiting successfully. Buy a developer a beer!
