                               Psi4 1.3.2 release

  ==> Input File <==

--------------------------------------------------------------------------
#psi4
#
memory 32 gb

molecule  {
0 1
  O       -0.0101440     2.0708820    -0.1140410
  N        0.2351990    -0.2177110    -0.3583720
  C       -0.4908340    -1.4342940    -0.0290780
  C       -1.9502640    -0.9583450    -0.0482810
  C       -1.8489090     0.4999680     0.4010950
  C       -0.4582930     0.9265630    -0.0509830
  C        1.6617300    -0.1844710    -0.6214880
  C        2.4978900    -0.3314020     0.6460640
  H       -0.2060500    -1.8213230     0.9608810
  H       -0.2853850    -2.2161620    -0.7686800
  H       -2.5951790    -1.5710950     0.5868370
  H       -2.3326610    -1.0086390    -1.0720610
  H       -1.9767577     0.6686739     1.4775603
  H       -2.6106570     1.1621840    -0.0164710
  H        1.8952280    -0.9774960    -1.3410860
  H        1.8622980     0.7788290    -1.0968800
  H        2.2724650     0.4877290     1.3331980
  H        2.2931660    -1.2799200     1.1504100
  H        3.5653110    -0.2984830     0.4074420
units angstrom
no_reorient  #important for SAPT in psi4, default
symmetry c1  #important for SAPT in psi4, default
}

set PROPERTIES_ORIGIN ["COM"]
properties('MP2/aug-cc-pvtz', properties = ['dipole'])
--------------------------------------------------------------------------

    Molecular point group: c1
  Charge       = 0
  Multiplicity = 1
  Basis Set: AUG-CC-PVTZ
    Blend: AUG-CC-PVTZ
  Basis Set: (AUG-CC-PVTZ AUX)
    Blend: AUG-CC-PVTZ-JKFIT

    Orbital Energies [Eh]
    ---------------------

    Doubly Occupied:

       1A    -20.511497     2A    -15.581155     3A    -11.341837
       4A    -11.274866     5A    -11.261005     6A    -11.242982
       7A    -11.239362     8A    -11.218626     9A     -1.366774
      10A     -1.258486    11A     -1.087272    12A     -1.000455
      13A     -0.972054    14A     -0.870324    15A     -0.830788
      16A     -0.727302    17A     -0.692718    18A     -0.666955
      19A     -0.640395    20A     -0.604828    21A     -0.585741
      22A     -0.571097    23A     -0.564478    24A     -0.554007
      25A     -0.522967    26A     -0.513446    27A     -0.511876
      28A     -0.489703    29A     -0.474958    30A     -0.409698
      31A     -0.369422

  @DF-RHF Final Energy:  -363.07461319838467

   => Energetics <=

    Nuclear Repulsion Energy =            394.1276273620912320
    One-Electron Energy =               -1274.4903328131783837
    Two-Electron Energy =                 517.2880922527024268
    Total Energy =                       -363.0746131983846681
  Basis Set: (AUG-CC-PVTZ AUX)
    Blend: AUG-CC-PVTZ-RI
    Molecular point group: c1

    Geometry (in Angstrom), charge = 0, multiplicity = 1:

       Center              X                  Y                   Z               Mass
    ------------   -----------------  -----------------  -----------------  -----------------
         O            0.007863843578     2.016339028596    -0.099533192408    15.994914619570
         N            0.253206843578    -0.272253971404    -0.343864192408    14.003074004430
         C           -0.472826156422    -1.488836971404    -0.014570192408    12.000000000000
         C           -1.932256156422    -1.012887971404    -0.033773192408    12.000000000000
         C           -1.830901156422     0.445425028596     0.415602807592    12.000000000000
         C           -0.440285156422     0.872020028596    -0.036475192408    12.000000000000
         C            1.679737843578    -0.239013971404    -0.606980192408    12.000000000000
         C            2.515897843578    -0.385944971404     0.660571807592    12.000000000000
         H           -0.188042156422    -1.875865971404     0.975388807592     1.007825032230
         H           -0.267377156422    -2.270704971404    -0.754172192408     1.007825032230
         H           -2.577171156422    -1.625637971404     0.601344807592     1.007825032230
         H           -2.314653156422    -1.063181971404    -1.057553192408     1.007825032230
         H           -1.958749856422     0.614130928596     1.492068107592     1.007825032230
         H           -2.592649156422     1.107641028596    -0.001963192408     1.007825032230
         H            1.913235843578    -1.032038971404    -1.326578192408     1.007825032230
         H            1.880305843578     0.724286028596    -1.082372192408     1.007825032230
         H            2.290472843578     0.433186028596     1.347705807592     1.007825032230
         H            2.311173843578    -1.334462971404     1.164917807592     1.007825032230
         H            3.583318843578    -0.353025971404     0.421949807592     1.007825032230

  Basis Set: AUG-CC-PVTZ
    Blend: AUG-CC-PVTZ
  Basis Set: (AUG-CC-PVTZ AUX)
    Blend: AUG-CC-PVTZ-JKFIT
	 Reference Energy          =    -363.0746131983846681 [Eh]
	 Singles Energy            =      -0.0000000000000000 [Eh]
	 Same-Spin Energy          =      -0.3768095358403628 [Eh]
	 Opposite-Spin Energy      =      -1.2469068013384264 [Eh]
	 Correlation Energy        =      -1.6237163371787893 [Eh]
	 Total Energy              =    -364.6983295355634596 [Eh]

	 ================> DF-SCS-MP2 Energies <==================
	-----------------------------------------------------------
	 SCS Same-Spin Scale       =       0.3333333333333333 [-]
	 SCS Opposite-Spin Scale   =       1.2000000000000000 [-]
	 SCS Same-Spin Energy      =      -0.1256031786134543 [Eh]
	 SCS Opposite-Spin Energy  =      -1.4962881616061117 [Eh]
	 SCS Correlation Energy    =      -1.6218913402195660 [Eh]
	 SCS Total Energy          =    -364.6965045386042448 [Eh]
	-----------------------------------------------------------

  Dipole Moment: [D]
     X:    -0.4906      Y:    -3.9276      Z:     0.2629     Total:     3.9669

*** Psi4 exiting successfully. Buy a developer a beer!
