                               Psi4 1.3.2 release

  ==> Input File <==

--------------------------------------------------------------------------
#psi4
#
memory 32 gb

molecule  {
0 1
  O       -0.0101440     2.0708820    -0.1140410
  N        0.2351990    -0.2177110    -0.3583720
  C       -0.4908340    -1.4342940    -0.0290780
  C       -1.9502640    -0.9583450    -0.0482810
  C       -1.8161203     0.5093656     0.3600321
  C       -0.4582930     0.9265630    -0.0509830
  C        1.6617300    -0.1844710    -0.6214880
  C        2.4978900    -0.3314020     0.6460640
  H       -0.2060500    -1.8213230     0.9608810
  H       -0.2853850    -2.2161620    -0.7686800
  H       -2.5951790    -1.5710950     0.5868370
  H       -2.3326610    -1.0086390    -1.0720610
  H       -1.8916900     0.5931740     1.4933710
  H       -2.6106570     1.1621840    -0.0164710
  H        1.8952280    -0.9774960    -1.3410860
  H        1.8622980     0.7788290    -1.0968800
  H        2.2724650     0.4877290     1.3331980
  H        2.2931660    -1.2799200     1.1504100
  H        3.5653110    -0.2984830     0.4074420
units angstrom
no_reorient  #important for SAPT in psi4, default
symmetry c1  #important for SAPT in psi4, default
}

set PROPERTIES_ORIGIN ["COM"]
properties('MP2/aug-cc-pvtz', properties = ['dipole'])
--------------------------------------------------------------------------

    Molecular point group: c1
  Charge       = 0
  Multiplicity = 1
  Basis Set: AUG-CC-PVTZ
    Blend: AUG-CC-PVTZ
  Basis Set: (AUG-CC-PVTZ AUX)
    Blend: AUG-CC-PVTZ-JKFIT

    Orbital Energies [Eh]
    ---------------------

    Doubly Occupied:

       1A    -20.510777     2A    -15.580742     3A    -11.339707
       4A    -11.274865     5A    -11.260626     6A    -11.242976
       7A    -11.241555     8A    -11.218459     9A     -1.367829
      10A     -1.259607    11A     -1.090018    12A     -0.999847
      13A     -0.976049    14A     -0.870872    15A     -0.829209
      16A     -0.728440    17A     -0.692985    18A     -0.668790
      19A     -0.640593    20A     -0.603772    21A     -0.585837
      22A     -0.573328    23A     -0.564933    24A     -0.557710
      25A     -0.523448    26A     -0.513102    27A     -0.507696
      28A     -0.489518    29A     -0.469608    30A     -0.413221
      31A     -0.369730

  @DF-RHF Final Energy:  -363.07304277474265

   => Energetics <=

    Nuclear Repulsion Energy =            395.0467579340911470
    One-Electron Energy =               -1276.3079033732897187
    Two-Electron Energy =                 518.1881026644559824
    Total Energy =                       -363.0730427747425892
  Basis Set: (AUG-CC-PVTZ AUX)
    Blend: AUG-CC-PVTZ-RI
    Molecular point group: c1

    Geometry (in Angstrom), charge = 0, multiplicity = 1:

       Center              X                  Y                   Z               Mass
    ------------   -----------------  -----------------  -----------------  -----------------
         O            0.003626307884     2.016014663609    -0.095316679807    15.994914619570
         N            0.248969307884    -0.272578336391    -0.339647679807    14.003074004430
         C           -0.477063692116    -1.489161336391    -0.010353679807    12.000000000000
         C           -1.936493692116    -1.013212336391    -0.029556679807    12.000000000000
         C           -1.802349992116     0.454498263609     0.378756420193    12.000000000000
         C           -0.444522692116     0.871695663609    -0.032258679807    12.000000000000
         C            1.675500307884    -0.239338336391    -0.602763679807    12.000000000000
         C            2.511660307884    -0.386269336391     0.664788320193    12.000000000000
         H           -0.192279692116    -1.876190336391     0.979605320193     1.007825032230
         H           -0.271614692116    -2.271029336391    -0.749955679807     1.007825032230
         H           -2.581408692116    -1.625962336391     0.605561320193     1.007825032230
         H           -2.318890692116    -1.063506336391    -1.053336679807     1.007825032230
         H           -1.877919692116     0.538306663609     1.512095320193     1.007825032230
         H           -2.596886692116     1.107316663609     0.002253320193     1.007825032230
         H            1.908998307884    -1.032363336391    -1.322361679807     1.007825032230
         H            1.876068307884     0.723961663609    -1.078155679807     1.007825032230
         H            2.286235307884     0.432861663609     1.351922320193     1.007825032230
         H            2.306936307884    -1.334787336391     1.169134320193     1.007825032230
         H            3.579081307884    -0.353350336391     0.426166320193     1.007825032230

  Basis Set: AUG-CC-PVTZ
    Blend: AUG-CC-PVTZ
  Basis Set: (AUG-CC-PVTZ AUX)
    Blend: AUG-CC-PVTZ-JKFIT
	 Reference Energy          =    -363.0730427747426461 [Eh]
	 Singles Energy            =      -0.0000000000000000 [Eh]
	 Same-Spin Energy          =      -0.3770799540117337 [Eh]
	 Opposite-Spin Energy      =      -1.2472096761212961 [Eh]
	 Correlation Energy        =      -1.6242896301330298 [Eh]
	 Total Energy              =    -364.6973324048756808 [Eh]

	 ================> DF-SCS-MP2 Energies <==================
	-----------------------------------------------------------
	 SCS Same-Spin Scale       =       0.3333333333333333 [-]
	 SCS Opposite-Spin Scale   =       1.2000000000000000 [-]
	 SCS Same-Spin Energy      =      -0.1256933180039112 [Eh]
	 SCS Opposite-Spin Energy  =      -1.4966516113455552 [Eh]
	 SCS Correlation Energy    =      -1.6223449293494665 [Eh]
	 SCS Total Energy          =    -364.6953877040921270 [Eh]
	-----------------------------------------------------------

  Dipole Moment: [D]
     X:    -0.5283      Y:    -3.9764      Z:     0.2523     Total:     4.0193

*** Psi4 exiting successfully. Buy a developer a beer!
