                               Psi4 1.3.2 release

  ==> Input File <==

--------------------------------------------------------------------------
#psi4
#
memory 32 gb

molecule  {
0 1
  O       -0.0101440     2.0708820    -0.1140410
  N        0.2152932    -0.2002408    -0.5079211
  C       -0.4908340    -1.4342940    -0.0290780
  C       -1.9502640    -0.9583450    -0.0482810
  C       -1.8489090     0.4999680     0.4010950
  C       -0.4582930     0.9265630    -0.0509830
  C        1.6617300    -0.1844710    -0.6214880
  C        2.4978900    -0.3314020     0.6460640
  H       -0.2060500    -1.8213230     0.9608810
  H       -0.2853850    -2.2161620    -0.7686800
  H       -2.5951790    -1.5710950     0.5868370
  H       -2.3326610    -1.0086390    -1.0720610
  H       -1.8916900     0.5931740     1.4933710
  H       -2.6106570     1.1621840    -0.0164710
  H        1.8952280    -0.9774960    -1.3410860
  H        1.8622980     0.7788290    -1.0968800
  H        2.2724650     0.4877290     1.3331980
  H        2.2931660    -1.2799200     1.1504100
  H        3.5653110    -0.2984830     0.4074420
units angstrom
no_reorient  #important for SAPT in psi4, default
symmetry c1  #important for SAPT in psi4, default
}

set PROPERTIES_ORIGIN ["COM"]
properties('MP2/aug-cc-pvtz', properties = ['dipole'])
--------------------------------------------------------------------------

    Molecular point group: c1
  Charge       = 0
  Multiplicity = 1
  Basis Set: AUG-CC-PVTZ
    Blend: AUG-CC-PVTZ
  Basis Set: (AUG-CC-PVTZ AUX)
    Blend: AUG-CC-PVTZ-JKFIT

    Orbital Energies [Eh]
    ---------------------

    Doubly Occupied:

       1A    -20.517265     2A    -15.582500     3A    -11.343937
       4A    -11.275655     5A    -11.257824     6A    -11.242407
       7A    -11.241787     8A    -11.220740     9A     -1.368694
      10A     -1.249076    11A     -1.087124    12A     -0.999569
      13A     -0.967913    14A     -0.870535    15A     -0.826223
      16A     -0.721795    17A     -0.690865    18A     -0.663163
      19A     -0.638504    20A     -0.602999    21A     -0.593745
      22A     -0.567539    23A     -0.563067    24A     -0.553682
      25A     -0.528510    26A     -0.509628    27A     -0.503436
      28A     -0.484069    29A     -0.479420    30A     -0.413570
      31A     -0.376605

  @DF-RHF Final Energy:  -363.06833627942569

   => Energetics <=

    Nuclear Repulsion Energy =            393.0209927297890999
    One-Electron Energy =               -1272.2949658646116404
    Two-Electron Energy =                 516.2056368553968468
    Total Energy =                       -363.0683362794256936
  Basis Set: (AUG-CC-PVTZ AUX)
    Blend: AUG-CC-PVTZ-RI
    Molecular point group: c1

    Geometry (in Angstrom), charge = 0, multiplicity = 1:

       Center              X                  Y                   Z               Mass
    ------------   -----------------  -----------------  -----------------  -----------------
         O            0.009570618399     2.014848581503    -0.081155601241    15.994914619570
         N            0.235007818399    -0.256274218497    -0.475035701241    14.003074004430
         C           -0.471119381601    -1.490327418497     0.003807398759    12.000000000000
         C           -1.930549381601    -1.014378418497    -0.015395601241    12.000000000000
         C           -1.829194381601     0.443934581503     0.433980398759    12.000000000000
         C           -0.438578381601     0.870529581503    -0.018097601241    12.000000000000
         C            1.681444618399    -0.240504418497    -0.588602601241    12.000000000000
         C            2.517604618399    -0.387435418497     0.678949398759    12.000000000000
         H           -0.186335381601    -1.877356418497     0.993766398759     1.007825032230
         H           -0.265670381601    -2.272195418497    -0.735794601241     1.007825032230
         H           -2.575464381601    -1.627128418497     0.619722398759     1.007825032230
         H           -2.312946381601    -1.064672418497    -1.039175601241     1.007825032230
         H           -1.871975381601     0.537140581503     1.526256398759     1.007825032230
         H           -2.590942381601     1.106150581503     0.016414398759     1.007825032230
         H            1.914942618399    -1.033529418497    -1.308200601241     1.007825032230
         H            1.882012618399     0.722795581503    -1.063994601241     1.007825032230
         H            2.292179618399     0.431695581503     1.366083398759     1.007825032230
         H            2.312880618399    -1.335953418497     1.183295398759     1.007825032230
         H            3.585025618399    -0.354516418497     0.440327398759     1.007825032230

  Basis Set: AUG-CC-PVTZ
    Blend: AUG-CC-PVTZ
  Basis Set: (AUG-CC-PVTZ AUX)
    Blend: AUG-CC-PVTZ-JKFIT
	 Reference Energy          =    -363.0683362794256936 [Eh]
	 Singles Energy            =      -0.0000000000000000 [Eh]
	 Same-Spin Energy          =      -0.3767870190321967 [Eh]
	 Opposite-Spin Energy      =      -1.2479117554502954 [Eh]
	 Correlation Energy        =      -1.6246987744824921 [Eh]
	 Total Energy              =    -364.6930350539082042 [Eh]

	 ================> DF-SCS-MP2 Energies <==================
	-----------------------------------------------------------
	 SCS Same-Spin Scale       =       0.3333333333333333 [-]
	 SCS Opposite-Spin Scale   =       1.2000000000000000 [-]
	 SCS Same-Spin Energy      =      -0.1255956730107322 [Eh]
	 SCS Opposite-Spin Energy  =      -1.4974941065403544 [Eh]
	 SCS Correlation Energy    =      -1.6230897795510866 [Eh]
	 SCS Total Energy          =    -364.6914260589767878 [Eh]
	-----------------------------------------------------------

  Dipole Moment: [D]
     X:    -0.5140      Y:    -3.7806      Z:     0.5372     Total:     3.8531

*** Psi4 exiting successfully. Buy a developer a beer!
