                               Psi4 1.4a3.dev225

  ==> Input File <==

--------------------------------------------------------------------------
#psi4
#
memory 32 gb

molecule  {
0 1
  O       -0.0101440     2.0708820    -0.1140410
  N        0.2351990    -0.2177110    -0.3583720
  C       -0.4908340    -1.4342940    -0.0290780
  C       -1.9502640    -0.9583450    -0.0482810
  C       -1.8489090     0.4999680     0.4010950
  C       -0.4765021     0.8800672    -0.0484208
  C        1.6617300    -0.1844710    -0.6214880
  C        2.4978900    -0.3314020     0.6460640
  H       -0.2060500    -1.8213230     0.9608810
  H       -0.2853850    -2.2161620    -0.7686800
  H       -2.5951790    -1.5710950     0.5868370
  H       -2.3326610    -1.0086390    -1.0720610
  H       -1.8916900     0.5931740     1.4933710
  H       -2.6106570     1.1621840    -0.0164710
  H        1.8952280    -0.9774960    -1.3410860
  H        1.8622980     0.7788290    -1.0968800
  H        2.2724650     0.4877290     1.3331980
  H        2.2931660    -1.2799200     1.1504100
  H        3.5653110    -0.2984830     0.4074420
units angstrom
no_reorient  #important for SAPT in psi4, default
symmetry c1  #important for SAPT in psi4, default
}

set PROPERTIES_ORIGIN ["COM"]
properties('MP2/aug-cc-pvtz', properties = ['dipole'])
--------------------------------------------------------------------------

    Molecular point group: c1
  Charge       = 0
  Multiplicity = 1
  Basis Set: AUG-CC-PVTZ
    Blend: AUG-CC-PVTZ
  Basis Set: (AUG-CC-PVTZ AUX)
    Blend: AUG-CC-PVTZ-JKFIT

    Orbital Energies [Eh]
    ---------------------

    Doubly Occupied:

       1A    -20.500540     2A    -15.588658     3A    -11.340980
       4A    -11.277917     5A    -11.264524     6A    -11.244813
       7A    -11.241493     8A    -11.220723     9A     -1.345316
      10A     -1.254986    11A     -1.094255    12A     -1.005750
      13A     -0.977772    14A     -0.875084    15A     -0.835592
      16A     -0.729645    17A     -0.697609    18A     -0.668573
      19A     -0.636443    20A     -0.607962    21A     -0.591234
      22A     -0.567338    23A     -0.565527    24A     -0.542898
      25A     -0.524624    26A     -0.514570    27A     -0.512690
      28A     -0.491890    29A     -0.469370    30A     -0.405573
      31A     -0.369570

  @DF-RHF Final Energy:  -363.06866007861203

   => Energetics <=

    Nuclear Repulsion Energy =            394.4906191697622830
    One-Electron Energy =               -1275.1907196884110363
    Two-Electron Energy =                 517.6314404400366129
    Total Energy =                       -363.0686600786120835
  Basis Set: (AUG-CC-PVTZ AUX)
    Blend: AUG-CC-PVTZ-RI
    Molecular point group: c1

    Geometry (in Angstrom), charge = 0, multiplicity = 1:

       Center              X                  Y                   Z               Mass
    ------------   -----------------  -----------------  -----------------  -----------------
         O            0.009037977561     2.021945833541    -0.099945989911    15.994914619570
         N            0.254380977561    -0.266647166459    -0.344276989911    14.003074004430
         C           -0.471652022439    -1.483230166459    -0.014982989911    12.000000000000
         C           -1.931082022439    -1.007281166459    -0.034185989911    12.000000000000
         C           -1.829727022439     0.451031833541     0.415190010089    12.000000000000
         C           -0.457320122439     0.831131033541    -0.034325789911    12.000000000000
         C            1.680911977561    -0.233407166459    -0.607392989911    12.000000000000
         C            2.517071977561    -0.380338166459     0.660159010089    12.000000000000
         H           -0.186868022439    -1.870259166459     0.974976010089     1.007825032230
         H           -0.266203022439    -2.265098166459    -0.754584989911     1.007825032230
         H           -2.575997022439    -1.620031166459     0.600932010089     1.007825032230
         H           -2.313479022439    -1.057575166459    -1.057965989911     1.007825032230
         H           -1.872508022439     0.544237833541     1.507466010089     1.007825032230
         H           -2.591475022439     1.113247833541    -0.002375989911     1.007825032230
         H            1.914409977561    -1.026432166459    -1.326990989911     1.007825032230
         H            1.881479977561     0.729892833541    -1.082784989911     1.007825032230
         H            2.291646977561     0.438792833541     1.347293010089     1.007825032230
         H            2.312347977561    -1.328856166459     1.164505010089     1.007825032230
         H            3.584492977561    -0.347419166459     0.421537010089     1.007825032230

  Basis Set: AUG-CC-PVTZ
    Blend: AUG-CC-PVTZ
  Basis Set: (AUG-CC-PVTZ AUX)
    Blend: AUG-CC-PVTZ-JKFIT
	 Reference Energy          =    -363.0686600786120266 [Eh]
	 Singles Energy            =      -0.0000000000000000 [Eh]
	 Same-Spin Energy          =      -0.3777805099179430 [Eh]
	 Opposite-Spin Energy      =      -1.2488265796874591 [Eh]
	 Correlation Energy        =      -1.6266070896054021 [Eh]
	 Total Energy              =    -364.6952671682174127 [Eh]

	 ================> DF-SCS-MP2 Energies <==================
	-----------------------------------------------------------
	 SCS Same-Spin Scale       =       0.3333333333333333 [-]
	 SCS Opposite-Spin Scale   =       1.2000000000000000 [-]
	 SCS Same-Spin Energy      =      -0.1259268366393143 [Eh]
	 SCS Opposite-Spin Energy  =      -1.4985918956249509 [Eh]
	 SCS Correlation Energy    =      -1.6245187322642651 [Eh]
	 SCS Total Energy          =    -364.6931788108763044 [Eh]
	-----------------------------------------------------------

  Dipole Moment: [D]
     X:    -0.4793      Y:    -4.3512      Z:     0.2574     Total:     4.3851

*** Psi4 exiting successfully. Buy a developer a beer!
