                               Psi4 1.3.2 release

  ==> Input File <==

--------------------------------------------------------------------------
#psi4
#
memory 32 gb

molecule  {
0 1
  O       -0.0101440     2.0708820    -0.1140410
  N        0.1166346    -0.2903108    -0.3220152
  C       -0.4908340    -1.4342940    -0.0290780
  C       -1.9502640    -0.9583450    -0.0482810
  C       -1.8489090     0.4999680     0.4010950
  C       -0.4582930     0.9265630    -0.0509830
  C        1.6617300    -0.1844710    -0.6214880
  C        2.4978900    -0.3314020     0.6460640
  H       -0.2060500    -1.8213230     0.9608810
  H       -0.2853850    -2.2161620    -0.7686800
  H       -2.5951790    -1.5710950     0.5868370
  H       -2.3326610    -1.0086390    -1.0720610
  H       -1.8916900     0.5931740     1.4933710
  H       -2.6106570     1.1621840    -0.0164710
  H        1.8952280    -0.9774960    -1.3410860
  H        1.8622980     0.7788290    -1.0968800
  H        2.2724650     0.4877290     1.3331980
  H        2.2931660    -1.2799200     1.1504100
  H        3.5653110    -0.2984830     0.4074420
units angstrom
no_reorient  #important for SAPT in psi4, default
symmetry c1  #important for SAPT in psi4, default
}

set PROPERTIES_ORIGIN ["COM"]
properties('MP2/aug-cc-pvtz', properties = ['dipole'])
--------------------------------------------------------------------------

    Molecular point group: c1
  Charge       = 0
  Multiplicity = 1
  Basis Set: AUG-CC-PVTZ
    Blend: AUG-CC-PVTZ
  Basis Set: (AUG-CC-PVTZ AUX)
    Blend: AUG-CC-PVTZ-JKFIT

    Orbital Energies [Eh]
    ---------------------

    Doubly Occupied:

       1A    -20.518607     2A    -15.582150     3A    -11.344619
       4A    -11.272161     5A    -11.264148     6A    -11.237340
       7A    -11.232927     8A    -11.224049     9A     -1.369942
      10A     -1.281573    11A     -1.072701    12A     -1.006347
      13A     -0.982915    14A     -0.860710    15A     -0.830679
      16A     -0.729546    17A     -0.698335    18A     -0.677057
      19A     -0.638173    20A     -0.605724    21A     -0.596046
      22A     -0.580200    23A     -0.555631    24A     -0.552218
      25A     -0.522746    26A     -0.513612    27A     -0.500309
      28A     -0.488435    29A     -0.476068    30A     -0.407041
      31A     -0.370831

  @DF-RHF Final Energy:  -363.04738940584275

   => Energetics <=

    Nuclear Repulsion Energy =            394.9294281806004960
    One-Electron Energy =               -1275.9679578972038598
    Two-Electron Energy =                 517.9911403107605565
    Total Energy =                       -363.0473894058427504
  Basis Set: (AUG-CC-PVTZ AUX)
    Blend: AUG-CC-PVTZ-RI
    Molecular point group: c1

    Geometry (in Angstrom), charge = 0, multiplicity = 1:

       Center              X                  Y                   Z               Mass
    ------------   -----------------  -----------------  -----------------  -----------------
         O            0.021787403226     2.026001849534    -0.104176122294    15.994914619570
         N            0.148566003226    -0.335190950466    -0.312150322294    14.003074004430
         C           -0.458902596774    -1.479174150466    -0.019213122294    12.000000000000
         C           -1.918332596774    -1.003225150466    -0.038416122294    12.000000000000
         C           -1.816977596774     0.455087849534     0.410959877706    12.000000000000
         C           -0.426361596774     0.881682849534    -0.041118122294    12.000000000000
         C            1.693661403226    -0.229351150466    -0.611623122294    12.000000000000
         C            2.529821403226    -0.376282150466     0.655928877706    12.000000000000
         H           -0.174118596774    -1.866203150466     0.970745877706     1.007825032230
         H           -0.253453596774    -2.261042150466    -0.758815122294     1.007825032230
         H           -2.563247596774    -1.615975150466     0.596701877706     1.007825032230
         H           -2.300729596774    -1.053519150466    -1.062196122294     1.007825032230
         H           -1.859758596774     0.548293849534     1.503235877706     1.007825032230
         H           -2.578725596774     1.117303849534    -0.006606122294     1.007825032230
         H            1.927159403226    -1.022376150466    -1.331221122294     1.007825032230
         H            1.894229403226     0.733948849534    -1.087015122294     1.007825032230
         H            2.304396403226     0.442848849534     1.343062877706     1.007825032230
         H            2.325097403226    -1.324800150466     1.160274877706     1.007825032230
         H            3.597242403226    -0.343363150466     0.417306877706     1.007825032230

  Basis Set: AUG-CC-PVTZ
    Blend: AUG-CC-PVTZ
  Basis Set: (AUG-CC-PVTZ AUX)
    Blend: AUG-CC-PVTZ-JKFIT
	 Reference Energy          =    -363.0473894058427504 [Eh]
	 Singles Energy            =      -0.0000000000000000 [Eh]
	 Same-Spin Energy          =      -0.3783866351499209 [Eh]
	 Opposite-Spin Energy      =      -1.2494805600635641 [Eh]
	 Correlation Energy        =      -1.6278671952134851 [Eh]
	 Total Energy              =    -364.6752566010562191 [Eh]

	 ================> DF-SCS-MP2 Energies <==================
	-----------------------------------------------------------
	 SCS Same-Spin Scale       =       0.3333333333333333 [-]
	 SCS Opposite-Spin Scale   =       1.2000000000000000 [-]
	 SCS Same-Spin Energy      =      -0.1261288783833069 [Eh]
	 SCS Opposite-Spin Energy  =      -1.4993766720762769 [Eh]
	 SCS Correlation Energy    =      -1.6255055504595839 [Eh]
	 SCS Total Energy          =    -364.6728949563023434 [Eh]
	-----------------------------------------------------------

  Dipole Moment: [D]
     X:    -0.0440      Y:    -3.7296      Z:     0.1452     Total:     3.7327

*** Psi4 exiting successfully. Buy a developer a beer!
