                               Psi4 1.3.2 release

  ==> Input File <==

--------------------------------------------------------------------------
#psi4
#
memory 32 gb

molecule  {
0 1
  O       -0.0101440     2.0708820    -0.1140410
  N        0.2351990    -0.2177110    -0.3583720
  C       -0.4473177    -1.4601905    -0.0327216
  C       -1.9502640    -0.9583450    -0.0482810
  C       -1.8489090     0.4999680     0.4010950
  C       -0.4582930     0.9265630    -0.0509830
  C        1.6617300    -0.1844710    -0.6214880
  C        2.4978900    -0.3314020     0.6460640
  H       -0.2060500    -1.8213230     0.9608810
  H       -0.2853850    -2.2161620    -0.7686800
  H       -2.5951790    -1.5710950     0.5868370
  H       -2.3326610    -1.0086390    -1.0720610
  H       -1.8916900     0.5931740     1.4933710
  H       -2.6106570     1.1621840    -0.0164710
  H        1.8952280    -0.9774960    -1.3410860
  H        1.8622980     0.7788290    -1.0968800
  H        2.2724650     0.4877290     1.3331980
  H        2.2931660    -1.2799200     1.1504100
  H        3.5653110    -0.2984830     0.4074420
units angstrom
no_reorient  #important for SAPT in psi4, default
symmetry c1  #important for SAPT in psi4, default
}

set PROPERTIES_ORIGIN ["COM"]
properties('MP2/aug-cc-pvtz', properties = ['dipole'])
--------------------------------------------------------------------------

    Molecular point group: c1
  Charge       = 0
  Multiplicity = 1
  Basis Set: AUG-CC-PVTZ
    Blend: AUG-CC-PVTZ
  Basis Set: (AUG-CC-PVTZ AUX)
    Blend: AUG-CC-PVTZ-JKFIT

    Orbital Energies [Eh]
    ---------------------

    Doubly Occupied:

       1A    -20.512219     2A    -15.581316     3A    -11.342214
       4A    -11.273481     5A    -11.259687     6A    -11.244044
       7A    -11.239665     8A    -11.218399     9A     -1.367019
      10A     -1.257213    11A     -1.083161    12A     -0.999369
      13A     -0.972092    14A     -0.869490    15A     -0.830575
      16A     -0.727295    17A     -0.692720    18A     -0.668173
      19A     -0.640964    20A     -0.604746    21A     -0.592229
      22A     -0.574910    23A     -0.561771    24A     -0.551457
      25A     -0.523710    26A     -0.513720    27A     -0.505682
      28A     -0.483735    29A     -0.478056    30A     -0.410148
      31A     -0.370969

  @DF-RHF Final Energy:  -363.07359984122240

   => Energetics <=

    Nuclear Repulsion Energy =            393.8289630043074681
    One-Electron Energy =               -1273.9046681556587828
    Two-Electron Energy =                 517.0021053101288544
    Total Energy =                       -363.0735998412224035
  Basis Set: (AUG-CC-PVTZ AUX)
    Blend: AUG-CC-PVTZ-RI
    Molecular point group: c1

    Geometry (in Angstrom), charge = 0, multiplicity = 1:

       Center              X                  Y                   Z               Mass
    ------------   -----------------  -----------------  -----------------  -----------------
         O            0.002487940589     2.019759923420    -0.099287456804    15.994914619570
         N            0.247830940589    -0.268833076580    -0.343618456804    14.003074004430
         C           -0.434685759411    -1.511312576580    -0.017968056804    12.000000000000
         C           -1.937632059411    -1.009467076580    -0.033527456804    12.000000000000
         C           -1.836277059411     0.448845923420     0.415848543196    12.000000000000
         C           -0.445661059411     0.875440923420    -0.036229456804    12.000000000000
         C            1.674361940589    -0.235593076580    -0.606734456804    12.000000000000
         C            2.510521940589    -0.382524076580     0.660817543196    12.000000000000
         H           -0.193418059411    -1.872445076580     0.975634543196     1.007825032230
         H           -0.272753059411    -2.267284076580    -0.753926456804     1.007825032230
         H           -2.582547059411    -1.622217076580     0.601590543196     1.007825032230
         H           -2.320029059411    -1.059761076580    -1.057307456804     1.007825032230
         H           -1.879058059411     0.542051923420     1.508124543196     1.007825032230
         H           -2.598025059411     1.111061923420    -0.001717456804     1.007825032230
         H            1.907859940589    -1.028618076580    -1.326332456804     1.007825032230
         H            1.874929940589     0.727706923420    -1.082126456804     1.007825032230
         H            2.285096940589     0.436606923420     1.347951543196     1.007825032230
         H            2.305797940589    -1.331042076580     1.165163543196     1.007825032230
         H            3.577942940589    -0.349605076580     0.422195543196     1.007825032230

  Basis Set: AUG-CC-PVTZ
    Blend: AUG-CC-PVTZ
  Basis Set: (AUG-CC-PVTZ AUX)
    Blend: AUG-CC-PVTZ-JKFIT
	 Reference Energy          =    -363.0735998412224035 [Eh]
	 Singles Energy            =      -0.0000000000000000 [Eh]
	 Same-Spin Energy          =      -0.3766830748156239 [Eh]
	 Opposite-Spin Energy      =      -1.2470590581254930 [Eh]
	 Correlation Energy        =      -1.6237421329411168 [Eh]
	 Total Energy              =    -364.6973419741635212 [Eh]

	 ================> DF-SCS-MP2 Energies <==================
	-----------------------------------------------------------
	 SCS Same-Spin Scale       =       0.3333333333333333 [-]
	 SCS Opposite-Spin Scale   =       1.2000000000000000 [-]
	 SCS Same-Spin Energy      =      -0.1255610249385413 [Eh]
	 SCS Opposite-Spin Energy  =      -1.4964708697505915 [Eh]
	 SCS Correlation Energy    =      -1.6220318946891328 [Eh]
	 SCS Total Energy          =    -364.6956317359115474 [Eh]
	-----------------------------------------------------------

  Dipole Moment: [D]
     X:    -0.4523      Y:    -3.9603      Z:     0.2570     Total:     3.9943

*** Psi4 exiting successfully. Buy a developer a beer!
