                               Psi4 1.3.2 release

  ==> Input File <==

--------------------------------------------------------------------------
#psi4
#
memory 32 gb

molecule  {
0 1
  O       -0.0101440     2.0708820    -0.1140410
  N        0.2351990    -0.2177110    -0.3583720
  C       -0.5385420    -1.5493612     0.0724377
  C       -1.9502640    -0.9583450    -0.0482810
  C       -1.8489090     0.4999680     0.4010950
  C       -0.4582930     0.9265630    -0.0509830
  C        1.6617300    -0.1844710    -0.6214880
  C        2.4978900    -0.3314020     0.6460640
  H       -0.2060500    -1.8213230     0.9608810
  H       -0.2853850    -2.2161620    -0.7686800
  H       -2.5951790    -1.5710950     0.5868370
  H       -2.3326610    -1.0086390    -1.0720610
  H       -1.8916900     0.5931740     1.4933710
  H       -2.6106570     1.1621840    -0.0164710
  H        1.8952280    -0.9774960    -1.3410860
  H        1.8622980     0.7788290    -1.0968800
  H        2.2724650     0.4877290     1.3331980
  H        2.2931660    -1.2799200     1.1504100
  H        3.5653110    -0.2984830     0.4074420
units angstrom
no_reorient  #important for SAPT in psi4, default
symmetry c1  #important for SAPT in psi4, default
}

set PROPERTIES_ORIGIN ["COM"]
properties('MP2/aug-cc-pvtz', properties = ['dipole'])
--------------------------------------------------------------------------

    Molecular point group: c1
  Charge       = 0
  Multiplicity = 1
  Basis Set: AUG-CC-PVTZ
    Blend: AUG-CC-PVTZ
  Basis Set: (AUG-CC-PVTZ AUX)
    Blend: AUG-CC-PVTZ-JKFIT

    Orbital Energies [Eh]
    ---------------------

    Doubly Occupied:

       1A    -20.506740     2A    -15.575691     3A    -11.336499
       4A    -11.279830     5A    -11.255839     6A    -11.246534
       7A    -11.239943     8A    -11.216554     9A     -1.359851
      10A     -1.232994    11A     -1.086217    12A     -0.995349
      13A     -0.977746    14A     -0.866754    15A     -0.831069
      16A     -0.717280    17A     -0.697227    18A     -0.657500
      19A     -0.634790    20A     -0.610122    21A     -0.600240
      22A     -0.567681    23A     -0.554063    24A     -0.548905
      25A     -0.528472    26A     -0.511142    27A     -0.504967
      28A     -0.483152    29A     -0.476772    30A     -0.403484
      31A     -0.369201

  @DF-RHF Final Energy:  -363.05105886441618

   => Energetics <=

    Nuclear Repulsion Energy =            391.8586047031998874
    One-Electron Energy =               -1270.0741118647417807
    Two-Electron Energy =                 515.1644482971256593
    Total Energy =                       -363.0510588644161771
  Basis Set: (AUG-CC-PVTZ AUX)
    Blend: AUG-CC-PVTZ-RI
    Molecular point group: c1

    Geometry (in Angstrom), charge = 0, multiplicity = 1:

       Center              X                  Y                   Z               Mass
    ------------   -----------------  -----------------  -----------------  -----------------
         O            0.012168275391     2.029222338922    -0.110446514549    15.994914619570
         N            0.257511275391    -0.259370661078    -0.354777514549    14.003074004430
         C           -0.516229724609    -1.591020861078     0.076032185451    12.000000000000
         C           -1.927951724609    -1.000004661078    -0.044686514549    12.000000000000
         C           -1.826596724609     0.458308338922     0.404689485451    12.000000000000
         C           -0.435980724609     0.884903338922    -0.047388514549    12.000000000000
         C            1.684042275391    -0.226130661078    -0.617893514549    12.000000000000
         C            2.520202275391    -0.373061661078     0.649658485451    12.000000000000
         H           -0.183737724609    -1.862982661078     0.964475485451     1.007825032230
         H           -0.263072724609    -2.257821661078    -0.765085514549     1.007825032230
         H           -2.572866724609    -1.612754661078     0.590431485451     1.007825032230
         H           -2.310348724609    -1.050298661078    -1.068466514549     1.007825032230
         H           -1.869377724609     0.551514338922     1.496965485451     1.007825032230
         H           -2.588344724609     1.120524338922    -0.012876514549     1.007825032230
         H            1.917540275391    -1.019155661078    -1.337491514549     1.007825032230
         H            1.884610275391     0.737169338922    -1.093285514549     1.007825032230
         H            2.294777275391     0.446069338922     1.336792485451     1.007825032230
         H            2.315478275391    -1.321579661078     1.154004485451     1.007825032230
         H            3.587623275391    -0.340142661078     0.411036485451     1.007825032230

  Basis Set: AUG-CC-PVTZ
    Blend: AUG-CC-PVTZ
  Basis Set: (AUG-CC-PVTZ AUX)
    Blend: AUG-CC-PVTZ-JKFIT
	 Reference Energy          =    -363.0510588644161771 [Eh]
	 Singles Energy            =      -0.0000000000000000 [Eh]
	 Same-Spin Energy          =      -0.3769660949701282 [Eh]
	 Opposite-Spin Energy      =      -1.2487877920318093 [Eh]
	 Correlation Energy        =      -1.6257538870019377 [Eh]
	 Total Energy              =    -364.6768127514181401 [Eh]

	 ================> DF-SCS-MP2 Energies <==================
	-----------------------------------------------------------
	 SCS Same-Spin Scale       =       0.3333333333333333 [-]
	 SCS Opposite-Spin Scale   =       1.2000000000000000 [-]
	 SCS Same-Spin Energy      =      -0.1256553649900427 [Eh]
	 SCS Opposite-Spin Energy  =      -1.4985453504381712 [Eh]
	 SCS Correlation Energy    =      -1.6242007154282139 [Eh]
	 SCS Total Energy          =    -364.6752595798444077 [Eh]
	-----------------------------------------------------------

  Dipole Moment: [D]
     X:    -0.5878      Y:    -4.2378      Z:     0.3953     Total:     4.2966

*** Psi4 exiting successfully. Buy a developer a beer!
