                               Psi4 1.3.2 release

  ==> Input File <==

--------------------------------------------------------------------------
#psi4
#
memory 32 gb

molecule  {
0 1
  O       -0.0101440     2.0708820    -0.1140410
  N        0.2351990    -0.2177110    -0.3583720
  C       -0.4908340    -1.4342940    -0.0290780
  C       -1.9502640    -0.9583450    -0.0482810
  C       -1.8489090     0.4999680     0.4010950
  C       -0.4582930     0.9265630    -0.0509830
  C        1.6617300    -0.1844710    -0.6214880
  C        2.4978900    -0.3314020     0.6460640
  H       -0.2060500    -1.8213230     0.9608810
  H       -0.2853850    -2.2161620    -0.7686800
  H       -2.6057911    -1.5754333     0.5715892
  H       -2.3326610    -1.0086390    -1.0720610
  H       -1.8916900     0.5931740     1.4933710
  H       -2.6106570     1.1621840    -0.0164710
  H        1.8952280    -0.9774960    -1.3410860
  H        1.8622980     0.7788290    -1.0968800
  H        2.2724650     0.4877290     1.3331980
  H        2.2931660    -1.2799200     1.1504100
  H        3.5653110    -0.2984830     0.4074420
units angstrom
no_reorient  #important for SAPT in psi4, default
symmetry c1  #important for SAPT in psi4, default
}

set PROPERTIES_ORIGIN ["COM"]
properties('MP2/aug-cc-pvtz', properties = ['dipole'])
--------------------------------------------------------------------------

    Molecular point group: c1
  Charge       = 0
  Multiplicity = 1
  Basis Set: AUG-CC-PVTZ
    Blend: AUG-CC-PVTZ
  Basis Set: (AUG-CC-PVTZ AUX)
    Blend: AUG-CC-PVTZ-JKFIT

    Orbital Energies [Eh]
    ---------------------

    Doubly Occupied:

       1A    -20.511671     2A    -15.581023     3A    -11.341450
       4A    -11.275007     5A    -11.260955     6A    -11.242429
       7A    -11.240079     8A    -11.218668     9A     -1.366920
      10A     -1.258533    11A     -1.087796    12A     -1.000499
      13A     -0.972086    14A     -0.870336    15A     -0.829740
      16A     -0.726434    17A     -0.692887    18A     -0.667829
      19A     -0.639491    20A     -0.604367    21A     -0.589324
      22A     -0.572175    23A     -0.563068    24A     -0.555447
      25A     -0.522603    26A     -0.513240    27A     -0.509540
      28A     -0.490262    29A     -0.477083    30A     -0.409518
      31A     -0.369556

  @DF-RHF Final Energy:  -363.07592413978472

   => Energetics <=

    Nuclear Repulsion Energy =            394.2694147934828948
    One-Electron Energy =               -1274.7706455566760724
    Two-Electron Energy =                 517.4253066234085736
    Total Energy =                       -363.0759241397846608
  Basis Set: (AUG-CC-PVTZ AUX)
    Blend: AUG-CC-PVTZ-RI
    Molecular point group: c1

    Geometry (in Angstrom), charge = 0, multiplicity = 1:

       Center              X                  Y                   Z               Mass
    ------------   -----------------  -----------------  -----------------  -----------------
         O            0.007200282199     2.017050560651    -0.099538209072    15.994914619570
         N            0.252543282199    -0.271542439349    -0.343869209072    14.003074004430
         C           -0.473489717801    -1.488125439349    -0.014575209072    12.000000000000
         C           -1.932919717801    -1.012176439349    -0.033778209072    12.000000000000
         C           -1.831564717801     0.446136560651     0.415597790928    12.000000000000
         C           -0.440948717801     0.872731560651    -0.036480209072    12.000000000000
         C            1.679074282199    -0.238302439349    -0.606985209072    12.000000000000
         C            2.515234282199    -0.385233439349     0.660566790928    12.000000000000
         H           -0.188705717801    -1.875154439349     0.975383790928     1.007825032230
         H           -0.268040717801    -2.269993439349    -0.754177209072     1.007825032230
         H           -2.588446817801    -1.629264739349     0.586091990928     1.007825032230
         H           -2.315316717801    -1.062470439349    -1.057558209072     1.007825032230
         H           -1.874345717801     0.539342560651     1.507873790928     1.007825032230
         H           -2.593312717801     1.108352560651    -0.001968209072     1.007825032230
         H            1.912572282199    -1.031327439349    -1.326583209072     1.007825032230
         H            1.879642282199     0.724997560651    -1.082377209072     1.007825032230
         H            2.289809282199     0.433897560651     1.347700790928     1.007825032230
         H            2.310510282199    -1.333751439349     1.164912790928     1.007825032230
         H            3.582655282199    -0.352314439349     0.421944790928     1.007825032230

  Basis Set: AUG-CC-PVTZ
    Blend: AUG-CC-PVTZ
  Basis Set: (AUG-CC-PVTZ AUX)
    Blend: AUG-CC-PVTZ-JKFIT
	 Reference Energy          =    -363.0759241397847177 [Eh]
	 Singles Energy            =      -0.0000000000000000 [Eh]
	 Same-Spin Energy          =      -0.3767788591801452 [Eh]
	 Opposite-Spin Energy      =      -1.2468972807930281 [Eh]
	 Correlation Energy        =      -1.6236761399731732 [Eh]
	 Total Energy              =    -364.6996002797578740 [Eh]

	 ================> DF-SCS-MP2 Energies <==================
	-----------------------------------------------------------
	 SCS Same-Spin Scale       =       0.3333333333333333 [-]
	 SCS Opposite-Spin Scale   =       1.2000000000000000 [-]
	 SCS Same-Spin Energy      =      -0.1255929530600484 [Eh]
	 SCS Opposite-Spin Energy  =      -1.4962767369516337 [Eh]
	 SCS Correlation Energy    =      -1.6218696900116820 [Eh]
	 SCS Total Energy          =    -364.6977938297964101 [Eh]
	-----------------------------------------------------------

  Dipole Moment: [D]
     X:    -0.4654      Y:    -3.9479      Z:     0.2498     Total:     3.9830

*** Psi4 exiting successfully. Buy a developer a beer!
