                               Psi4 1.4a3.dev225

  ==> Input File <==

--------------------------------------------------------------------------
#psi4
#
memory 32 gb

molecule  {
0 1
  O       -0.0101440     2.0708820    -0.1140410
  N        0.2351990    -0.2177110    -0.3583720
  C       -0.4658762    -1.3924733    -0.0403977
  C       -1.9502640    -0.9583450    -0.0482810
  C       -1.8489090     0.4999680     0.4010950
  C       -0.4582930     0.9265630    -0.0509830
  C        1.6617300    -0.1844710    -0.6214880
  C        2.4978900    -0.3314020     0.6460640
  H       -0.2060500    -1.8213230     0.9608810
  H       -0.2853850    -2.2161620    -0.7686800
  H       -2.5951790    -1.5710950     0.5868370
  H       -2.3326610    -1.0086390    -1.0720610
  H       -1.8916900     0.5931740     1.4933710
  H       -2.6106570     1.1621840    -0.0164710
  H        1.8952280    -0.9774960    -1.3410860
  H        1.8622980     0.7788290    -1.0968800
  H        2.2724650     0.4877290     1.3331980
  H        2.2931660    -1.2799200     1.1504100
  H        3.5653110    -0.2984830     0.4074420
units angstrom
no_reorient  #important for SAPT in psi4, default
symmetry c1  #important for SAPT in psi4, default
}

set PROPERTIES_ORIGIN ["COM"]
properties('MP2/aug-cc-pvtz', properties = ['dipole'])
--------------------------------------------------------------------------

    Molecular point group: c1
  Charge       = 0
  Multiplicity = 1
  Basis Set: AUG-CC-PVTZ
    Blend: AUG-CC-PVTZ
  Basis Set: (AUG-CC-PVTZ AUX)
    Blend: AUG-CC-PVTZ-JKFIT

    Orbital Energies [Eh]
    ---------------------

    Doubly Occupied:

       1A    -20.513810     2A    -15.582232     3A    -11.343234
       4A    -11.274332     5A    -11.262607     6A    -11.242124
       7A    -11.239933     8A    -11.219541     9A     -1.370245
      10A     -1.269526    11A     -1.088094    12A     -1.003148
      13A     -0.969540    14A     -0.872611    15A     -0.830704
      16A     -0.729845    17A     -0.695566    18A     -0.669111
      19A     -0.640576    20A     -0.606046    21A     -0.588656
      22A     -0.575270    23A     -0.563228    24A     -0.555489
      25A     -0.524468    26A     -0.514450    27A     -0.505588
      28A     -0.489178    29A     -0.476164    30A     -0.411434
      31A     -0.368715

  @DF-RHF Final Energy:  -363.07351817711026

   => Energetics <=

    Nuclear Repulsion Energy =            395.1633692875287238
    One-Electron Energy =               -1276.4828482656719189
    Two-Electron Energy =                 518.2459608010329930
    Total Energy =                       -363.0735181771102589
  Basis Set: (AUG-CC-PVTZ AUX)
    Blend: AUG-CC-PVTZ-RI
    Molecular point group: c1

    Geometry (in Angstrom), charge = 0, multiplicity = 1:

       Center              X                  Y                   Z               Mass
    ------------   -----------------  -----------------  -----------------  -----------------
         O            0.004457289693     2.012574062111    -0.098472901713    15.994914619570
         N            0.249800289693    -0.276018937889    -0.342803901713    14.003074004430
         C           -0.451274910307    -1.450781237889    -0.024829601713    12.000000000000
         C           -1.935662710307    -1.016652937889    -0.032712901713    12.000000000000
         C           -1.834307710307     0.441660062111     0.416663098287    12.000000000000
         C           -0.443691710307     0.868255062111    -0.035414901713    12.000000000000
         C            1.676331289693    -0.242778937889    -0.605919901713    12.000000000000
         C            2.512491289693    -0.389709937889     0.661632098287    12.000000000000
         H           -0.191448710307    -1.879630937889     0.976449098287     1.007825032230
         H           -0.270783710307    -2.274469937889    -0.753111901713     1.007825032230
         H           -2.580577710307    -1.629402937889     0.602405098287     1.007825032230
         H           -2.318059710307    -1.066946937889    -1.056492901713     1.007825032230
         H           -1.877088710307     0.534866062111     1.508939098287     1.007825032230
         H           -2.596055710307     1.103876062111    -0.000902901713     1.007825032230
         H            1.909829289693    -1.035803937889    -1.325517901713     1.007825032230
         H            1.876899289693     0.720521062111    -1.081311901713     1.007825032230
         H            2.287066289693     0.429421062111     1.348766098287     1.007825032230
         H            2.307767289693    -1.338227937889     1.165978098287     1.007825032230
         H            3.579912289693    -0.356790937889     0.423010098287     1.007825032230

  Basis Set: AUG-CC-PVTZ
    Blend: AUG-CC-PVTZ
  Basis Set: (AUG-CC-PVTZ AUX)
    Blend: AUG-CC-PVTZ-JKFIT
	 Reference Energy          =    -363.0735181771102589 [Eh]
	 Singles Energy            =      -0.0000000000000000 [Eh]
	 Same-Spin Energy          =      -0.3770804903194555 [Eh]
	 Opposite-Spin Energy      =      -1.2469856125283223 [Eh]
	 Correlation Energy        =      -1.6240661028477779 [Eh]
	 Total Energy              =    -364.6975842799580505 [Eh]

	 ================> DF-SCS-MP2 Energies <==================
	-----------------------------------------------------------
	 SCS Same-Spin Scale       =       0.3333333333333333 [-]
	 SCS Opposite-Spin Scale   =       1.2000000000000000 [-]
	 SCS Same-Spin Energy      =      -0.1256934967731518 [Eh]
	 SCS Opposite-Spin Energy  =      -1.4963827350339867 [Eh]
	 SCS Correlation Energy    =      -1.6220762318071384 [Eh]
	 SCS Total Energy          =    -364.6955944089173727 [Eh]
	-----------------------------------------------------------

  Dipole Moment: [D]
     X:    -0.4129      Y:    -3.8028      Z:     0.2246     Total:     3.8317

*** Psi4 exiting successfully. Buy a developer a beer!
