                               Psi4 1.3.2 release

  ==> Input File <==

--------------------------------------------------------------------------
#psi4
#
memory 32 gb

molecule  {
0 1
  O       -0.0101440     2.0708820    -0.1140410
  N        0.1908803    -0.1931195    -0.3613189
  C       -0.4908340    -1.4342940    -0.0290780
  C       -1.9502640    -0.9583450    -0.0482810
  C       -1.8489090     0.4999680     0.4010950
  C       -0.4582930     0.9265630    -0.0509830
  C        1.6617300    -0.1844710    -0.6214880
  C        2.4978900    -0.3314020     0.6460640
  H       -0.2060500    -1.8213230     0.9608810
  H       -0.2853850    -2.2161620    -0.7686800
  H       -2.5951790    -1.5710950     0.5868370
  H       -2.3326610    -1.0086390    -1.0720610
  H       -1.8916900     0.5931740     1.4933710
  H       -2.6106570     1.1621840    -0.0164710
  H        1.8952280    -0.9774960    -1.3410860
  H        1.8622980     0.7788290    -1.0968800
  H        2.2724650     0.4877290     1.3331980
  H        2.2931660    -1.2799200     1.1504100
  H        3.5653110    -0.2984830     0.4074420
units angstrom
no_reorient  #important for SAPT in psi4, default
symmetry c1  #important for SAPT in psi4, default
}

set PROPERTIES_ORIGIN ["COM"]
properties('MP2/aug-cc-pvtz', properties = ['dipole'])
--------------------------------------------------------------------------

    Molecular point group: c1
  Charge       = 0
  Multiplicity = 1
  Basis Set: AUG-CC-PVTZ
    Blend: AUG-CC-PVTZ
  Basis Set: (AUG-CC-PVTZ AUX)
    Blend: AUG-CC-PVTZ-JKFIT

    Orbital Energies [Eh]
    ---------------------

    Doubly Occupied:

       1A    -20.504981     2A    -15.584045     3A    -11.334686
       4A    -11.276242     5A    -11.265847     6A    -11.240960
       7A    -11.236520     8A    -11.221998     9A     -1.366698
      10A     -1.261111    11A     -1.083243    12A     -1.005083
      13A     -0.975953    14A     -0.868108    15A     -0.832128
      16A     -0.725012    17A     -0.695133    18A     -0.668701
      19A     -0.637450    20A     -0.605802    21A     -0.590272
      22A     -0.573547    23A     -0.559925    24A     -0.553349
      25A     -0.523205    26A     -0.510840    27A     -0.509661
      28A     -0.489222    29A     -0.477033    30A     -0.406202
      31A     -0.374570

  @DF-RHF Final Energy:  -363.07399104744087

   => Energetics <=

    Nuclear Repulsion Energy =            394.6300603587254727
    One-Electron Energy =               -1275.4930530104538775
    Two-Electron Energy =                 517.7890016042875914
    Total Energy =                       -363.0739910474408134
  Basis Set: (AUG-CC-PVTZ AUX)
    Blend: AUG-CC-PVTZ-RI
    Molecular point group: c1

    Geometry (in Angstrom), charge = 0, multiplicity = 1:

       Center              X                  Y                   Z               Mass
    ------------   -----------------  -----------------  -----------------  -----------------
         O            0.012593640683     2.013966758836    -0.099309188790    15.994914619570
         N            0.213617940683    -0.250034741164    -0.346587088790    14.003074004430
         C           -0.468096359317    -1.491209241164    -0.014346188790    12.000000000000
         C           -1.927526359317    -1.015260241164    -0.033549188790    12.000000000000
         C           -1.826171359317     0.443052758836     0.415826811210    12.000000000000
         C           -0.435555359317     0.869647758836    -0.036251188790    12.000000000000
         C            1.684467640683    -0.241386241164    -0.606756188790    12.000000000000
         C            2.520627640683    -0.388317241164     0.660795811210    12.000000000000
         H           -0.183312359317    -1.878238241164     0.975612811210     1.007825032230
         H           -0.262647359317    -2.273077241164    -0.753948188790     1.007825032230
         H           -2.572441359317    -1.628010241164     0.601568811210     1.007825032230
         H           -2.309923359317    -1.065554241164    -1.057329188790     1.007825032230
         H           -1.868952359317     0.536258758836     1.508102811210     1.007825032230
         H           -2.587919359317     1.105268758836    -0.001739188790     1.007825032230
         H            1.917965640683    -1.034411241164    -1.326354188790     1.007825032230
         H            1.885035640683     0.721913758836    -1.082148188790     1.007825032230
         H            2.295202640683     0.430813758836     1.347929811210     1.007825032230
         H            2.315903640683    -1.336835241164     1.165141811210     1.007825032230
         H            3.588048640683    -0.355398241164     0.422173811210     1.007825032230

  Basis Set: AUG-CC-PVTZ
    Blend: AUG-CC-PVTZ
  Basis Set: (AUG-CC-PVTZ AUX)
    Blend: AUG-CC-PVTZ-JKFIT
	 Reference Energy          =    -363.0739910474408703 [Eh]
	 Singles Energy            =      -0.0000000000000000 [Eh]
	 Same-Spin Energy          =      -0.3764917089413609 [Eh]
	 Opposite-Spin Energy      =      -1.2464870490095450 [Eh]
	 Correlation Energy        =      -1.6229787579509058 [Eh]
	 Total Energy              =    -364.6969698053918023 [Eh]

	 ================> DF-SCS-MP2 Energies <==================
	-----------------------------------------------------------
	 SCS Same-Spin Scale       =       0.3333333333333333 [-]
	 SCS Opposite-Spin Scale   =       1.2000000000000000 [-]
	 SCS Same-Spin Energy      =      -0.1254972363137870 [Eh]
	 SCS Opposite-Spin Energy  =      -1.4957844588114539 [Eh]
	 SCS Correlation Energy    =      -1.6212816951252409 [Eh]
	 SCS Total Energy          =    -364.6952727425660896 [Eh]
	-----------------------------------------------------------

  Dipole Moment: [D]
     X:    -0.2688      Y:    -4.1456      Z:     0.2369     Total:     4.1611

*** Psi4 exiting successfully. Buy a developer a beer!
