                               Psi4 1.3.2 release

  ==> Input File <==

--------------------------------------------------------------------------
#psi4
#
memory 32 gb

molecule  {
0 1
  O       -0.0101440     2.0708820    -0.1140410
  N        0.2351990    -0.2177110    -0.3583720
  C       -0.4908340    -1.4342940    -0.0290780
  C       -1.8551994    -0.9893475    -0.0470302
  C       -1.8489090     0.4999680     0.4010950
  C       -0.4582930     0.9265630    -0.0509830
  C        1.6617300    -0.1844710    -0.6214880
  C        2.4978900    -0.3314020     0.6460640
  H       -0.2060500    -1.8213230     0.9608810
  H       -0.2853850    -2.2161620    -0.7686800
  H       -2.5951790    -1.5710950     0.5868370
  H       -2.3326610    -1.0086390    -1.0720610
  H       -1.8916900     0.5931740     1.4933710
  H       -2.6106570     1.1621840    -0.0164710
  H        1.8952280    -0.9774960    -1.3410860
  H        1.8622980     0.7788290    -1.0968800
  H        2.2724650     0.4877290     1.3331980
  H        2.2931660    -1.2799200     1.1504100
  H        3.5653110    -0.2984830     0.4074420
units angstrom
no_reorient  #important for SAPT in psi4, default
symmetry c1  #important for SAPT in psi4, default
}

set PROPERTIES_ORIGIN ["COM"]
properties('MP2/aug-cc-pvtz', properties = ['dipole'])
--------------------------------------------------------------------------

    Molecular point group: c1
  Charge       = 0
  Multiplicity = 1
  Basis Set: AUG-CC-PVTZ
    Blend: AUG-CC-PVTZ
  Basis Set: (AUG-CC-PVTZ AUX)
    Blend: AUG-CC-PVTZ-JKFIT

    Orbital Energies [Eh]
    ---------------------

    Doubly Occupied:

       1A    -20.511041     2A    -15.581391     3A    -11.340790
       4A    -11.271334     5A    -11.261024     6A    -11.245078
       7A    -11.241302     8A    -11.218940     9A     -1.367136
      10A     -1.263300    11A     -1.092800    12A     -0.998970
      13A     -0.982945    14A     -0.867664    15A     -0.825014
      16A     -0.728433    17A     -0.695731    18A     -0.672331
      19A     -0.638751    20A     -0.602349    21A     -0.589934
      22A     -0.573104    23A     -0.565164    24A     -0.553957
      25A     -0.527037    26A     -0.513884    27A     -0.508371
      28A     -0.494027    29A     -0.467953    30A     -0.406253
      31A     -0.370524

  @DF-RHF Final Energy:  -363.06504246763149

   => Energetics <=

    Nuclear Repulsion Energy =            395.5693041158225469
    One-Electron Energy =               -1277.3156306847413362
    Two-Electron Energy =                 518.6812841012872468
    Total Energy =                       -363.0650424676315424
  Basis Set: (AUG-CC-PVTZ AUX)
    Blend: AUG-CC-PVTZ-RI
    Molecular point group: c1

    Geometry (in Angstrom), charge = 0, multiplicity = 1:

       Center              X                  Y                   Z               Mass
    ------------   -----------------  -----------------  -----------------  -----------------
         O           -0.002982145807     2.020301750427    -0.099806829720    15.994914619570
         N            0.242360854193    -0.268291249573    -0.344137829720    14.003074004430
         C           -0.483672145807    -1.484874249573    -0.014843829720    12.000000000000
         C           -1.848037545807    -1.039927749573    -0.032796029720    12.000000000000
         C           -1.841747145807     0.449387750427     0.415329170280    12.000000000000
         C           -0.451131145807     0.875982750427    -0.036748829720    12.000000000000
         C            1.668891854193    -0.235051249573    -0.607253829720    12.000000000000
         C            2.505051854193    -0.381982249573     0.660298170280    12.000000000000
         H           -0.198888145807    -1.871903249573     0.975115170280     1.007825032230
         H           -0.278223145807    -2.266742249573    -0.754445829720     1.007825032230
         H           -2.588017145807    -1.621675249573     0.601071170280     1.007825032230
         H           -2.325499145807    -1.059219249573    -1.057826829720     1.007825032230
         H           -1.884528145807     0.542593750427     1.507605170280     1.007825032230
         H           -2.603495145807     1.111603750427    -0.002236829720     1.007825032230
         H            1.902389854193    -1.028076249573    -1.326851829720     1.007825032230
         H            1.869459854193     0.728248750427    -1.082645829720     1.007825032230
         H            2.279626854193     0.437148750427     1.347432170280     1.007825032230
         H            2.300327854193    -1.330500249573     1.164644170280     1.007825032230
         H            3.572472854193    -0.349063249573     0.421676170280     1.007825032230

  Basis Set: AUG-CC-PVTZ
    Blend: AUG-CC-PVTZ
  Basis Set: (AUG-CC-PVTZ AUX)
    Blend: AUG-CC-PVTZ-JKFIT
	 Reference Energy          =    -363.0650424676314856 [Eh]
	 Singles Energy            =      -0.0000000000000000 [Eh]
	 Same-Spin Energy          =      -0.3774879402259991 [Eh]
	 Opposite-Spin Energy      =      -1.2477254536837930 [Eh]
	 Correlation Energy        =      -1.6252133939097919 [Eh]
	 Total Energy              =    -364.6902558615412886 [Eh]

	 ================> DF-SCS-MP2 Energies <==================
	-----------------------------------------------------------
	 SCS Same-Spin Scale       =       0.3333333333333333 [-]
	 SCS Opposite-Spin Scale   =       1.2000000000000000 [-]
	 SCS Same-Spin Energy      =      -0.1258293134086663 [Eh]
	 SCS Opposite-Spin Energy  =      -1.4972705444205514 [Eh]
	 SCS Correlation Energy    =      -1.6230998578292177 [Eh]
	 SCS Total Energy          =    -364.6881423254607171 [Eh]
	-----------------------------------------------------------

  Dipole Moment: [D]
     X:    -0.4452      Y:    -3.9292      Z:     0.2597     Total:     3.9628

*** Psi4 exiting successfully. Buy a developer a beer!
