                               Psi4 1.3.2 release

  ==> Input File <==

--------------------------------------------------------------------------
#psi4
#
memory 32 gb

molecule  {
0 1
  O       -0.0101440     2.0708820    -0.1140410
  N        0.2351990    -0.2177110    -0.3583720
  C       -0.5049823    -1.4732927     0.0048390
  C       -1.9502640    -0.9583450    -0.0482810
  C       -1.8489090     0.4999680     0.4010950
  C       -0.4582930     0.9265630    -0.0509830
  C        1.6617300    -0.1844710    -0.6214880
  C        2.4978900    -0.3314020     0.6460640
  H       -0.2060500    -1.8213230     0.9608810
  H       -0.2853850    -2.2161620    -0.7686800
  H       -2.5951790    -1.5710950     0.5868370
  H       -2.3326610    -1.0086390    -1.0720610
  H       -1.8916900     0.5931740     1.4933710
  H       -2.6106570     1.1621840    -0.0164710
  H        1.8952280    -0.9774960    -1.3410860
  H        1.8622980     0.7788290    -1.0968800
  H        2.2724650     0.4877290     1.3331980
  H        2.2931660    -1.2799200     1.1504100
  H        3.5653110    -0.2984830     0.4074420
units angstrom
no_reorient  #important for SAPT in psi4, default
symmetry c1  #important for SAPT in psi4, default
}

set PROPERTIES_ORIGIN ["COM"]
properties('MP2/aug-cc-pvtz', properties = ['dipole'])
--------------------------------------------------------------------------

    Molecular point group: c1
  Charge       = 0
  Multiplicity = 1
  Basis Set: AUG-CC-PVTZ
    Blend: AUG-CC-PVTZ
  Basis Set: (AUG-CC-PVTZ AUX)
    Blend: AUG-CC-PVTZ-JKFIT

    Orbital Energies [Eh]
    ---------------------

    Doubly Occupied:

       1A    -20.509865     2A    -15.579464     3A    -11.339674
       4A    -11.275624     5A    -11.259154     6A    -11.243410
       7A    -11.239848     8A    -11.217972     9A     -1.364222
      10A     -1.249041    11A     -1.087026    12A     -0.998324
      13A     -0.973807    14A     -0.868596    15A     -0.829160
      16A     -0.723223    17A     -0.693936    18A     -0.664332
      19A     -0.637787    20A     -0.603257    21A     -0.595166
      22A     -0.569554    23A     -0.560692    24A     -0.553203
      25A     -0.523795    26A     -0.511688    27A     -0.509820
      28A     -0.487821    29A     -0.479323    30A     -0.407560
      31A     -0.370262

  @DF-RHF Final Energy:  -363.07303349587193

   => Energetics <=

    Nuclear Repulsion Energy =            393.4572749244725856
    One-Electron Energy =               -1273.2074076868859720
    Two-Electron Energy =                 516.6770992665415179
    Total Energy =                       -363.0730334958718686
  Basis Set: (AUG-CC-PVTZ AUX)
    Blend: AUG-CC-PVTZ-RI
    Molecular point group: c1

    Geometry (in Angstrom), charge = 0, multiplicity = 1:

       Center              X                  Y                   Z               Mass
    ------------   -----------------  -----------------  -----------------  -----------------
         O            0.008607062733     2.021150273169    -0.103273227957    15.994914619570
         N            0.253950062733    -0.267442726831    -0.347604227957    14.003074004430
         C           -0.486231237267    -1.523024426831     0.015606772043    12.000000000000
         C           -1.931512937267    -1.008076726831    -0.037513227957    12.000000000000
         C           -1.830157937267     0.450236273169     0.411862772043    12.000000000000
         C           -0.439541937267     0.876831273169    -0.040215227957    12.000000000000
         C            1.680481062733    -0.234202726831    -0.610720227957    12.000000000000
         C            2.516641062733    -0.381133726831     0.656831772043    12.000000000000
         H           -0.187298937267    -1.871054726831     0.971648772043     1.007825032230
         H           -0.266633937267    -2.265893726831    -0.757912227957     1.007825032230
         H           -2.576427937267    -1.620826726831     0.597604772043     1.007825032230
         H           -2.313909937267    -1.058370726831    -1.061293227957     1.007825032230
         H           -1.872938937267     0.543442273169     1.504138772043     1.007825032230
         H           -2.591905937267     1.112452273169    -0.005703227957     1.007825032230
         H            1.913979062733    -1.027227726831    -1.330318227957     1.007825032230
         H            1.881049062733     0.729097273169    -1.086112227957     1.007825032230
         H            2.291216062733     0.437997273169     1.343965772043     1.007825032230
         H            2.311917062733    -1.329651726831     1.161177772043     1.007825032230
         H            3.584062062733    -0.348214726831     0.418209772043     1.007825032230

  Basis Set: AUG-CC-PVTZ
    Blend: AUG-CC-PVTZ
  Basis Set: (AUG-CC-PVTZ AUX)
    Blend: AUG-CC-PVTZ-JKFIT
	 Reference Energy          =    -363.0730334958719254 [Eh]
	 Singles Energy            =      -0.0000000000000000 [Eh]
	 Same-Spin Energy          =      -0.3766656455948133 [Eh]
	 Opposite-Spin Energy      =      -1.2472089346481514 [Eh]
	 Correlation Energy        =      -1.6238745802429646 [Eh]
	 Total Energy              =    -364.6969080761148803 [Eh]

	 ================> DF-SCS-MP2 Energies <==================
	-----------------------------------------------------------
	 SCS Same-Spin Scale       =       0.3333333333333333 [-]
	 SCS Opposite-Spin Scale   =       1.2000000000000000 [-]
	 SCS Same-Spin Energy      =      -0.1255552151982711 [Eh]
	 SCS Opposite-Spin Energy  =      -1.4966507215777816 [Eh]
	 SCS Correlation Energy    =      -1.6222059367760526 [Eh]
	 SCS Total Energy          =    -364.6952394326479521 [Eh]
	-----------------------------------------------------------

  Dipole Moment: [D]
     X:    -0.5031      Y:    -4.0588      Z:     0.3099     Total:     4.1016

*** Psi4 exiting successfully. Buy a developer a beer!
