                               Psi4 1.3.2 release

  ==> Input File <==

--------------------------------------------------------------------------
#psi4
#
memory 32 gb

molecule  {
0 1
  O       -0.0101440     2.0708820    -0.1140410
  N        0.2400446    -0.2205924    -0.3336835
  C       -0.4908340    -1.4342940    -0.0290780
  C       -1.9502640    -0.9583450    -0.0482810
  C       -1.8489090     0.4999680     0.4010950
  C       -0.4582930     0.9265630    -0.0509830
  C        1.6617300    -0.1844710    -0.6214880
  C        2.4978900    -0.3314020     0.6460640
  H       -0.2060500    -1.8213230     0.9608810
  H       -0.2853850    -2.2161620    -0.7686800
  H       -2.5951790    -1.5710950     0.5868370
  H       -2.3326610    -1.0086390    -1.0720610
  H       -1.8916900     0.5931740     1.4933710
  H       -2.6106570     1.1621840    -0.0164710
  H        1.8952280    -0.9774960    -1.3410860
  H        1.8622980     0.7788290    -1.0968800
  H        2.2724650     0.4877290     1.3331980
  H        2.2931660    -1.2799200     1.1504100
  H        3.5653110    -0.2984830     0.4074420
units angstrom
no_reorient  #important for SAPT in psi4, default
symmetry c1  #important for SAPT in psi4, default
}

set PROPERTIES_ORIGIN ["COM"]
properties('MP2/aug-cc-pvtz', properties = ['dipole'])
--------------------------------------------------------------------------

    Molecular point group: c1
  Charge       = 0
  Multiplicity = 1
  Basis Set: AUG-CC-PVTZ
    Blend: AUG-CC-PVTZ
  Basis Set: (AUG-CC-PVTZ AUX)
    Blend: AUG-CC-PVTZ-JKFIT

    Orbital Energies [Eh]
    ---------------------

    Doubly Occupied:

       1A    -20.511247     2A    -15.580736     3A    -11.341240
       4A    -11.274681     5A    -11.261228     6A    -11.242529
       7A    -11.239783     8A    -11.218210     9A     -1.366719
      10A     -1.259451    11A     -1.088007    12A     -1.000469
      13A     -0.972473    14A     -0.869925    15A     -0.829697
      16A     -0.727252    17A     -0.693190    18A     -0.668481
      19A     -0.639550    20A     -0.604775    21A     -0.588457
      22A     -0.573570    23A     -0.562771    24A     -0.554663
      25A     -0.521676    26A     -0.514425    27A     -0.509592
      28A     -0.490696    29A     -0.477165    30A     -0.408984
      31A     -0.368523

  @DF-RHF Final Energy:  -363.07587077310188

   => Energetics <=

    Nuclear Repulsion Energy =            394.4261107064189105
    One-Electron Energy =               -1275.0836350410143041
    Two-Electron Energy =                 517.5816535614934537
    Total Energy =                       -363.0758707731018831
  Basis Set: (AUG-CC-PVTZ AUX)
    Blend: AUG-CC-PVTZ-RI
    Molecular point group: c1

    Geometry (in Angstrom), charge = 0, multiplicity = 1:

       Center              X                  Y                   Z               Mass
    ------------   -----------------  -----------------  -----------------  -----------------
         O            0.006505680036     2.017368697521    -0.102731249668    15.994914619570
         N            0.256694280036    -0.274105702479    -0.322373749668    14.003074004430
         C           -0.474184319964    -1.487807302479    -0.017768249668    12.000000000000
         C           -1.933614319964    -1.011858302479    -0.036971249668    12.000000000000
         C           -1.832259319964     0.446454697521     0.412404750332    12.000000000000
         C           -0.441643319964     0.873049697521    -0.039673249668    12.000000000000
         C            1.678379680036    -0.237984302479    -0.610178249668    12.000000000000
         C            2.514539680036    -0.384915302479     0.657373750332    12.000000000000
         H           -0.189400319964    -1.874836302479     0.972190750332     1.007825032230
         H           -0.268735319964    -2.269675302479    -0.757370249668     1.007825032230
         H           -2.578529319964    -1.624608302479     0.598146750332     1.007825032230
         H           -2.316011319964    -1.062152302479    -1.060751249668     1.007825032230
         H           -1.875040319964     0.539660697521     1.504680750332     1.007825032230
         H           -2.594007319964     1.108670697521    -0.005161249668     1.007825032230
         H            1.911877680036    -1.031009302479    -1.329776249668     1.007825032230
         H            1.878947680036     0.725315697521    -1.085570249668     1.007825032230
         H            2.289114680036     0.434215697521     1.344507750332     1.007825032230
         H            2.309815680036    -1.333433302479     1.161719750332     1.007825032230
         H            3.581960680036    -0.351996302479     0.418751750332     1.007825032230

  Basis Set: AUG-CC-PVTZ
    Blend: AUG-CC-PVTZ
  Basis Set: (AUG-CC-PVTZ AUX)
    Blend: AUG-CC-PVTZ-JKFIT
	 Reference Energy          =    -363.0758707731018831 [Eh]
	 Singles Energy            =      -0.0000000000000000 [Eh]
	 Same-Spin Energy          =      -0.3768319193184784 [Eh]
	 Opposite-Spin Energy      =      -1.2469266069717297 [Eh]
	 Correlation Energy        =      -1.6237585262902081 [Eh]
	 Total Energy              =    -364.6996292993920861 [Eh]

	 ================> DF-SCS-MP2 Energies <==================
	-----------------------------------------------------------
	 SCS Same-Spin Scale       =       0.3333333333333333 [-]
	 SCS Opposite-Spin Scale   =       1.2000000000000000 [-]
	 SCS Same-Spin Energy      =      -0.1256106397728261 [Eh]
	 SCS Opposite-Spin Energy  =      -1.4963119283660757 [Eh]
	 SCS Correlation Energy    =      -1.6219225681389018 [Eh]
	 SCS Total Energy          =    -364.6977933412408106 [Eh]
	-----------------------------------------------------------

  Dipole Moment: [D]
     X:    -0.4653      Y:    -3.9578      Z:     0.2112     Total:     3.9907

*** Psi4 exiting successfully. Buy a developer a beer!
