                               Psi4 1.3.2 release

  ==> Input File <==

--------------------------------------------------------------------------
#psi4
#
memory 32 gb

molecule  {
0 1
  O       -0.0101440     2.0708820    -0.1140410
  N        0.2453232    -0.2234628    -0.3090827
  C       -0.4908340    -1.4342940    -0.0290780
  C       -1.9502640    -0.9583450    -0.0482810
  C       -1.8489090     0.4999680     0.4010950
  C       -0.4582930     0.9265630    -0.0509830
  C        1.6617300    -0.1844710    -0.6214880
  C        2.4978900    -0.3314020     0.6460640
  H       -0.2060500    -1.8213230     0.9608810
  H       -0.2853850    -2.2161620    -0.7686800
  H       -2.5951790    -1.5710950     0.5868370
  H       -2.3326610    -1.0086390    -1.0720610
  H       -1.8916900     0.5931740     1.4933710
  H       -2.6106570     1.1621840    -0.0164710
  H        1.8952280    -0.9774960    -1.3410860
  H        1.8622980     0.7788290    -1.0968800
  H        2.2724650     0.4877290     1.3331980
  H        2.2931660    -1.2799200     1.1504100
  H        3.5653110    -0.2984830     0.4074420
units angstrom
no_reorient  #important for SAPT in psi4, default
symmetry c1  #important for SAPT in psi4, default
}

set PROPERTIES_ORIGIN ["COM"]
properties('MP2/aug-cc-pvtz', properties = ['dipole'])
--------------------------------------------------------------------------

    Molecular point group: c1
  Charge       = 0
  Multiplicity = 1
  Basis Set: AUG-CC-PVTZ
    Blend: AUG-CC-PVTZ
  Basis Set: (AUG-CC-PVTZ AUX)
    Blend: AUG-CC-PVTZ-JKFIT

    Orbital Energies [Eh]
    ---------------------

    Doubly Occupied:

       1A    -20.511082     2A    -15.580497     3A    -11.341232
       4A    -11.274442     5A    -11.261478     6A    -11.242623
       7A    -11.239660     8A    -11.217734     9A     -1.366626
      10A     -1.260235    11A     -1.088154    12A     -1.000382
      13A     -0.972770    14A     -0.869530    15A     -0.829831
      16A     -0.728153    17A     -0.692948    18A     -0.669234
      19A     -0.639684    20A     -0.604928    21A     -0.587561
      22A     -0.574867    23A     -0.562388    24A     -0.554681
      25A     -0.520325    26A     -0.515659    27A     -0.509574
      28A     -0.491169    29A     -0.476889    30A     -0.408686
      31A     -0.367605

  @DF-RHF Final Energy:  -363.07541766635904

   => Energetics <=

    Nuclear Repulsion Energy =            394.5435612737772431
    One-Electron Energy =               -1275.3166980562853041
    Two-Electron Energy =                 517.6977191161490737
    Total Energy =                       -363.0754176663590442
  Basis Set: (AUG-CC-PVTZ AUX)
    Blend: AUG-CC-PVTZ-RI
    Molecular point group: c1

    Geometry (in Angstrom), charge = 0, multiplicity = 1:

       Center              X                  Y                   Z               Mass
    ------------   -----------------  -----------------  -----------------  -----------------
         O            0.005852036862     2.017724135964    -0.105777539400    15.994914619570
         N            0.261319236862    -0.276620664036    -0.300819239400    14.003074004430
         C           -0.474837963138    -1.487451864036    -0.020814539400    12.000000000000
         C           -1.934267963138    -1.011502864036    -0.040017539400    12.000000000000
         C           -1.832912963138     0.446810135964     0.409358460600    12.000000000000
         C           -0.442296963138     0.873405135964    -0.042719539400    12.000000000000
         C            1.677726036862    -0.237628864036    -0.613224539400    12.000000000000
         C            2.513886036862    -0.384559864036     0.654327460600    12.000000000000
         H           -0.190053963138    -1.874480864036     0.969144460600     1.007825032230
         H           -0.269388963138    -2.269319864036    -0.760416539400     1.007825032230
         H           -2.579182963138    -1.624252864036     0.595100460600     1.007825032230
         H           -2.316664963138    -1.061796864036    -1.063797539400     1.007825032230
         H           -1.875693963138     0.540016135964     1.501634460600     1.007825032230
         H           -2.594660963138     1.109026135964    -0.008207539400     1.007825032230
         H            1.911224036862    -1.030653864036    -1.332822539400     1.007825032230
         H            1.878294036862     0.725671135964    -1.088616539400     1.007825032230
         H            2.288461036862     0.434571135964     1.341461460600     1.007825032230
         H            2.309162036862    -1.333077864036     1.158673460600     1.007825032230
         H            3.581307036862    -0.351640864036     0.415705460600     1.007825032230

  Basis Set: AUG-CC-PVTZ
    Blend: AUG-CC-PVTZ
  Basis Set: (AUG-CC-PVTZ AUX)
    Blend: AUG-CC-PVTZ-JKFIT
	 Reference Energy          =    -363.0754176663590442 [Eh]
	 Singles Energy            =      -0.0000000000000000 [Eh]
	 Same-Spin Energy          =      -0.3768912279093288 [Eh]
	 Opposite-Spin Energy      =      -1.2469783199732491 [Eh]
	 Correlation Energy        =      -1.6238695478825780 [Eh]
	 Total Energy              =    -364.6992872142416218 [Eh]

	 ================> DF-SCS-MP2 Energies <==================
	-----------------------------------------------------------
	 SCS Same-Spin Scale       =       0.3333333333333333 [-]
	 SCS Opposite-Spin Scale   =       1.2000000000000000 [-]
	 SCS Same-Spin Energy      =      -0.1256304093031096 [Eh]
	 SCS Opposite-Spin Energy  =      -1.4963739839678989 [Eh]
	 SCS Correlation Energy    =      -1.6220043932710084 [Eh]
	 SCS Total Energy          =    -364.6974220596300711 [Eh]
	-----------------------------------------------------------

  Dipole Moment: [D]
     X:    -0.4712      Y:    -3.9638      Z:     0.1703     Total:     3.9953

*** Psi4 exiting successfully. Buy a developer a beer!
