                               Psi4 1.4a3.dev225

  ==> Input File <==

--------------------------------------------------------------------------
#psi4
#
memory 32 gb

molecule  {
0 1
  O       -0.0101440     2.0708820    -0.1140410
  N        0.2351990    -0.2177110    -0.3583720
  C       -0.4908340    -1.4342940    -0.0290780
  C       -1.9502640    -0.9583450    -0.0482810
  C       -1.8489090     0.4999680     0.4010950
  C       -0.4582930     0.9265630    -0.0509830
  C        1.7108877    -0.1833256    -0.6305549
  C        2.4978900    -0.3314020     0.6460640
  H       -0.2060500    -1.8213230     0.9608810
  H       -0.2853850    -2.2161620    -0.7686800
  H       -2.5951790    -1.5710950     0.5868370
  H       -2.3326610    -1.0086390    -1.0720610
  H       -1.8916900     0.5931740     1.4933710
  H       -2.6106570     1.1621840    -0.0164710
  H        1.8952280    -0.9774960    -1.3410860
  H        1.8622980     0.7788290    -1.0968800
  H        2.2724650     0.4877290     1.3331980
  H        2.2931660    -1.2799200     1.1504100
  H        3.5653110    -0.2984830     0.4074420
units angstrom
no_reorient  #important for SAPT in psi4, default
symmetry c1  #important for SAPT in psi4, default
}

set PROPERTIES_ORIGIN ["COM"]
properties('MP2/aug-cc-pvtz', properties = ['dipole'])
--------------------------------------------------------------------------

    Molecular point group: c1
  Charge       = 0
  Multiplicity = 1
  Basis Set: AUG-CC-PVTZ
    Blend: AUG-CC-PVTZ
  Basis Set: (AUG-CC-PVTZ AUX)
    Blend: AUG-CC-PVTZ-JKFIT

    Orbital Energies [Eh]
    ---------------------

    Doubly Occupied:

       1A    -20.509391     2A    -15.578767     3A    -11.339240
       4A    -11.273190     5A    -11.262836     6A    -11.241111
       7A    -11.238517     8A    -11.220065     9A     -1.363760
      10A     -1.250736    11A     -1.084442    12A     -1.005104
      13A     -0.969841    14A     -0.867996    15A     -0.827320
      16A     -0.723594    17A     -0.690290    18A     -0.665153
      19A     -0.639812    20A     -0.605495    21A     -0.588611
      22A     -0.572046    23A     -0.562009    24A     -0.553599
      25A     -0.524593    26A     -0.511514    27A     -0.509631
      28A     -0.493007    29A     -0.476663    30A     -0.406893
      31A     -0.369157

  @DF-RHF Final Energy:  -363.07372415334896

   => Energetics <=

    Nuclear Repulsion Energy =            393.4939249322561636
    One-Electron Energy =               -1273.2865307172669418
    Two-Electron Energy =                 516.7188816316618158
    Total Energy =                       -363.0737241533489623
  Basis Set: (AUG-CC-PVTZ AUX)
    Blend: AUG-CC-PVTZ-RI
    Molecular point group: c1

    Geometry (in Angstrom), charge = 0, multiplicity = 1:

       Center              X                  Y                   Z               Mass
    ------------   -----------------  -----------------  -----------------  -----------------
         O            0.001889299210     2.016890351982    -0.098711959270    15.994914619570
         N            0.247232299210    -0.271702648018    -0.343042959270    14.003074004430
         C           -0.478800700790    -1.488285648018    -0.013748959270    12.000000000000
         C           -1.938230700790    -1.012336648018    -0.032951959270    12.000000000000
         C           -1.836875700790     0.445976351982     0.416424040730    12.000000000000
         C           -0.446259700790     0.872571351982    -0.035653959270    12.000000000000
         C            1.722920999210    -0.237317248018    -0.615225859270    12.000000000000
         C            2.509923299210    -0.385393648018     0.661393040730    12.000000000000
         H           -0.194016700790    -1.875314648018     0.976210040730     1.007825032230
         H           -0.273351700790    -2.270153648018    -0.753350959270     1.007825032230
         H           -2.583145700790    -1.625086648018     0.602166040730     1.007825032230
         H           -2.320627700790    -1.062630648018    -1.056731959270     1.007825032230
         H           -1.879656700790     0.539182351982     1.508700040730     1.007825032230
         H           -2.598623700790     1.108192351982    -0.001141959270     1.007825032230
         H            1.907261299210    -1.031487648018    -1.325756959270     1.007825032230
         H            1.874331299210     0.724837351982    -1.081550959270     1.007825032230
         H            2.284498299210     0.433737351982     1.348527040730     1.007825032230
         H            2.305199299210    -1.333911648018     1.165739040730     1.007825032230
         H            3.577344299210    -0.352474648018     0.422771040730     1.007825032230

  Basis Set: AUG-CC-PVTZ
    Blend: AUG-CC-PVTZ
  Basis Set: (AUG-CC-PVTZ AUX)
    Blend: AUG-CC-PVTZ-JKFIT
	 Reference Energy          =    -363.0737241533489623 [Eh]
	 Singles Energy            =      -0.0000000000000000 [Eh]
	 Same-Spin Energy          =      -0.3766951412137192 [Eh]
	 Opposite-Spin Energy      =      -1.2471012105027208 [Eh]
	 Correlation Energy        =      -1.6237963517164400 [Eh]
	 Total Energy              =    -364.6975205050654267 [Eh]

	 ================> DF-SCS-MP2 Energies <==================
	-----------------------------------------------------------
	 SCS Same-Spin Scale       =       0.3333333333333333 [-]
	 SCS Opposite-Spin Scale   =       1.2000000000000000 [-]
	 SCS Same-Spin Energy      =      -0.1255650470712397 [Eh]
	 SCS Opposite-Spin Energy  =      -1.4965214526032649 [Eh]
	 SCS Correlation Energy    =      -1.6220864996745046 [Eh]
	 SCS Total Energy          =    -364.6958106530234431 [Eh]
	-----------------------------------------------------------

  Dipole Moment: [D]
     X:    -0.3002      Y:    -3.9802      Z:     0.2437     Total:     3.9989

*** Psi4 exiting successfully. Buy a developer a beer!
