                               Psi4 1.3.2 release

  ==> Input File <==

--------------------------------------------------------------------------
#psi4
#
memory 32 gb

molecule  {
0 1
  O       -0.0101440     2.0708820    -0.1140410
  N        0.2201748    -0.2060929    -0.4578518
  C       -0.4908340    -1.4342940    -0.0290780
  C       -1.9502640    -0.9583450    -0.0482810
  C       -1.8489090     0.4999680     0.4010950
  C       -0.4582930     0.9265630    -0.0509830
  C        1.6617300    -0.1844710    -0.6214880
  C        2.4978900    -0.3314020     0.6460640
  H       -0.2060500    -1.8213230     0.9608810
  H       -0.2853850    -2.2161620    -0.7686800
  H       -2.5951790    -1.5710950     0.5868370
  H       -2.3326610    -1.0086390    -1.0720610
  H       -1.8916900     0.5931740     1.4933710
  H       -2.6106570     1.1621840    -0.0164710
  H        1.8952280    -0.9774960    -1.3410860
  H        1.8622980     0.7788290    -1.0968800
  H        2.2724650     0.4877290     1.3331980
  H        2.2931660    -1.2799200     1.1504100
  H        3.5653110    -0.2984830     0.4074420
units angstrom
no_reorient  #important for SAPT in psi4, default
symmetry c1  #important for SAPT in psi4, default
}

set PROPERTIES_ORIGIN ["COM"]
properties('MP2/aug-cc-pvtz', properties = ['dipole'])
--------------------------------------------------------------------------

    Molecular point group: c1
  Charge       = 0
  Multiplicity = 1
  Basis Set: AUG-CC-PVTZ
    Blend: AUG-CC-PVTZ
  Basis Set: (AUG-CC-PVTZ AUX)
    Blend: AUG-CC-PVTZ-JKFIT

    Orbital Energies [Eh]
    ---------------------

    Doubly Occupied:

       1A    -20.514782     2A    -15.581886     3A    -11.342740
       4A    -11.275489     5A    -11.259046     6A    -11.242224
       7A    -11.241147     8A    -11.220137     9A     -1.367896
      10A     -1.252889    11A     -1.087323    12A     -1.000090
      13A     -0.969542    14A     -0.870743    15A     -0.827587
      16A     -0.723188    17A     -0.692133    18A     -0.664608
      19A     -0.638850    20A     -0.603632    21A     -0.592463
      22A     -0.567181    23A     -0.564810    24A     -0.554200
      25A     -0.527004    26A     -0.509820    27A     -0.506613
      28A     -0.486703    29A     -0.478730    30A     -0.411914
      31A     -0.374057

  @DF-RHF Final Energy:  -363.07248676414144

   => Energetics <=

    Nuclear Repulsion Energy =            393.5221536237157807
    One-Electron Energy =               -1273.2904279792269335
    Two-Electron Energy =                 516.6957875913697080
    Total Energy =                       -363.0724867641414448
  Basis Set: (AUG-CC-PVTZ AUX)
    Blend: AUG-CC-PVTZ-RI
    Molecular point group: c1

    Geometry (in Angstrom), charge = 0, multiplicity = 1:

       Center              X                  Y                   Z               Mass
    ------------   -----------------  -----------------  -----------------  -----------------
         O            0.008966135294     2.015573240545    -0.087355627032    15.994914619570
         N            0.239284935294    -0.261401659455    -0.431166427032    14.003074004430
         C           -0.471723864706    -1.489602759455    -0.002392627032    12.000000000000
         C           -1.931153864706    -1.013653759455    -0.021595627032    12.000000000000
         C           -1.829798864706     0.444659240545     0.427780372968    12.000000000000
         C           -0.439182864706     0.871254240545    -0.024297627032    12.000000000000
         C            1.680840135294    -0.239779759455    -0.594802627032    12.000000000000
         C            2.517000135294    -0.386710759455     0.672749372968    12.000000000000
         H           -0.186939864706    -1.876631759455     0.987566372968     1.007825032230
         H           -0.266274864706    -2.271470759455    -0.741994627032     1.007825032230
         H           -2.576068864706    -1.626403759455     0.613522372968     1.007825032230
         H           -2.313550864706    -1.063947759455    -1.045375627032     1.007825032230
         H           -1.872579864706     0.537865240545     1.520056372968     1.007825032230
         H           -2.591546864706     1.106875240545     0.010214372968     1.007825032230
         H            1.914338135294    -1.032804759455    -1.314400627032     1.007825032230
         H            1.881408135294     0.723520240545    -1.070194627032     1.007825032230
         H            2.291575135294     0.432420240545     1.359883372968     1.007825032230
         H            2.312276135294    -1.335228759455     1.177095372968     1.007825032230
         H            3.584421135294    -0.353791759455     0.434127372968     1.007825032230

  Basis Set: AUG-CC-PVTZ
    Blend: AUG-CC-PVTZ
  Basis Set: (AUG-CC-PVTZ AUX)
    Blend: AUG-CC-PVTZ-JKFIT
	 Reference Energy          =    -363.0724867641414448 [Eh]
	 Singles Energy            =      -0.0000000000000000 [Eh]
	 Same-Spin Energy          =      -0.3767276132729435 [Eh]
	 Opposite-Spin Energy      =      -1.2473788500072867 [Eh]
	 Correlation Energy        =      -1.6241064632802300 [Eh]
	 Total Energy              =    -364.6965932274216584 [Eh]

	 ================> DF-SCS-MP2 Energies <==================
	-----------------------------------------------------------
	 SCS Same-Spin Scale       =       0.3333333333333333 [-]
	 SCS Opposite-Spin Scale   =       1.2000000000000000 [-]
	 SCS Same-Spin Energy      =      -0.1255758710909811 [Eh]
	 SCS Opposite-Spin Energy  =      -1.4968546200087440 [Eh]
	 SCS Correlation Energy    =      -1.6224304910997251 [Eh]
	 SCS Total Energy          =    -364.6949172552411937 [Eh]
	-----------------------------------------------------------

  Dipole Moment: [D]
     X:    -0.4856      Y:    -3.8531      Z:     0.4374     Total:     3.9081

*** Psi4 exiting successfully. Buy a developer a beer!
