                               Psi4 1.3.2 release

  ==> Input File <==

--------------------------------------------------------------------------
#psi4
#
memory 32 gb

molecule  {
0 1
  O       -0.0101440     2.0708820    -0.1140410
  N        0.2351990    -0.2177110    -0.3583720
  C       -0.4908340    -1.4342940    -0.0290780
  C       -1.9502640    -0.9583450    -0.0482810
  C       -1.8489090     0.4999680     0.4010950
  C       -0.4947113     0.8335713    -0.0458587
  C        1.6617300    -0.1844710    -0.6214880
  C        2.4978900    -0.3314020     0.6460640
  H       -0.2060500    -1.8213230     0.9608810
  H       -0.2853850    -2.2161620    -0.7686800
  H       -2.5951790    -1.5710950     0.5868370
  H       -2.3326610    -1.0086390    -1.0720610
  H       -1.8916900     0.5931740     1.4933710
  H       -2.6106570     1.1621840    -0.0164710
  H        1.8952280    -0.9774960    -1.3410860
  H        1.8622980     0.7788290    -1.0968800
  H        2.2724650     0.4877290     1.3331980
  H        2.2931660    -1.2799200     1.1504100
  H        3.5653110    -0.2984830     0.4074420
units angstrom
no_reorient  #important for SAPT in psi4, default
symmetry c1  #important for SAPT in psi4, default
}

set PROPERTIES_ORIGIN ["COM"]
properties('MP2/aug-cc-pvtz', properties = ['dipole'])
--------------------------------------------------------------------------

    Molecular point group: c1
  Charge       = 0
  Multiplicity = 1
  Basis Set: AUG-CC-PVTZ
    Blend: AUG-CC-PVTZ
  Basis Set: (AUG-CC-PVTZ AUX)
    Blend: AUG-CC-PVTZ-JKFIT

    Orbital Energies [Eh]
    ---------------------

    Doubly Occupied:

       1A    -20.489529     2A    -15.596193     3A    -11.339932
       4A    -11.280839     5A    -11.268160     6A    -11.247080
       7A    -11.242654     8A    -11.222822     9A     -1.338805
      10A     -1.240026    11A     -1.100947    12A     -1.011228
      13A     -0.982695    14A     -0.879934    15A     -0.841655
      16A     -0.733260    17A     -0.702241    18A     -0.670936
      19A     -0.635269    20A     -0.612050    21A     -0.594275
      22A     -0.569933    23A     -0.565215    24A     -0.528046
      25A     -0.526659    26A     -0.516574    27A     -0.514264
      28A     -0.493583    29A     -0.462393    30A     -0.398319
      31A     -0.367069

  @DF-RHF Final Energy:  -363.05432350724828

   => Energetics <=

    Nuclear Repulsion Energy =            394.7607286130773332
    One-Electron Energy =               -1275.6849299723201057
    Two-Electron Energy =                 517.8698778519943744
    Total Energy =                       -363.0543235072483412
  Basis Set: (AUG-CC-PVTZ AUX)
    Blend: AUG-CC-PVTZ-RI
    Molecular point group: c1

    Geometry (in Angstrom), charge = 0, multiplicity = 1:

       Center              X                  Y                   Z               Mass
    ------------   -----------------  -----------------  -----------------  -----------------
         O            0.010970260434     2.026879780734    -0.100217869068    15.994914619570
         N            0.256313260434    -0.261713219266    -0.344548869068    14.003074004430
         C           -0.469719739566    -1.478296219266    -0.015254869068    12.000000000000
         C           -1.929149739566    -1.002347219266    -0.034457869068    12.000000000000
         C           -1.827794739566     0.455965780734     0.414918130932    12.000000000000
         C           -0.473597039566     0.789569080734    -0.032035569068    12.000000000000
         C            1.682844260434    -0.228473219266    -0.607664869068    12.000000000000
         C            2.519004260434    -0.375404219266     0.659887130932    12.000000000000
         H           -0.184935739566    -1.865325219266     0.974704130932     1.007825032230
         H           -0.264270739566    -2.260164219266    -0.754856869068     1.007825032230
         H           -2.574064739566    -1.615097219266     0.600660130932     1.007825032230
         H           -2.311546739566    -1.052641219266    -1.058237869068     1.007825032230
         H           -1.870575739566     0.549171780734     1.507194130932     1.007825032230
         H           -2.589542739566     1.118181780734    -0.002647869068     1.007825032230
         H            1.916342260434    -1.021498219266    -1.327262869068     1.007825032230
         H            1.883412260434     0.734826780734    -1.083056869068     1.007825032230
         H            2.293579260434     0.443726780734     1.347021130932     1.007825032230
         H            2.314280260434    -1.323922219266     1.164233130932     1.007825032230
         H            3.586425260434    -0.342485219266     0.421265130932     1.007825032230

  Basis Set: AUG-CC-PVTZ
    Blend: AUG-CC-PVTZ
  Basis Set: (AUG-CC-PVTZ AUX)
    Blend: AUG-CC-PVTZ-JKFIT
	 Reference Energy          =    -363.0543235072482844 [Eh]
	 Singles Energy            =      -0.0000000000000000 [Eh]
	 Same-Spin Energy          =      -0.3787984894517806 [Eh]
	 Opposite-Spin Energy      =      -1.2507829822262517 [Eh]
	 Correlation Energy        =      -1.6295814716780324 [Eh]
	 Total Energy              =    -364.6839049789263072 [Eh]

	 ================> DF-SCS-MP2 Energies <==================
	-----------------------------------------------------------
	 SCS Same-Spin Scale       =       0.3333333333333333 [-]
	 SCS Opposite-Spin Scale   =       1.2000000000000000 [-]
	 SCS Same-Spin Energy      =      -0.1262661631505935 [Eh]
	 SCS Opposite-Spin Energy  =      -1.5009395786715021 [Eh]
	 SCS Correlation Energy    =      -1.6272057418220955 [Eh]
	 SCS Total Energy          =    -364.6815292490703655 [Eh]
	-----------------------------------------------------------

  Dipole Moment: [D]
     X:    -0.4913      Y:    -4.7347      Z:     0.2615     Total:     4.7673

*** Psi4 exiting successfully. Buy a developer a beer!
