                               Psi4 1.3.2 release

  ==> Input File <==

--------------------------------------------------------------------------
#psi4
#
memory 32 gb

molecule  {
0 1
  O       -0.0101440     2.0708820    -0.1140410
  N        0.2471811    -0.2190802    -0.3360338
  C       -0.4908340    -1.4342940    -0.0290780
  C       -1.9502640    -0.9583450    -0.0482810
  C       -1.8489090     0.4999680     0.4010950
  C       -0.4582930     0.9265630    -0.0509830
  C        1.6617300    -0.1844710    -0.6214880
  C        2.4978900    -0.3314020     0.6460640
  H       -0.2060500    -1.8213230     0.9608810
  H       -0.2853850    -2.2161620    -0.7686800
  H       -2.5951790    -1.5710950     0.5868370
  H       -2.3326610    -1.0086390    -1.0720610
  H       -1.8916900     0.5931740     1.4933710
  H       -2.6106570     1.1621840    -0.0164710
  H        1.8952280    -0.9774960    -1.3410860
  H        1.8622980     0.7788290    -1.0968800
  H        2.2724650     0.4877290     1.3331980
  H        2.2931660    -1.2799200     1.1504100
  H        3.5653110    -0.2984830     0.4074420
units angstrom
no_reorient  #important for SAPT in psi4, default
symmetry c1  #important for SAPT in psi4, default
}

set PROPERTIES_ORIGIN ["COM"]
properties('MP2/aug-cc-pvtz', properties = ['dipole'])
--------------------------------------------------------------------------

    Molecular point group: c1
  Charge       = 0
  Multiplicity = 1
  Basis Set: AUG-CC-PVTZ
    Blend: AUG-CC-PVTZ
  Basis Set: (AUG-CC-PVTZ AUX)
    Blend: AUG-CC-PVTZ-JKFIT

    Orbital Energies [Eh]
    ---------------------

    Doubly Occupied:

       1A    -20.511467     2A    -15.580450     3A    -11.341624
       4A    -11.275025     5A    -11.260412     6A    -11.242845
       7A    -11.240315     8A    -11.217781     9A     -1.366730
      10A     -1.258692    11A     -1.088921    12A     -1.000021
      13A     -0.971818    14A     -0.870524    15A     -0.829452
      16A     -0.727262    17A     -0.692891    18A     -0.668118
      19A     -0.639782    20A     -0.605004    21A     -0.588412
      22A     -0.572746    23A     -0.563496    24A     -0.554754
      25A     -0.521883    26A     -0.514574    27A     -0.509619
      28A     -0.490402    29A     -0.477240    30A     -0.409191
      31A     -0.368019

  @DF-RHF Final Energy:  -363.07577085184113

   => Energetics <=

    Nuclear Repulsion Energy =            394.3818640674850826
    One-Electron Energy =               -1274.9963248700407803
    Two-Electron Energy =                 517.5386899507145699
    Total Energy =                       -363.0757708518410709
  Basis Set: (AUG-CC-PVTZ AUX)
    Blend: AUG-CC-PVTZ-RI
    Molecular point group: c1

    Geometry (in Angstrom), charge = 0, multiplicity = 1:

       Center              X                  Y                   Z               Mass
    ------------   -----------------  -----------------  -----------------  -----------------
         O            0.005621975170     2.017181443475    -0.102440214630    15.994914619570
         N            0.262947075170    -0.272780756525    -0.324433014630    14.003074004430
         C           -0.475068024830    -1.487994556525    -0.017477214630    12.000000000000
         C           -1.934498024830    -1.012045556525    -0.036680214630    12.000000000000
         C           -1.833143024830     0.446267443475     0.412695785370    12.000000000000
         C           -0.442527024830     0.872862443475    -0.039382214630    12.000000000000
         C            1.677495975170    -0.238171556525    -0.609887214630    12.000000000000
         C            2.513655975170    -0.385102556525     0.657664785370    12.000000000000
         H           -0.190284024830    -1.875023556525     0.972481785370     1.007825032230
         H           -0.269619024830    -2.269862556525    -0.757079214630     1.007825032230
         H           -2.579413024830    -1.624795556525     0.598437785370     1.007825032230
         H           -2.316895024830    -1.062339556525    -1.060460214630     1.007825032230
         H           -1.875924024830     0.539473443475     1.504971785370     1.007825032230
         H           -2.594891024830     1.108483443475    -0.004870214630     1.007825032230
         H            1.910993975170    -1.031196556525    -1.329485214630     1.007825032230
         H            1.878063975170     0.725128443475    -1.085279214630     1.007825032230
         H            2.288230975170     0.434028443475     1.344798785370     1.007825032230
         H            2.308931975170    -1.333620556525     1.162010785370     1.007825032230
         H            3.581076975170    -0.352183556525     0.419042785370     1.007825032230

  Basis Set: AUG-CC-PVTZ
    Blend: AUG-CC-PVTZ
  Basis Set: (AUG-CC-PVTZ AUX)
    Blend: AUG-CC-PVTZ-JKFIT
	 Reference Energy          =    -363.0757708518411278 [Eh]
	 Singles Energy            =      -0.0000000000000000 [Eh]
	 Same-Spin Energy          =      -0.3768470146155055 [Eh]
	 Opposite-Spin Energy      =      -1.2469648343042510 [Eh]
	 Correlation Energy        =      -1.6238118489197566 [Eh]
	 Total Energy              =    -364.6995827007608568 [Eh]

	 ================> DF-SCS-MP2 Energies <==================
	-----------------------------------------------------------
	 SCS Same-Spin Scale       =       0.3333333333333333 [-]
	 SCS Opposite-Spin Scale   =       1.2000000000000000 [-]
	 SCS Same-Spin Energy      =      -0.1256156715385018 [Eh]
	 SCS Opposite-Spin Energy  =      -1.4963578011651011 [Eh]
	 SCS Correlation Energy    =      -1.6219734727036030 [Eh]
	 SCS Total Energy          =    -364.6977443245447148 [Eh]
	-----------------------------------------------------------

  Dipole Moment: [D]
     X:    -0.4962      Y:    -3.9517      Z:     0.2183     Total:     3.9887

*** Psi4 exiting successfully. Buy a developer a beer!
