                               Psi4 1.4a3.dev225

  ==> Input File <==

--------------------------------------------------------------------------
#psi4
#
memory 32 gb

molecule  {
0 1
  O       -0.0101440     2.0708820    -0.1140410
  N        0.2351990    -0.2177110    -0.3583720
  C       -0.4908340    -1.4342940    -0.0290780
  C       -1.9502640    -0.9583450    -0.0482810
  C       -1.8475835     0.5190391     0.4069717
  C       -0.4582930     0.9265630    -0.0509830
  C        1.6617300    -0.1844710    -0.6214880
  C        2.4978900    -0.3314020     0.6460640
  H       -0.2060500    -1.8213230     0.9608810
  H       -0.2853850    -2.2161620    -0.7686800
  H       -2.5951790    -1.5710950     0.5868370
  H       -2.3326610    -1.0086390    -1.0720610
  H       -1.8916900     0.5931740     1.4933710
  H       -2.6106570     1.1621840    -0.0164710
  H        1.8952280    -0.9774960    -1.3410860
  H        1.8622980     0.7788290    -1.0968800
  H        2.2724650     0.4877290     1.3331980
  H        2.2931660    -1.2799200     1.1504100
  H        3.5653110    -0.2984830     0.4074420
units angstrom
no_reorient  #important for SAPT in psi4, default
symmetry c1  #important for SAPT in psi4, default
}

set PROPERTIES_ORIGIN ["COM"]
properties('MP2/aug-cc-pvtz', properties = ['dipole'])
--------------------------------------------------------------------------

    Molecular point group: c1
  Charge       = 0
  Multiplicity = 1
  Basis Set: AUG-CC-PVTZ
    Blend: AUG-CC-PVTZ
  Basis Set: (AUG-CC-PVTZ AUX)
    Blend: AUG-CC-PVTZ-JKFIT

    Orbital Energies [Eh]
    ---------------------

    Doubly Occupied:

       1A    -20.511105     2A    -15.581150     3A    -11.341074
       4A    -11.274776     5A    -11.260996     6A    -11.243138
       7A    -11.239411     8A    -11.218682     9A     -1.366787
      10A     -1.258050    11A     -1.085912    12A     -0.999782
      13A     -0.972760    14A     -0.869752    15A     -0.830444
      16A     -0.726366    17A     -0.693017    18A     -0.667117
      19A     -0.640333    20A     -0.604823    21A     -0.590726
      22A     -0.572318    23A     -0.563527    24A     -0.552875
      25A     -0.522760    26A     -0.512893    27A     -0.507529
      28A     -0.490539    29A     -0.478410    30A     -0.409267
      31A     -0.369430

  @DF-RHF Final Energy:  -363.07591403145108

   => Energetics <=

    Nuclear Repulsion Energy =            394.1346696688273141
    One-Electron Energy =               -1274.5096672501490502
    Two-Electron Energy =                 517.2990835498706019
    Total Energy =                       -363.0759140314511342
  Basis Set: (AUG-CC-PVTZ AUX)
    Blend: AUG-CC-PVTZ-RI
    Molecular point group: c1

    Geometry (in Angstrom), charge = 0, multiplicity = 1:

       Center              X                  Y                   Z               Mass
    ------------   -----------------  -----------------  -----------------  -----------------
         O            0.006965048877     2.014988152924    -0.100297710557    15.994914619570
         N            0.252308048877    -0.273604847076    -0.344628710557    14.003074004430
         C           -0.473724951123    -1.490187847076    -0.015334710557    12.000000000000
         C           -1.933154951123    -1.014238847076    -0.034537710557    12.000000000000
         C           -1.830474451123     0.463145252924     0.420714989443    12.000000000000
         C           -0.441183951123     0.870669152924    -0.037239710557    12.000000000000
         C            1.678839048877    -0.240364847076    -0.607744710557    12.000000000000
         C            2.514999048877    -0.387295847076     0.659807289443    12.000000000000
         H           -0.188940951123    -1.877216847076     0.974624289443     1.007825032230
         H           -0.268275951123    -2.272055847076    -0.754936710557     1.007825032230
         H           -2.578069951123    -1.626988847076     0.600580289443     1.007825032230
         H           -2.315551951123    -1.064532847076    -1.058317710557     1.007825032230
         H           -1.874580951123     0.537280152924     1.507114289443     1.007825032230
         H           -2.593547951123     1.106290152924    -0.002727710557     1.007825032230
         H            1.912337048877    -1.033389847076    -1.327342710557     1.007825032230
         H            1.879407048877     0.722935152924    -1.083136710557     1.007825032230
         H            2.289574048877     0.431835152924     1.346941289443     1.007825032230
         H            2.310275048877    -1.335813847076     1.164153289443     1.007825032230
         H            3.582420048877    -0.354376847076     0.421185289443     1.007825032230

  Basis Set: AUG-CC-PVTZ
    Blend: AUG-CC-PVTZ
  Basis Set: (AUG-CC-PVTZ AUX)
    Blend: AUG-CC-PVTZ-JKFIT
	 Reference Energy          =    -363.0759140314510773 [Eh]
	 Singles Energy            =      -0.0000000000000000 [Eh]
	 Same-Spin Energy          =      -0.3766334247432352 [Eh]
	 Opposite-Spin Energy      =      -1.2468192702444745 [Eh]
	 Correlation Energy        =      -1.6234526949877097 [Eh]
	 Total Energy              =    -364.6993667264387682 [Eh]

	 ================> DF-SCS-MP2 Energies <==================
	-----------------------------------------------------------
	 SCS Same-Spin Scale       =       0.3333333333333333 [-]
	 SCS Opposite-Spin Scale   =       1.2000000000000000 [-]
	 SCS Same-Spin Energy      =      -0.1255444749144117 [Eh]
	 SCS Opposite-Spin Energy  =      -1.4961831242933694 [Eh]
	 SCS Correlation Energy    =      -1.6217275992077811 [Eh]
	 SCS Total Energy          =    -364.6976416306588362 [Eh]
	-----------------------------------------------------------

  Dipole Moment: [D]
     X:    -0.4673      Y:    -3.9431      Z:     0.2589     Total:     3.9791

*** Psi4 exiting successfully. Buy a developer a beer!
