                               Psi4 1.3.2 release

  ==> Input File <==

--------------------------------------------------------------------------
#psi4
#
memory 32 gb

molecule  {
0 1
  O       -0.0101440     2.0708820    -0.1140410
  N        0.2351990    -0.2177110    -0.3583720
  C       -0.4409184    -1.3506525    -0.0517173
  C       -1.9502640    -0.9583450    -0.0482810
  C       -1.8489090     0.4999680     0.4010950
  C       -0.4582930     0.9265630    -0.0509830
  C        1.6617300    -0.1844710    -0.6214880
  C        2.4978900    -0.3314020     0.6460640
  H       -0.2060500    -1.8213230     0.9608810
  H       -0.2853850    -2.2161620    -0.7686800
  H       -2.5951790    -1.5710950     0.5868370
  H       -2.3326610    -1.0086390    -1.0720610
  H       -1.8916900     0.5931740     1.4933710
  H       -2.6106570     1.1621840    -0.0164710
  H        1.8952280    -0.9774960    -1.3410860
  H        1.8622980     0.7788290    -1.0968800
  H        2.2724650     0.4877290     1.3331980
  H        2.2931660    -1.2799200     1.1504100
  H        3.5653110    -0.2984830     0.4074420
units angstrom
no_reorient  #important for SAPT in psi4, default
symmetry c1  #important for SAPT in psi4, default
}

set PROPERTIES_ORIGIN ["COM"]
properties('MP2/aug-cc-pvtz', properties = ['dipole'])
--------------------------------------------------------------------------

    Molecular point group: c1
  Charge       = 0
  Multiplicity = 1
  Basis Set: AUG-CC-PVTZ
    Blend: AUG-CC-PVTZ
  Basis Set: (AUG-CC-PVTZ AUX)
    Blend: AUG-CC-PVTZ-JKFIT

    Orbital Energies [Eh]
    ---------------------

    Doubly Occupied:

       1A    -20.516287     2A    -15.583247     3A    -11.345308
       4A    -11.274457     5A    -11.264398     6A    -11.242074
       7A    -11.240046     8A    -11.220475     9A     -1.374402
      10A     -1.281903    11A     -1.088548    12A     -1.006339
      13A     -0.967077    14A     -0.875345    15A     -0.832912
      16A     -0.733041    17A     -0.698437    18A     -0.670750
      19A     -0.642038    20A     -0.607644    21A     -0.591001
      22A     -0.578339    23A     -0.561147    24A     -0.556111
      25A     -0.526506    26A     -0.515413    27A     -0.503993
      28A     -0.484748    29A     -0.474780    30A     -0.413374
      31A     -0.366738

  @DF-RHF Final Energy:  -363.06534269177405

   => Energetics <=

    Nuclear Repulsion Energy =            396.0711632154253721
    One-Electron Energy =               -1278.1992558945526071
    Two-Electron Energy =                 519.0627499873531860
    Total Energy =                       -363.0653426917740489
  Basis Set: (AUG-CC-PVTZ AUX)
    Blend: AUG-CC-PVTZ-RI
    Molecular point group: c1

    Geometry (in Angstrom), charge = 0, multiplicity = 1:

       Center              X                  Y                   Z               Mass
    ------------   -----------------  -----------------  -----------------  -----------------
         O            0.001808874085     2.008136216650    -0.097271713896    15.994914619570
         N            0.247151874085    -0.280456783350    -0.341602713896    14.003074004430
         C           -0.428965525915    -1.413398283350    -0.034948013896    12.000000000000
         C           -1.938311125915    -1.021090783350    -0.031511713896    12.000000000000
         C           -1.836956125915     0.437222216650     0.417864286104    12.000000000000
         C           -0.446340125915     0.863817216650    -0.034213713896    12.000000000000
         C            1.673682874085    -0.247216783350    -0.604718713896    12.000000000000
         C            2.509842874085    -0.394147783350     0.662833286104    12.000000000000
         H           -0.194097125915    -1.884068783350     0.977650286104     1.007825032230
         H           -0.273432125915    -2.278907783350    -0.751910713896     1.007825032230
         H           -2.583226125915    -1.633840783350     0.603606286104     1.007825032230
         H           -2.320708125915    -1.071384783350    -1.055291713896     1.007825032230
         H           -1.879737125915     0.530428216650     1.510140286104     1.007825032230
         H           -2.598704125915     1.099438216650     0.000298286104     1.007825032230
         H            1.907180874085    -1.040241783350    -1.324316713896     1.007825032230
         H            1.874250874085     0.716083216650    -1.080110713896     1.007825032230
         H            2.284417874085     0.424983216650     1.349967286104     1.007825032230
         H            2.305118874085    -1.342665783350     1.167179286104     1.007825032230
         H            3.577263874085    -0.361228783350     0.424211286104     1.007825032230

  Basis Set: AUG-CC-PVTZ
    Blend: AUG-CC-PVTZ
  Basis Set: (AUG-CC-PVTZ AUX)
    Blend: AUG-CC-PVTZ-JKFIT
	 Reference Energy          =    -363.0653426917740489 [Eh]
	 Singles Energy            =      -0.0000000000000000 [Eh]
	 Same-Spin Energy          =      -0.3775910580657605 [Eh]
	 Opposite-Spin Energy      =      -1.2474219192736955 [Eh]
	 Correlation Energy        =      -1.6250129773394559 [Eh]
	 Total Energy              =    -364.6903556691135009 [Eh]

	 ================> DF-SCS-MP2 Energies <==================
	-----------------------------------------------------------
	 SCS Same-Spin Scale       =       0.3333333333333333 [-]
	 SCS Opposite-Spin Scale   =       1.2000000000000000 [-]
	 SCS Same-Spin Energy      =      -0.1258636860219202 [Eh]
	 SCS Opposite-Spin Energy  =      -1.4969063031284346 [Eh]
	 SCS Correlation Energy    =      -1.6227699891503549 [Eh]
	 SCS Total Energy          =    -364.6881126809244051 [Eh]
	-----------------------------------------------------------

  Dipole Moment: [D]
     X:    -0.3615      Y:    -3.6393      Z:     0.1911     Total:     3.6622

*** Psi4 exiting successfully. Buy a developer a beer!
