                               Psi4 1.3.2 release

  ==> Input File <==

--------------------------------------------------------------------------
#psi4
#
memory 32 gb

molecule  {
0 1
  O       -0.0101440     2.0708820    -0.1140410
  N        0.2351990    -0.2177110    -0.3583720
  C       -0.3707220    -1.5109604    -0.0826940
  C       -1.9502640    -0.9583450    -0.0482810
  C       -1.8489090     0.4999680     0.4010950
  C       -0.4582930     0.9265630    -0.0509830
  C        1.6617300    -0.1844710    -0.6214880
  C        2.4978900    -0.3314020     0.6460640
  H       -0.2060500    -1.8213230     0.9608810
  H       -0.2853850    -2.2161620    -0.7686800
  H       -2.5951790    -1.5710950     0.5868370
  H       -2.3326610    -1.0086390    -1.0720610
  H       -1.8916900     0.5931740     1.4933710
  H       -2.6106570     1.1621840    -0.0164710
  H        1.8952280    -0.9774960    -1.3410860
  H        1.8622980     0.7788290    -1.0968800
  H        2.2724650     0.4877290     1.3331980
  H        2.2931660    -1.2799200     1.1504100
  H        3.5653110    -0.2984830     0.4074420
units angstrom
no_reorient  #important for SAPT in psi4, default
symmetry c1  #important for SAPT in psi4, default
}

set PROPERTIES_ORIGIN ["COM"]
properties('MP2/aug-cc-pvtz', properties = ['dipole'])
--------------------------------------------------------------------------

    Molecular point group: c1
  Charge       = 0
  Multiplicity = 1
  Basis Set: AUG-CC-PVTZ
    Blend: AUG-CC-PVTZ
  Basis Set: (AUG-CC-PVTZ AUX)
    Blend: AUG-CC-PVTZ-JKFIT

    Orbital Energies [Eh]
    ---------------------

    Doubly Occupied:

       1A    -20.513583     2A    -15.582927     3A    -11.344520
       4A    -11.273585     5A    -11.257824     6A    -11.246865
       7A    -11.239958     8A    -11.217715     9A     -1.367695
      10A     -1.255771    11A     -1.076657    12A     -0.998203
      13A     -0.974369    14A     -0.867951    15A     -0.833002
      16A     -0.732229    17A     -0.687827    18A     -0.675694
      19A     -0.644789    20A     -0.606129    21A     -0.592741
      22A     -0.582253    23A     -0.559156    24A     -0.547673
      25A     -0.523866    26A     -0.516432    27A     -0.502367
      28A     -0.481705    29A     -0.459511    30A     -0.411631
      31A     -0.371213

  @DF-RHF Final Energy:  -363.05238926157813

   => Energetics <=

    Nuclear Repulsion Energy =            392.9911769559653862
    One-Electron Energy =               -1272.1954479456824174
    Two-Electron Energy =                 516.1518817281389602
    Total Energy =                       -363.0523892615781278
  Basis Set: (AUG-CC-PVTZ AUX)
    Blend: AUG-CC-PVTZ-RI
    Molecular point group: c1

    Geometry (in Angstrom), charge = 0, multiplicity = 1:

       Center              X                  Y                   Z               Mass
    ------------   -----------------  -----------------  -----------------  -----------------
         O           -0.005640069385     2.025147409318    -0.093984598215    15.994914619570
         N            0.239702930615    -0.263445590682    -0.338315598215    14.003074004430
         C           -0.366218069385    -1.556694990682    -0.062637598215    12.000000000000
         C           -1.945760069385    -1.004079590682    -0.028224598215    12.000000000000
         C           -1.844405069385     0.454233409318     0.421151401785    12.000000000000
         C           -0.453789069385     0.880828409318    -0.030926598215    12.000000000000
         C            1.666233930615    -0.230205590682    -0.601431598215    12.000000000000
         C            2.502393930615    -0.377136590682     0.666120401785    12.000000000000
         H           -0.201546069385    -1.867057590682     0.980937401785     1.007825032230
         H           -0.280881069385    -2.261896590682    -0.748623598215     1.007825032230
         H           -2.590675069385    -1.616829590682     0.606893401785     1.007825032230
         H           -2.328157069385    -1.054373590682    -1.052004598215     1.007825032230
         H           -1.887186069385     0.547439409318     1.513427401785     1.007825032230
         H           -2.606153069385     1.116449409318     0.003585401785     1.007825032230
         H            1.899731930615    -1.023230590682    -1.321029598215     1.007825032230
         H            1.866801930615     0.733094409318    -1.076823598215     1.007825032230
         H            2.276968930615     0.441994409318     1.353254401785     1.007825032230
         H            2.297669930615    -1.325654590682     1.170466401785     1.007825032230
         H            3.569814930615    -0.344217590682     0.427498401785     1.007825032230

  Basis Set: AUG-CC-PVTZ
    Blend: AUG-CC-PVTZ
  Basis Set: (AUG-CC-PVTZ AUX)
    Blend: AUG-CC-PVTZ-JKFIT
	 Reference Energy          =    -363.0523892615781278 [Eh]
	 Singles Energy            =      -0.0000000000000000 [Eh]
	 Same-Spin Energy          =      -0.3771202067246074 [Eh]
	 Opposite-Spin Energy      =      -1.2485291910958998 [Eh]
	 Correlation Energy        =      -1.6256493978205073 [Eh]
	 Total Energy              =    -364.6780386593986236 [Eh]

	 ================> DF-SCS-MP2 Energies <==================
	-----------------------------------------------------------
	 SCS Same-Spin Scale       =       0.3333333333333333 [-]
	 SCS Opposite-Spin Scale   =       1.2000000000000000 [-]
	 SCS Same-Spin Energy      =      -0.1257067355748691 [Eh]
	 SCS Opposite-Spin Energy  =      -1.4982350293150797 [Eh]
	 SCS Correlation Energy    =      -1.6239417648899488 [Eh]
	 SCS Total Energy          =    -364.6763310264680626 [Eh]
	-----------------------------------------------------------

  Dipole Moment: [D]
     X:    -0.4577      Y:    -3.9614      Z:     0.2099     Total:     3.9932

*** Psi4 exiting successfully. Buy a developer a beer!
