                               Psi4 1.3.2 release

  ==> Input File <==

--------------------------------------------------------------------------
#psi4
#
memory 32 gb

molecule  {
0 1
  O       -0.0101440     2.0708820    -0.1140410
  N        0.2351990    -0.2177110    -0.3583720
  C       -0.4908340    -1.4342940    -0.0290780
  C       -1.9502640    -0.9583450    -0.0482810
  C       -1.8489090     0.4999680     0.4010950
  C       -0.3669979     0.9545693    -0.0806623
  C        1.6617300    -0.1844710    -0.6214880
  C        2.4978900    -0.3314020     0.6460640
  H       -0.2060500    -1.8213230     0.9608810
  H       -0.2853850    -2.2161620    -0.7686800
  H       -2.5951790    -1.5710950     0.5868370
  H       -2.3326610    -1.0086390    -1.0720610
  H       -1.8916900     0.5931740     1.4933710
  H       -2.6106570     1.1621840    -0.0164710
  H        1.8952280    -0.9774960    -1.3410860
  H        1.8622980     0.7788290    -1.0968800
  H        2.2724650     0.4877290     1.3331980
  H        2.2931660    -1.2799200     1.1504100
  H        3.5653110    -0.2984830     0.4074420
units angstrom
no_reorient  #important for SAPT in psi4, default
symmetry c1  #important for SAPT in psi4, default
}

set PROPERTIES_ORIGIN ["COM"]
properties('MP2/aug-cc-pvtz', properties = ['dipole'])
--------------------------------------------------------------------------

    Molecular point group: c1
  Charge       = 0
  Multiplicity = 1
  Basis Set: AUG-CC-PVTZ
    Blend: AUG-CC-PVTZ
  Basis Set: (AUG-CC-PVTZ AUX)
    Blend: AUG-CC-PVTZ-JKFIT

    Orbital Energies [Eh]
    ---------------------

    Doubly Occupied:

       1A    -20.518805     2A    -15.580920     3A    -11.336948
       4A    -11.276156     5A    -11.261352     6A    -11.237008
       7A    -11.231340     8A    -11.220248     9A     -1.403874
      10A     -1.270344    11A     -1.079416    12A     -1.001344
      13A     -0.962226    14A     -0.869357    15A     -0.824495
      16A     -0.724115    17A     -0.693236    18A     -0.669370
      19A     -0.647545    20A     -0.605742    21A     -0.589507
      22A     -0.578044    23A     -0.567101    24A     -0.558430
      25A     -0.526882    26A     -0.514554    27A     -0.504287
      28A     -0.491107    29A     -0.482796    30A     -0.395812
      31A     -0.375293

  @DF-RHF Final Energy:  -363.06882654903745

   => Energetics <=

    Nuclear Repulsion Energy =            394.7690169867789791
    One-Electron Energy =               -1275.6803684725521180
    Two-Electron Energy =                 517.8425249367356855
    Total Energy =                       -363.0688265490374533
  Basis Set: (AUG-CC-PVTZ AUX)
    Blend: AUG-CC-PVTZ-RI
    Molecular point group: c1

    Geometry (in Angstrom), charge = 0, multiplicity = 1:

       Center              X                  Y                   Z               Mass
    ------------   -----------------  -----------------  -----------------  -----------------
         O           -0.002582142496     2.014039987496    -0.096524659032    15.994914619570
         N            0.242760857504    -0.274553012504    -0.340855659032    14.003074004430
         C           -0.483272142496    -1.491136012504    -0.011561659032    12.000000000000
         C           -1.942702142496    -1.015187012504    -0.030764659032    12.000000000000
         C           -1.841347142496     0.443125987496     0.418611340968    12.000000000000
         C           -0.359436042496     0.897727287496    -0.063145959032    12.000000000000
         C            1.669291857504    -0.241313012504    -0.603971659032    12.000000000000
         C            2.505451857504    -0.388244012504     0.663580340968    12.000000000000
         H           -0.198488142496    -1.878165012504     0.978397340968     1.007825032230
         H           -0.277823142496    -2.273004012504    -0.751163659032     1.007825032230
         H           -2.587617142496    -1.627937012504     0.604353340968     1.007825032230
         H           -2.325099142496    -1.065481012504    -1.054544659032     1.007825032230
         H           -1.884128142496     0.536331987496     1.510887340968     1.007825032230
         H           -2.603095142496     1.105341987496     0.001045340968     1.007825032230
         H            1.902789857504    -1.034338012504    -1.323569659032     1.007825032230
         H            1.869859857504     0.721986987496    -1.079363659032     1.007825032230
         H            2.280026857504     0.430886987496     1.350714340968     1.007825032230
         H            2.300727857504    -1.336762012504     1.167926340968     1.007825032230
         H            3.572872857504    -0.355325012504     0.424958340968     1.007825032230

  Basis Set: AUG-CC-PVTZ
    Blend: AUG-CC-PVTZ
  Basis Set: (AUG-CC-PVTZ AUX)
    Blend: AUG-CC-PVTZ-JKFIT
	 Reference Energy          =    -363.0688265490374533 [Eh]
	 Singles Energy            =      -0.0000000000000000 [Eh]
	 Same-Spin Energy          =      -0.3756112852912896 [Eh]
	 Opposite-Spin Energy      =      -1.2447183252439125 [Eh]
	 Correlation Energy        =      -1.6203296105352021 [Eh]
	 Total Energy              =    -364.6891561595726330 [Eh]

	 ================> DF-SCS-MP2 Energies <==================
	-----------------------------------------------------------
	 SCS Same-Spin Scale       =       0.3333333333333333 [-]
	 SCS Opposite-Spin Scale   =       1.2000000000000000 [-]
	 SCS Same-Spin Energy      =      -0.1252037617637632 [Eh]
	 SCS Opposite-Spin Energy  =      -1.4936619902926949 [Eh]
	 SCS Correlation Energy    =      -1.6188657520564580 [Eh]
	 SCS Total Energy          =    -364.6876923010939322 [Eh]
	-----------------------------------------------------------

  Dipole Moment: [D]
     X:    -0.0391      Y:    -3.7189      Z:     0.1339     Total:     3.7215

*** Psi4 exiting successfully. Buy a developer a beer!
