                               Psi4 1.3.2 release

  ==> Input File <==

--------------------------------------------------------------------------
#psi4
#
memory 32 gb

molecule  {
0 1
  O       -0.0101440     2.0708820    -0.1140410
  N        0.2351990    -0.2177110    -0.3583720
  C       -0.4908340    -1.4342940    -0.0290780
  C       -1.9502640    -0.9583450    -0.0482810
  C       -1.8489090     0.4999680     0.4010950
  C       -0.4582930     0.9265630    -0.0509830
  C        1.6617300    -0.1844710    -0.6214880
  C        2.4978900    -0.3314020     0.6460640
  H       -0.1801703    -1.8564942     1.0508434
  H       -0.2853850    -2.2161620    -0.7686800
  H       -2.5951790    -1.5710950     0.5868370
  H       -2.3326610    -1.0086390    -1.0720610
  H       -1.8916900     0.5931740     1.4933710
  H       -2.6106570     1.1621840    -0.0164710
  H        1.8952280    -0.9774960    -1.3410860
  H        1.8622980     0.7788290    -1.0968800
  H        2.2724650     0.4877290     1.3331980
  H        2.2931660    -1.2799200     1.1504100
  H        3.5653110    -0.2984830     0.4074420
units angstrom
no_reorient  #important for SAPT in psi4, default
symmetry c1  #important for SAPT in psi4, default
}

set PROPERTIES_ORIGIN ["COM"]
properties('MP2/aug-cc-pvtz', properties = ['dipole'])
--------------------------------------------------------------------------

    Molecular point group: c1
  Charge       = 0
  Multiplicity = 1
  Basis Set: AUG-CC-PVTZ
    Blend: AUG-CC-PVTZ
  Basis Set: (AUG-CC-PVTZ AUX)
    Blend: AUG-CC-PVTZ-JKFIT

    Orbital Energies [Eh]
    ---------------------

    Doubly Occupied:

       1A    -20.512759     2A    -15.582890     3A    -11.342361
       4A    -11.286763     5A    -11.261405     6A    -11.243617
       7A    -11.240549     8A    -11.218462     9A     -1.367891
      10A     -1.259184    11A     -1.088138    12A     -1.000874
      13A     -0.968175    14A     -0.869996    15A     -0.827571
      16A     -0.725585    17A     -0.686430    18A     -0.668791
      19A     -0.640121    20A     -0.604904    21A     -0.582889
      22A     -0.571938    23A     -0.563260    24A     -0.554632
      25A     -0.520996    26A     -0.512973    27A     -0.510460
      28A     -0.490741    29A     -0.475564    30A     -0.410215
      31A     -0.368733

  @DF-RHF Final Energy:  -363.06947074372061

   => Energetics <=

    Nuclear Repulsion Energy =            393.8251664966117005
    One-Electron Energy =               -1273.8715372984615897
    Two-Electron Energy =                 516.9769000581293312
    Total Energy =                       -363.0694707437205579
  Basis Set: (AUG-CC-PVTZ AUX)
    Blend: AUG-CC-PVTZ-RI
    Molecular point group: c1

    Geometry (in Angstrom), charge = 0, multiplicity = 1:

       Center              X                  Y                   Z               Mass
    ------------   -----------------  -----------------  -----------------  -----------------
         O            0.006875060870     2.017325348869    -0.100475860846    15.994914619570
         N            0.252218060870    -0.271267651131    -0.344806860846    14.003074004430
         C           -0.473814939130    -1.487850651131    -0.015512860846    12.000000000000
         C           -1.933244939130    -1.011901651131    -0.034715860846    12.000000000000
         C           -1.831889939130     0.446411348869     0.414660139154    12.000000000000
         C           -0.441273939130     0.873006348869    -0.037417860846    12.000000000000
         C            1.678749060870    -0.238027651131    -0.607922860846    12.000000000000
         C            2.514909060870    -0.384958651131     0.659629139154    12.000000000000
         H           -0.163151239130    -1.910050851131     1.064408539154     1.007825032230
         H           -0.268365939130    -2.269718651131    -0.755114860846     1.007825032230
         H           -2.578159939130    -1.624651651131     0.600402139154     1.007825032230
         H           -2.315641939130    -1.062195651131    -1.058495860846     1.007825032230
         H           -1.874670939130     0.539617348869     1.506936139154     1.007825032230
         H           -2.593637939130     1.108627348869    -0.002905860846     1.007825032230
         H            1.912247060870    -1.031052651131    -1.327520860846     1.007825032230
         H            1.879317060870     0.725272348869    -1.083314860846     1.007825032230
         H            2.289484060870     0.434172348869     1.346763139154     1.007825032230
         H            2.310185060870    -1.333476651131     1.163975139154     1.007825032230
         H            3.582330060870    -0.352039651131     0.421007139154     1.007825032230

  Basis Set: AUG-CC-PVTZ
    Blend: AUG-CC-PVTZ
  Basis Set: (AUG-CC-PVTZ AUX)
    Blend: AUG-CC-PVTZ-JKFIT
	 Reference Energy          =    -363.0694707437206148 [Eh]
	 Singles Energy            =      -0.0000000000000000 [Eh]
	 Same-Spin Energy          =      -0.3769231518908694 [Eh]
	 Opposite-Spin Energy      =      -1.2477358254753281 [Eh]
	 Correlation Energy        =      -1.6246589773661975 [Eh]
	 Total Energy              =    -364.6941297210868242 [Eh]

	 ================> DF-SCS-MP2 Energies <==================
	-----------------------------------------------------------
	 SCS Same-Spin Scale       =       0.3333333333333333 [-]
	 SCS Opposite-Spin Scale   =       1.2000000000000000 [-]
	 SCS Same-Spin Energy      =      -0.1256410506302898 [Eh]
	 SCS Opposite-Spin Energy  =      -1.4972829905703937 [Eh]
	 SCS Correlation Energy    =      -1.6229240412006836 [Eh]
	 SCS Total Energy          =    -364.6923947849213050 [Eh]
	-----------------------------------------------------------

  Dipole Moment: [D]
     X:    -0.4789      Y:    -3.8645      Z:     0.1791     Total:     3.8981

*** Psi4 exiting successfully. Buy a developer a beer!
