                               Psi4 1.4a3.dev225

  ==> Input File <==

--------------------------------------------------------------------------
#psi4
#
memory 32 gb

molecule  {
0 1
  O       -0.0101440     2.0708820    -0.1140410
  N        0.2351990    -0.2177110    -0.3583720
  C       -0.4908340    -1.4342940    -0.0290780
  C       -1.9502640    -0.9583450    -0.0482810
  C       -1.8489090     0.4999680     0.4010950
  C       -0.4582930     0.9265630    -0.0509830
  C        1.6813931    -0.1840128    -0.6251147
  C        2.4978900    -0.3314020     0.6460640
  H       -0.2060500    -1.8213230     0.9608810
  H       -0.2853850    -2.2161620    -0.7686800
  H       -2.5951790    -1.5710950     0.5868370
  H       -2.3326610    -1.0086390    -1.0720610
  H       -1.8916900     0.5931740     1.4933710
  H       -2.6106570     1.1621840    -0.0164710
  H        1.8952280    -0.9774960    -1.3410860
  H        1.8622980     0.7788290    -1.0968800
  H        2.2724650     0.4877290     1.3331980
  H        2.2931660    -1.2799200     1.1504100
  H        3.5653110    -0.2984830     0.4074420
units angstrom
no_reorient  #important for SAPT in psi4, default
symmetry c1  #important for SAPT in psi4, default
}

set PROPERTIES_ORIGIN ["COM"]
properties('MP2/aug-cc-pvtz', properties = ['dipole'])
--------------------------------------------------------------------------

    Molecular point group: c1
  Charge       = 0
  Multiplicity = 1
  Basis Set: AUG-CC-PVTZ
    Blend: AUG-CC-PVTZ
  Basis Set: (AUG-CC-PVTZ AUX)
    Blend: AUG-CC-PVTZ-JKFIT

    Orbital Energies [Eh]
    ---------------------

    Doubly Occupied:

       1A    -20.510710     2A    -15.580148     3A    -11.340511
       4A    -11.274216     5A    -11.261580     6A    -11.241915
       7A    -11.239386     8A    -11.219199     9A     -1.365582
      10A     -1.255273    11A     -1.086391    12A     -1.002392
      13A     -0.971170    14A     -0.869227    15A     -0.828582
      16A     -0.725298    17A     -0.692044    18A     -0.666682
      19A     -0.639414    20A     -0.604957    21A     -0.589099
      22A     -0.572191    23A     -0.562403    24A     -0.554265
      25A     -0.522682    26A     -0.513405    27A     -0.509512
      28A     -0.491689    29A     -0.477209    30A     -0.408401
      31A     -0.369488

  @DF-RHF Final Energy:  -363.07558731437734

   => Energetics <=

    Nuclear Repulsion Energy =            393.9663922779770928
    One-Electron Energy =               -1274.1939118960419819
    Two-Electron Energy =                 517.1519323036875448
    Total Energy =                       -363.0755873143773442
  Basis Set: (AUG-CC-PVTZ AUX)
    Blend: AUG-CC-PVTZ-RI
    Molecular point group: c1

    Geometry (in Angstrom), charge = 0, multiplicity = 1:

       Center              X                  Y                   Z               Mass
    ------------   -----------------  -----------------  -----------------  -----------------
         O            0.005019140742     2.016963274724    -0.099289250160    15.994914619570
         N            0.250362140742    -0.271629725276    -0.343620250160    14.003074004430
         C           -0.475670859258    -1.488212725276    -0.014326250160    12.000000000000
         C           -1.935100859258    -1.012263725276    -0.033529250160    12.000000000000
         C           -1.833745859258     0.446049274724     0.415846749840    12.000000000000
         C           -0.443129859258     0.872644274724    -0.036231250160    12.000000000000
         C            1.696556240742    -0.237931525276    -0.610362950160    12.000000000000
         C            2.513053140742    -0.385320725276     0.660815749840    12.000000000000
         H           -0.190886859258    -1.875241725276     0.975632749840     1.007825032230
         H           -0.270221859258    -2.270080725276    -0.753928250160     1.007825032230
         H           -2.580015859258    -1.625013725276     0.601588749840     1.007825032230
         H           -2.317497859258    -1.062557725276    -1.057309250160     1.007825032230
         H           -1.876526859258     0.539255274724     1.508122749840     1.007825032230
         H           -2.595493859258     1.108265274724    -0.001719250160     1.007825032230
         H            1.910391140742    -1.031414725276    -1.326334250160     1.007825032230
         H            1.877461140742     0.724910274724    -1.082128250160     1.007825032230
         H            2.287628140742     0.433810274724     1.347949749840     1.007825032230
         H            2.308329140742    -1.333838725276     1.165161749840     1.007825032230
         H            3.580474140742    -0.352401725276     0.422193749840     1.007825032230

  Basis Set: AUG-CC-PVTZ
    Blend: AUG-CC-PVTZ
  Basis Set: (AUG-CC-PVTZ AUX)
    Blend: AUG-CC-PVTZ-JKFIT
	 Reference Energy          =    -363.0755873143773442 [Eh]
	 Singles Energy            =      -0.0000000000000000 [Eh]
	 Same-Spin Energy          =      -0.3767232340352671 [Eh]
	 Opposite-Spin Energy      =      -1.2469531714091635 [Eh]
	 Correlation Energy        =      -1.6236764054444306 [Eh]
	 Total Energy              =    -364.6992637198217722 [Eh]

	 ================> DF-SCS-MP2 Energies <==================
	-----------------------------------------------------------
	 SCS Same-Spin Scale       =       0.3333333333333333 [-]
	 SCS Opposite-Spin Scale   =       1.2000000000000000 [-]
	 SCS Same-Spin Energy      =      -0.1255744113450890 [Eh]
	 SCS Opposite-Spin Energy  =      -1.4963438056909961 [Eh]
	 SCS Correlation Energy    =      -1.6219182170360851 [Eh]
	 SCS Total Energy          =    -364.6975055314134124 [Eh]
	-----------------------------------------------------------

  Dipole Moment: [D]
     X:    -0.3975      Y:    -3.9604      Z:     0.2493     Total:     3.9881

*** Psi4 exiting successfully. Buy a developer a beer!
