                               Psi4 1.3.2 release

  ==> Input File <==

--------------------------------------------------------------------------
#psi4
#
memory 32 gb

molecule  {
0 1
  O       -0.0101440     2.0708820    -0.1140410
  N        0.2542550    -0.2043686    -0.3641143
  C       -0.4908340    -1.4342940    -0.0290780
  C       -1.9502640    -0.9583450    -0.0482810
  C       -1.8489090     0.4999680     0.4010950
  C       -0.4582930     0.9265630    -0.0509830
  C        1.6617300    -0.1844710    -0.6214880
  C        2.4978900    -0.3314020     0.6460640
  H       -0.2060500    -1.8213230     0.9608810
  H       -0.2853850    -2.2161620    -0.7686800
  H       -2.5951790    -1.5710950     0.5868370
  H       -2.3326610    -1.0086390    -1.0720610
  H       -1.8916900     0.5931740     1.4933710
  H       -2.6106570     1.1621840    -0.0164710
  H        1.8952280    -0.9774960    -1.3410860
  H        1.8622980     0.7788290    -1.0968800
  H        2.2724650     0.4877290     1.3331980
  H        2.2931660    -1.2799200     1.1504100
  H        3.5653110    -0.2984830     0.4074420
units angstrom
no_reorient  #important for SAPT in psi4, default
symmetry c1  #important for SAPT in psi4, default
}

set PROPERTIES_ORIGIN ["COM"]
properties('MP2/aug-cc-pvtz', properties = ['dipole'])
--------------------------------------------------------------------------

    Molecular point group: c1
  Charge       = 0
  Multiplicity = 1
  Basis Set: AUG-CC-PVTZ
    Blend: AUG-CC-PVTZ
  Basis Set: (AUG-CC-PVTZ AUX)
    Blend: AUG-CC-PVTZ-JKFIT

    Orbital Energies [Eh]
    ---------------------

    Doubly Occupied:

       1A    -20.510554     2A    -15.580652     3A    -11.341154
       4A    -11.276583     5A    -11.258932     6A    -11.243365
       7A    -11.241221     8A    -11.217714     9A     -1.366727
      10A     -1.256210    11A     -1.090444    12A     -0.999725
      13A     -0.970591    14A     -0.872230    15A     -0.829400
      16A     -0.726019    17A     -0.692550    18A     -0.666510
      19A     -0.639964    20A     -0.605746    21A     -0.589245
      22A     -0.570045    23A     -0.564654    24A     -0.554702
      25A     -0.523552    26A     -0.513709    27A     -0.509498
      28A     -0.488795    29A     -0.477557    30A     -0.409319
      31A     -0.368672

  @DF-RHF Final Energy:  -363.07533870991870

   => Energetics <=

    Nuclear Repulsion Energy =            394.2226792677840308
    One-Electron Energy =               -1274.6839506761129996
    Two-Electron Energy =                 517.3859326984102154
    Total Energy =                       -363.0753387099186966
  Basis Set: (AUG-CC-PVTZ AUX)
    Blend: AUG-CC-PVTZ-RI
    Molecular point group: c1

    Geometry (in Angstrom), charge = 0, multiplicity = 1:

       Center              X                  Y                   Z               Mass
    ------------   -----------------  -----------------  -----------------  -----------------
         O            0.004746021992     2.015359722391    -0.098963037513    15.994914619570
         N            0.269145021992    -0.259890877609    -0.349036337513    14.003074004430
         C           -0.475943978008    -1.489816277609    -0.014000037513    12.000000000000
         C           -1.935373978008    -1.013867277609    -0.033203037513    12.000000000000
         C           -1.834018978008     0.444445722391     0.416172962487    12.000000000000
         C           -0.443402978008     0.871040722391    -0.035905037513    12.000000000000
         C            1.676620021992    -0.239993277609    -0.606410037513    12.000000000000
         C            2.512780021992    -0.386924277609     0.661141962487    12.000000000000
         H           -0.191159978008    -1.876845277609     0.975958962487     1.007825032230
         H           -0.270494978008    -2.271684277609    -0.753602037513     1.007825032230
         H           -2.580288978008    -1.626617277609     0.601914962487     1.007825032230
         H           -2.317770978008    -1.064161277609    -1.056983037513     1.007825032230
         H           -1.876799978008     0.537651722391     1.508448962487     1.007825032230
         H           -2.595766978008     1.106661722391    -0.001393037513     1.007825032230
         H            1.910118021992    -1.033018277609    -1.326008037513     1.007825032230
         H            1.877188021992     0.723306722391    -1.081802037513     1.007825032230
         H            2.287355021992     0.432206722391     1.348275962487     1.007825032230
         H            2.308056021992    -1.335442277609     1.165487962487     1.007825032230
         H            3.580201021992    -0.354005277609     0.422519962487     1.007825032230

  Basis Set: AUG-CC-PVTZ
    Blend: AUG-CC-PVTZ
  Basis Set: (AUG-CC-PVTZ AUX)
    Blend: AUG-CC-PVTZ-JKFIT
	 Reference Energy          =    -363.0753387099186966 [Eh]
	 Singles Energy            =      -0.0000000000000000 [Eh]
	 Same-Spin Energy          =      -0.3767626517166472 [Eh]
	 Opposite-Spin Energy      =      -1.2469391831995793 [Eh]
	 Correlation Energy        =      -1.6237018349162264 [Eh]
	 Total Energy              =    -364.6990405448349293 [Eh]

	 ================> DF-SCS-MP2 Energies <==================
	-----------------------------------------------------------
	 SCS Same-Spin Scale       =       0.3333333333333333 [-]
	 SCS Opposite-Spin Scale   =       1.2000000000000000 [-]
	 SCS Same-Spin Energy      =      -0.1255875505722157 [Eh]
	 SCS Opposite-Spin Energy  =      -1.4963270198394951 [Eh]
	 SCS Correlation Energy    =      -1.6219145704117108 [Eh]
	 SCS Total Energy          =    -364.6972532803304148 [Eh]
	-----------------------------------------------------------

  Dipole Moment: [D]
     X:    -0.5368      Y:    -3.9789      Z:     0.2703     Total:     4.0241

*** Psi4 exiting successfully. Buy a developer a beer!
