                               Psi4 1.3.2 release

  ==> Input File <==

--------------------------------------------------------------------------
#psi4
#
memory 32 gb

molecule  {
0 1
  O       -0.0101440     2.0708820    -0.1140410
  N        0.2351990    -0.2177110    -0.3583720
  C       -0.4844257    -1.4145742    -0.0460479
  C       -1.9502640    -0.9583450    -0.0482810
  C       -1.8489090     0.4999680     0.4010950
  C       -0.4582930     0.9265630    -0.0509830
  C        1.6617300    -0.1844710    -0.6214880
  C        2.4978900    -0.3314020     0.6460640
  H       -0.2060500    -1.8213230     0.9608810
  H       -0.2853850    -2.2161620    -0.7686800
  H       -2.5951790    -1.5710950     0.5868370
  H       -2.3326610    -1.0086390    -1.0720610
  H       -1.8916900     0.5931740     1.4933710
  H       -2.6106570     1.1621840    -0.0164710
  H        1.8952280    -0.9774960    -1.3410860
  H        1.8622980     0.7788290    -1.0968800
  H        2.2724650     0.4877290     1.3331980
  H        2.2931660    -1.2799200     1.1504100
  H        3.5653110    -0.2984830     0.4074420
units angstrom
no_reorient  #important for SAPT in psi4, default
symmetry c1  #important for SAPT in psi4, default
}

set PROPERTIES_ORIGIN ["COM"]
properties('MP2/aug-cc-pvtz', properties = ['dipole'])
--------------------------------------------------------------------------

    Molecular point group: c1
  Charge       = 0
  Multiplicity = 1
  Basis Set: AUG-CC-PVTZ
    Blend: AUG-CC-PVTZ
  Basis Set: (AUG-CC-PVTZ AUX)
    Blend: AUG-CC-PVTZ-JKFIT

    Orbital Energies [Eh]
    ---------------------

    Doubly Occupied:

       1A    -20.512545     2A    -15.581651     3A    -11.342230
       4A    -11.274864     5A    -11.261833     6A    -11.242112
       7A    -11.240062     8A    -11.218997     9A     -1.368352
      10A     -1.263606    11A     -1.088395    12A     -1.001769
      13A     -0.971276    14A     -0.871232    15A     -0.829977
      16A     -0.727957    17A     -0.693307    18A     -0.669311
      19A     -0.640280    20A     -0.605317    21A     -0.587362
      22A     -0.574062    23A     -0.563542    24A     -0.555292
      25A     -0.523107    26A     -0.513715    27A     -0.509019
      28A     -0.490892    29A     -0.476191    30A     -0.410277
      31A     -0.368665

  @DF-RHF Final Energy:  -363.07527425319358

   => Energetics <=

    Nuclear Repulsion Energy =            394.7098102180406158
    One-Electron Energy =               -1275.6157733543016093
    Two-Electron Energy =                 517.8306888830674097
    Total Energy =                       -363.0752742531935837
  Basis Set: (AUG-CC-PVTZ AUX)
    Blend: AUG-CC-PVTZ-RI
    Molecular point group: c1

    Geometry (in Angstrom), charge = 0, multiplicity = 1:

       Center              X                  Y                   Z               Mass
    ------------   -----------------  -----------------  -----------------  -----------------
         O            0.006425683754     2.014919315639    -0.097873326516    15.994914619570
         N            0.251768683754    -0.273673684361    -0.342204326516    14.003074004430
         C           -0.467856016246    -1.470536884361    -0.029880226516    12.000000000000
         C           -1.933694316246    -1.014307684361    -0.032113326516    12.000000000000
         C           -1.832339316246     0.444005315639     0.417262673484    12.000000000000
         C           -0.441723316246     0.870600315639    -0.034815326516    12.000000000000
         C            1.678299683754    -0.240433684361    -0.605320326516    12.000000000000
         C            2.514459683754    -0.387364684361     0.662231673484    12.000000000000
         H           -0.189480316246    -1.877285684361     0.977048673484     1.007825032230
         H           -0.268815316246    -2.272124684361    -0.752512326516     1.007825032230
         H           -2.578609316246    -1.627057684361     0.603004673484     1.007825032230
         H           -2.316091316246    -1.064601684361    -1.055893326516     1.007825032230
         H           -1.875120316246     0.537211315639     1.509538673484     1.007825032230
         H           -2.594087316246     1.106221315639    -0.000303326516     1.007825032230
         H            1.911797683754    -1.033458684361    -1.324918326516     1.007825032230
         H            1.878867683754     0.722866315639    -1.080712326516     1.007825032230
         H            2.289034683754     0.431766315639     1.349365673484     1.007825032230
         H            2.309735683754    -1.335882684361     1.166577673484     1.007825032230
         H            3.581880683754    -0.354445684361     0.423609673484     1.007825032230

  Basis Set: AUG-CC-PVTZ
    Blend: AUG-CC-PVTZ
  Basis Set: (AUG-CC-PVTZ AUX)
    Blend: AUG-CC-PVTZ-JKFIT
	 Reference Energy          =    -363.0752742531935837 [Eh]
	 Singles Energy            =      -0.0000000000000000 [Eh]
	 Same-Spin Energy          =      -0.3769141900031074 [Eh]
	 Opposite-Spin Energy      =      -1.2469088878740060 [Eh]
	 Correlation Energy        =      -1.6238230778771134 [Eh]
	 Total Energy              =    -364.6990973310706750 [Eh]

	 ================> DF-SCS-MP2 Energies <==================
	-----------------------------------------------------------
	 SCS Same-Spin Scale       =       0.3333333333333333 [-]
	 SCS Opposite-Spin Scale   =       1.2000000000000000 [-]
	 SCS Same-Spin Energy      =      -0.1256380633343691 [Eh]
	 SCS Opposite-Spin Energy  =      -1.4962906654488071 [Eh]
	 SCS Correlation Energy    =      -1.6219287287831763 [Eh]
	 SCS Total Energy          =    -364.6972029819767727 [Eh]
	-----------------------------------------------------------

  Dipole Moment: [D]
     X:    -0.4432      Y:    -3.8837      Z:     0.2210     Total:     3.9151

*** Psi4 exiting successfully. Buy a developer a beer!
