                               Psi4 1.3.2 release

  ==> Input File <==

--------------------------------------------------------------------------
#psi4
#
memory 32 gb

molecule  {
0 1
  O       -0.0101440     2.0708820    -0.1140410
  N        0.2351990    -0.2177110    -0.3583720
  C       -0.4908340    -1.4342940    -0.0290780
  C       -1.9502640    -0.9583450    -0.0482810
  C       -1.8489090     0.4999680     0.4010950
  C       -0.4582930     0.9265630    -0.0509830
  C        1.6617300    -0.1844710    -0.6214880
  C        2.4978900    -0.3314020     0.6460640
  H       -0.2060500    -1.8213230     0.9608810
  H       -0.2853850    -2.2161620    -0.7686800
  H       -2.6541806    -1.6271539     0.6449423
  H       -2.3326610    -1.0086390    -1.0720610
  H       -1.8916900     0.5931740     1.4933710
  H       -2.6106570     1.1621840    -0.0164710
  H        1.8952280    -0.9774960    -1.3410860
  H        1.8622980     0.7788290    -1.0968800
  H        2.2724650     0.4877290     1.3331980
  H        2.2931660    -1.2799200     1.1504100
  H        3.5653110    -0.2984830     0.4074420
units angstrom
no_reorient  #important for SAPT in psi4, default
symmetry c1  #important for SAPT in psi4, default
}

set PROPERTIES_ORIGIN ["COM"]
properties('MP2/aug-cc-pvtz', properties = ['dipole'])
--------------------------------------------------------------------------

    Molecular point group: c1
  Charge       = 0
  Multiplicity = 1
  Basis Set: AUG-CC-PVTZ
    Blend: AUG-CC-PVTZ
  Basis Set: (AUG-CC-PVTZ AUX)
    Blend: AUG-CC-PVTZ-JKFIT

    Orbital Energies [Eh]
    ---------------------

    Doubly Occupied:

       1A    -20.512394     2A    -15.581858     3A    -11.342268
       4A    -11.275905     5A    -11.261533     6A    -11.254214
       7A    -11.241043     8A    -11.219070     9A     -1.367654
      10A     -1.259341    11A     -1.086883    12A     -0.999786
      13A     -0.971989    14A     -0.868808    15A     -0.825088
      16A     -0.726710    17A     -0.691185    18A     -0.668491
      19A     -0.638215    20A     -0.603468    21A     -0.589758
      22A     -0.572702    23A     -0.563863    24A     -0.548017
      25A     -0.518846    26A     -0.513407    27A     -0.510072
      28A     -0.490320    29A     -0.476463    30A     -0.409463
      31A     -0.370240

  @DF-RHF Final Energy:  -363.06923864019819

   => Energetics <=

    Nuclear Repulsion Energy =            393.8142751571344320
    One-Electron Energy =               -1273.8489197276044251
    Two-Electron Energy =                 516.9654059302717997
    Total Energy =                       -363.0692386401981366
  Basis Set: (AUG-CC-PVTZ AUX)
    Blend: AUG-CC-PVTZ-RI
    Molecular point group: c1

    Geometry (in Angstrom), charge = 0, multiplicity = 1:

       Center              X                  Y                   Z               Mass
    ------------   -----------------  -----------------  -----------------  -----------------
         O            0.007631537918     2.017511503719    -0.100191944778    15.994914619570
         N            0.252974537918    -0.271081496281    -0.344522944778    14.003074004430
         C           -0.473058462082    -1.487664496281    -0.015228944778    12.000000000000
         C           -1.932488462082    -1.011715496281    -0.034431944778    12.000000000000
         C           -1.831133462082     0.446597503719     0.414944055222    12.000000000000
         C           -0.440517462082     0.873192503719    -0.037133944778    12.000000000000
         C            1.679505537918    -0.237841496281    -0.607638944778    12.000000000000
         C            2.515665537918    -0.384772496281     0.659913055222    12.000000000000
         H           -0.188274462082    -1.874693496281     0.974730055222     1.007825032230
         H           -0.267609462082    -2.269532496281    -0.754830944778     1.007825032230
         H           -2.636405062082    -1.680524396281     0.658791355222     1.007825032230
         H           -2.314885462082    -1.062009496281    -1.058211944778     1.007825032230
         H           -1.873914462082     0.539803503719     1.507220055222     1.007825032230
         H           -2.592881462082     1.108813503719    -0.002621944778     1.007825032230
         H            1.913003537918    -1.030866496281    -1.327236944778     1.007825032230
         H            1.880073537918     0.725458503719    -1.083030944778     1.007825032230
         H            2.290240537918     0.434358503719     1.347047055222     1.007825032230
         H            2.310941537918    -1.333290496281     1.164259055222     1.007825032230
         H            3.583086537918    -0.351853496281     0.421291055222     1.007825032230

  Basis Set: AUG-CC-PVTZ
    Blend: AUG-CC-PVTZ
  Basis Set: (AUG-CC-PVTZ AUX)
    Blend: AUG-CC-PVTZ-JKFIT
	 Reference Energy          =    -363.0692386401981935 [Eh]
	 Singles Energy            =      -0.0000000000000000 [Eh]
	 Same-Spin Energy          =      -0.3768128455481977 [Eh]
	 Opposite-Spin Energy      =      -1.2477052647999636 [Eh]
	 Correlation Energy        =      -1.6245181103481614 [Eh]
	 Total Energy              =    -364.6937567505463562 [Eh]

	 ================> DF-SCS-MP2 Energies <==================
	-----------------------------------------------------------
	 SCS Same-Spin Scale       =       0.3333333333333333 [-]
	 SCS Opposite-Spin Scale   =       1.2000000000000000 [-]
	 SCS Same-Spin Energy      =      -0.1256042818493992 [Eh]
	 SCS Opposite-Spin Energy  =      -1.4972463177599562 [Eh]
	 SCS Correlation Energy    =      -1.6228505996093554 [Eh]
	 SCS Total Energy          =    -364.6920892398075580 [Eh]
	-----------------------------------------------------------

  Dipole Moment: [D]
     X:    -0.4019      Y:    -3.8972      Z:     0.2318     Total:     3.9247

*** Psi4 exiting successfully. Buy a developer a beer!
