                               Psi4 1.3.2 release

  ==> Input File <==

--------------------------------------------------------------------------
#psi4
#
memory 32 gb

molecule  {
0 1
  O       -0.0101440     2.0708820    -0.1140410
  N        0.2351990    -0.2177110    -0.3583720
  C       -0.4908340    -1.4342940    -0.0290780
  C       -1.9502640    -0.9583450    -0.0482810
  C       -1.8489090     0.4999680     0.4010950
  C       -0.4582930     0.9265630    -0.0509830
  C        1.5634146    -0.1867619    -0.6033543
  C        2.4978900    -0.3314020     0.6460640
  H       -0.2060500    -1.8213230     0.9608810
  H       -0.2853850    -2.2161620    -0.7686800
  H       -2.5951790    -1.5710950     0.5868370
  H       -2.3326610    -1.0086390    -1.0720610
  H       -1.8916900     0.5931740     1.4933710
  H       -2.6106570     1.1621840    -0.0164710
  H        1.8952280    -0.9774960    -1.3410860
  H        1.8622980     0.7788290    -1.0968800
  H        2.2724650     0.4877290     1.3331980
  H        2.2931660    -1.2799200     1.1504100
  H        3.5653110    -0.2984830     0.4074420
units angstrom
no_reorient  #important for SAPT in psi4, default
symmetry c1  #important for SAPT in psi4, default
}

set PROPERTIES_ORIGIN ["COM"]
properties('MP2/aug-cc-pvtz', properties = ['dipole'])
--------------------------------------------------------------------------

    Molecular point group: c1
  Charge       = 0
  Multiplicity = 1
  Basis Set: AUG-CC-PVTZ
    Blend: AUG-CC-PVTZ
  Basis Set: (AUG-CC-PVTZ AUX)
    Blend: AUG-CC-PVTZ-JKFIT

    Orbital Energies [Eh]
    ---------------------

    Doubly Occupied:

       1A    -20.516403     2A    -15.583906     3A    -11.345580
       4A    -11.278292     5A    -11.259434     6A    -11.245079
       7A    -11.242855     8A    -11.216082     9A     -1.374463
      10A     -1.277329    11A     -1.097069    12A     -0.990328
      13A     -0.976804    14A     -0.877778    15A     -0.834487
      16A     -0.730674    17A     -0.700182    18A     -0.672944
      19A     -0.642138    20A     -0.604472    21A     -0.589708
      22A     -0.571990    23A     -0.570729    24A     -0.555946
      25A     -0.530894    26A     -0.511676    27A     -0.502615
      28A     -0.482132    29A     -0.473047    30A     -0.414194
      31A     -0.366582

  @DF-RHF Final Energy:  -363.06504148756414

   => Energetics <=

    Nuclear Repulsion Energy =            395.9754610720411279
    One-Electron Energy =               -1278.0093791839285586
    Two-Electron Energy =                 518.9688766243233431
    Total Energy =                       -363.0650414875641445
  Basis Set: (AUG-CC-PVTZ AUX)
    Blend: AUG-CC-PVTZ-RI
    Molecular point group: c1

    Geometry (in Angstrom), charge = 0, multiplicity = 1:

       Center              X                  Y                   Z               Mass
    ------------   -----------------  -----------------  -----------------  -----------------
         O            0.017538517480     2.017254997526    -0.101598371276    15.994914619570
         N            0.262881517480    -0.271338002474    -0.345929371276    14.003074004430
         C           -0.463151482520    -1.487921002474    -0.016635371276    12.000000000000
         C           -1.922581482520    -1.011972002474    -0.035838371276    12.000000000000
         C           -1.821226482520     0.446340997526     0.413537628724    12.000000000000
         C           -0.430610482520     0.872935997526    -0.038540371276    12.000000000000
         C            1.591097117480    -0.240388902474    -0.590911671276    12.000000000000
         C            2.525572517480    -0.385029002474     0.658506628724    12.000000000000
         H           -0.178367482520    -1.874950002474     0.973323628724     1.007825032230
         H           -0.257702482520    -2.269789002474    -0.756237371276     1.007825032230
         H           -2.567496482520    -1.624722002474     0.599279628724     1.007825032230
         H           -2.304978482520    -1.062266002474    -1.059618371276     1.007825032230
         H           -1.864007482520     0.539546997526     1.505813628724     1.007825032230
         H           -2.582974482520     1.108556997526    -0.004028371276     1.007825032230
         H            1.922910517480    -1.031123002474    -1.328643371276     1.007825032230
         H            1.889980517480     0.725201997526    -1.084437371276     1.007825032230
         H            2.300147517480     0.434101997526     1.345640628724     1.007825032230
         H            2.320848517480    -1.333547002474     1.162852628724     1.007825032230
         H            3.592993517480    -0.352110002474     0.419884628724     1.007825032230

  Basis Set: AUG-CC-PVTZ
    Blend: AUG-CC-PVTZ
  Basis Set: (AUG-CC-PVTZ AUX)
    Blend: AUG-CC-PVTZ-JKFIT
	 Reference Energy          =    -363.0650414875641445 [Eh]
	 Singles Energy            =      -0.0000000000000000 [Eh]
	 Same-Spin Energy          =      -0.3776615913478485 [Eh]
	 Opposite-Spin Energy      =      -1.2476676855238173 [Eh]
	 Correlation Energy        =      -1.6253292768716658 [Eh]
	 Total Energy              =    -364.6903707644357837 [Eh]

	 ================> DF-SCS-MP2 Energies <==================
	-----------------------------------------------------------
	 SCS Same-Spin Scale       =       0.3333333333333333 [-]
	 SCS Opposite-Spin Scale   =       1.2000000000000000 [-]
	 SCS Same-Spin Energy      =      -0.1258871971159495 [Eh]
	 SCS Opposite-Spin Energy  =      -1.4972012226285807 [Eh]
	 SCS Correlation Energy    =      -1.6230884197445301 [Eh]
	 SCS Total Energy          =    -364.6881299073086780 [Eh]
	-----------------------------------------------------------

  Dipole Moment: [D]
     X:    -0.8062      Y:    -3.8694      Z:     0.2817     Total:     3.9626

*** Psi4 exiting successfully. Buy a developer a beer!
