                               Psi4 1.3.2 release

  ==> Input File <==

--------------------------------------------------------------------------
#psi4
#
memory 32 gb

molecule  {
0 1
  O       -0.0101440     2.0708820    -0.1140410
  N        0.2351990    -0.2177110    -0.3583720
  C       -0.4908340    -1.4342940    -0.0290780
  C       -1.9502640    -0.9583450    -0.0482810
  C       -1.8489090     0.4999680     0.4010950
  C       -0.4582930     0.9265630    -0.0509830
  C        1.6617300    -0.1844710    -0.6214880
  C        2.4978900    -0.3314020     0.6460640
  H       -0.2060500    -1.8213230     0.9608810
  H       -0.2853850    -2.2161620    -0.7686800
  H       -2.6557940    -1.5942807     0.4926127
  H       -2.3326610    -1.0086390    -1.0720610
  H       -1.8916900     0.5931740     1.4933710
  H       -2.6106570     1.1621840    -0.0164710
  H        1.8952280    -0.9774960    -1.3410860
  H        1.8622980     0.7788290    -1.0968800
  H        2.2724650     0.4877290     1.3331980
  H        2.2931660    -1.2799200     1.1504100
  H        3.5653110    -0.2984830     0.4074420
units angstrom
no_reorient  #important for SAPT in psi4, default
symmetry c1  #important for SAPT in psi4, default
}

set PROPERTIES_ORIGIN ["COM"]
properties('MP2/aug-cc-pvtz', properties = ['dipole'])
--------------------------------------------------------------------------

    Molecular point group: c1
  Charge       = 0
  Multiplicity = 1
  Basis Set: AUG-CC-PVTZ
    Blend: AUG-CC-PVTZ
  Basis Set: (AUG-CC-PVTZ AUX)
    Blend: AUG-CC-PVTZ-JKFIT

    Orbital Energies [Eh]
    ---------------------

    Doubly Occupied:

       1A    -20.511997     2A    -15.581313     3A    -11.341940
       4A    -11.275611     5A    -11.261171     6A    -11.242359
       7A    -11.240703     8A    -11.218734     9A     -1.367210
      10A     -1.258750    11A     -1.087544    12A     -1.000516
      13A     -0.972215    14A     -0.870845    15A     -0.831245
      16A     -0.726729    17A     -0.691147    18A     -0.668570
      19A     -0.639829    20A     -0.603271    21A     -0.589268
      22A     -0.572070    23A     -0.563681    24A     -0.558095
      25A     -0.520938    26A     -0.513648    27A     -0.509298
      28A     -0.490849    29A     -0.474872    30A     -0.410095
      31A     -0.369782

  @DF-RHF Final Energy:  -363.07464206823448

   => Energetics <=

    Nuclear Repulsion Energy =            394.1893850742998779
    One-Electron Energy =               -1274.5994649927160935
    Two-Electron Energy =                 517.3354378501817337
    Total Energy =                       -363.0746420682344251
  Basis Set: (AUG-CC-PVTZ AUX)
    Blend: AUG-CC-PVTZ-RI
    Molecular point group: c1

    Geometry (in Angstrom), charge = 0, multiplicity = 1:

       Center              X                  Y                   Z               Mass
    ------------   -----------------  -----------------  -----------------  -----------------
         O            0.007645916822     2.017218531989    -0.098834356638    15.994914619570
         N            0.252988916822    -0.271374468011    -0.343165356638    14.003074004430
         C           -0.473044083178    -1.487957468011    -0.013871356638    12.000000000000
         C           -1.932474083178    -1.012008468011    -0.033074356638    12.000000000000
         C           -1.831119083178     0.446304531989     0.416301643362    12.000000000000
         C           -0.440503083178     0.872899531989    -0.035776356638    12.000000000000
         C            1.679519916822    -0.238134468011    -0.606281356638    12.000000000000
         C            2.515679916822    -0.385065468011     0.661270643362    12.000000000000
         H           -0.188260083178    -1.874986468011     0.976087643362     1.007825032230
         H           -0.267595083178    -2.269825468011    -0.753473356638     1.007825032230
         H           -2.638004083178    -1.647944168011     0.507819343362     1.007825032230
         H           -2.314871083178    -1.062302468011    -1.056854356638     1.007825032230
         H           -1.873900083178     0.539510531989     1.508577643362     1.007825032230
         H           -2.592867083178     1.108520531989    -0.001264356638     1.007825032230
         H            1.913017916822    -1.031159468011    -1.325879356638     1.007825032230
         H            1.880087916822     0.725165531989    -1.081673356638     1.007825032230
         H            2.290254916822     0.434065531989     1.348404643362     1.007825032230
         H            2.310955916822    -1.333583468011     1.165616643362     1.007825032230
         H            3.583100916822    -0.352146468011     0.422648643362     1.007825032230

  Basis Set: AUG-CC-PVTZ
    Blend: AUG-CC-PVTZ
  Basis Set: (AUG-CC-PVTZ AUX)
    Blend: AUG-CC-PVTZ-JKFIT
	 Reference Energy          =    -363.0746420682344819 [Eh]
	 Singles Energy            =      -0.0000000000000000 [Eh]
	 Same-Spin Energy          =      -0.3768024056453508 [Eh]
	 Opposite-Spin Energy      =      -1.2468559202545875 [Eh]
	 Correlation Energy        =      -1.6236583258999384 [Eh]
	 Total Energy              =    -364.6983003941344350 [Eh]

	 ================> DF-SCS-MP2 Energies <==================
	-----------------------------------------------------------
	 SCS Same-Spin Scale       =       0.3333333333333333 [-]
	 SCS Opposite-Spin Scale   =       1.2000000000000000 [-]
	 SCS Same-Spin Energy      =      -0.1256008018817836 [Eh]
	 SCS Opposite-Spin Energy  =      -1.4962271043055049 [Eh]
	 SCS Correlation Energy    =      -1.6218279061872884 [Eh]
	 SCS Total Energy          =    -364.6964699744217455 [Eh]
	-----------------------------------------------------------

  Dipole Moment: [D]
     X:    -0.4772      Y:    -3.9530      Z:     0.2270     Total:     3.9882

*** Psi4 exiting successfully. Buy a developer a beer!
