                               Psi4 1.3.2 release

  ==> Input File <==

--------------------------------------------------------------------------
#psi4
#
memory 32 gb

molecule  {
0 1
  O       -0.0101440     2.0708820    -0.1140410
  N        0.2351990    -0.2177110    -0.3583720
  C       -0.5906652    -1.6015769     0.0162007
  C       -1.9502640    -0.9583450    -0.0482810
  C       -1.8489090     0.4999680     0.4010950
  C       -0.4582930     0.9265630    -0.0509830
  C        1.6617300    -0.1844710    -0.6214880
  C        2.4978900    -0.3314020     0.6460640
  H       -0.2060500    -1.8213230     0.9608810
  H       -0.2853850    -2.2161620    -0.7686800
  H       -2.5951790    -1.5710950     0.5868370
  H       -2.3326610    -1.0086390    -1.0720610
  H       -1.8916900     0.5931740     1.4933710
  H       -2.6106570     1.1621840    -0.0164710
  H        1.8952280    -0.9774960    -1.3410860
  H        1.8622980     0.7788290    -1.0968800
  H        2.2724650     0.4877290     1.3331980
  H        2.2931660    -1.2799200     1.1504100
  H        3.5653110    -0.2984830     0.4074420
units angstrom
no_reorient  #important for SAPT in psi4, default
symmetry c1  #important for SAPT in psi4, default
}

set PROPERTIES_ORIGIN ["COM"]
properties('MP2/aug-cc-pvtz', properties = ['dipole'])
--------------------------------------------------------------------------

    Molecular point group: c1
  Charge       = 0
  Multiplicity = 1
  Basis Set: AUG-CC-PVTZ
    Blend: AUG-CC-PVTZ
  Basis Set: (AUG-CC-PVTZ AUX)
    Blend: AUG-CC-PVTZ-JKFIT

    Orbital Energies [Eh]
    ---------------------

    Doubly Occupied:

       1A    -20.504154     2A    -15.572258     3A    -11.334585
       4A    -11.284891     5A    -11.254243     6A    -11.246883
       7A    -11.241087     8A    -11.215121     9A     -1.357030
      10A     -1.225337    11A     -1.088403    12A     -0.995106
      13A     -0.980035    14A     -0.863942    15A     -0.830344
      16A     -0.713656    17A     -0.693300    18A     -0.660343
      19A     -0.635908    20A     -0.605832    21A     -0.599243
      22A     -0.570861    23A     -0.552763    24A     -0.544999
      25A     -0.531756    26A     -0.520485    27A     -0.503024
      28A     -0.481651    29A     -0.470051    30A     -0.399880
      31A     -0.365449

  @DF-RHF Final Energy:  -363.04624592336660

   => Energetics <=

    Nuclear Repulsion Energy =            390.9801949098485920
    One-Electron Energy =               -1268.3676422914513751
    Two-Electron Energy =                 514.3412014582361280
    Total Energy =                       -363.0462459233666550
  Basis Set: (AUG-CC-PVTZ AUX)
    Blend: AUG-CC-PVTZ-RI
    Molecular point group: c1

    Geometry (in Angstrom), charge = 0, multiplicity = 1:

       Center              X                  Y                   Z               Mass
    ------------   -----------------  -----------------  -----------------  -----------------
         O            0.017699367730     2.034763246968    -0.104478883247    15.994914619570
         N            0.263042367730    -0.253829753032    -0.348809883247    14.003074004430
         C           -0.562821832270    -1.637695653032     0.025762816753    12.000000000000
         C           -1.922420632270    -0.994463753032    -0.038718883247    12.000000000000
         C           -1.821065632270     0.463849246968     0.410657116753    12.000000000000
         C           -0.430449632270     0.890444246968    -0.041420883247    12.000000000000
         C            1.689573367730    -0.220589753032    -0.611925883247    12.000000000000
         C            2.525733367730    -0.367520753032     0.655626116753    12.000000000000
         H           -0.178206632270    -1.857441753032     0.970443116753     1.007825032230
         H           -0.257541632270    -2.252280753032    -0.759117883247     1.007825032230
         H           -2.567335632270    -1.607213753032     0.596399116753     1.007825032230
         H           -2.304817632270    -1.044757753032    -1.062498883247     1.007825032230
         H           -1.863846632270     0.557055246968     1.502933116753     1.007825032230
         H           -2.582813632270     1.126065246968    -0.006908883247     1.007825032230
         H            1.923071367730    -1.013614753032    -1.331523883247     1.007825032230
         H            1.890141367730     0.742710246968    -1.087317883247     1.007825032230
         H            2.300308367730     0.451610246968     1.342760116753     1.007825032230
         H            2.321009367730    -1.316038753032     1.159972116753     1.007825032230
         H            3.593154367730    -0.334601753032     0.417004116753     1.007825032230

  Basis Set: AUG-CC-PVTZ
    Blend: AUG-CC-PVTZ
  Basis Set: (AUG-CC-PVTZ AUX)
    Blend: AUG-CC-PVTZ-JKFIT
	 Reference Energy          =    -363.0462459233665982 [Eh]
	 Singles Energy            =      -0.0000000000000000 [Eh]
	 Same-Spin Energy          =      -0.3774118239099084 [Eh]
	 Opposite-Spin Energy      =      -1.2497608325751082 [Eh]
	 Correlation Energy        =      -1.6271726564850164 [Eh]
	 Total Energy              =    -364.6734185798516137 [Eh]

	 ================> DF-SCS-MP2 Energies <==================
	-----------------------------------------------------------
	 SCS Same-Spin Scale       =       0.3333333333333333 [-]
	 SCS Opposite-Spin Scale   =       1.2000000000000000 [-]
	 SCS Same-Spin Energy      =      -0.1258039413033028 [Eh]
	 SCS Opposite-Spin Energy  =      -1.4997129990901297 [Eh]
	 SCS Correlation Energy    =      -1.6255169403934324 [Eh]
	 SCS Total Energy          =    -364.6717628637600228 [Eh]
	-----------------------------------------------------------

  Dipole Moment: [D]
     X:    -0.6591      Y:    -4.3793      Z:     0.3384     Total:     4.4415

*** Psi4 exiting successfully. Buy a developer a beer!
