                               Psi4 1.4a3.dev225

  ==> Input File <==

--------------------------------------------------------------------------
#psi4
#
memory 32 gb

molecule  {
0 1
  O       -0.0101440     2.0708820    -0.1140410
  N        0.2351990    -0.2177110    -0.3583720
  C       -0.4808509    -1.4175657    -0.0336059
  C       -1.9502640    -0.9583450    -0.0482810
  C       -1.8489090     0.4999680     0.4010950
  C       -0.4582930     0.9265630    -0.0509830
  C        1.6617300    -0.1844710    -0.6214880
  C        2.4978900    -0.3314020     0.6460640
  H       -0.2060500    -1.8213230     0.9608810
  H       -0.2853850    -2.2161620    -0.7686800
  H       -2.5951790    -1.5710950     0.5868370
  H       -2.3326610    -1.0086390    -1.0720610
  H       -1.8916900     0.5931740     1.4933710
  H       -2.6106570     1.1621840    -0.0164710
  H        1.8952280    -0.9774960    -1.3410860
  H        1.8622980     0.7788290    -1.0968800
  H        2.2724650     0.4877290     1.3331980
  H        2.2931660    -1.2799200     1.1504100
  H        3.5653110    -0.2984830     0.4074420
units angstrom
no_reorient  #important for SAPT in psi4, default
symmetry c1  #important for SAPT in psi4, default
}

set PROPERTIES_ORIGIN ["COM"]
properties('MP2/aug-cc-pvtz', properties = ['dipole'])
--------------------------------------------------------------------------

    Molecular point group: c1
  Charge       = 0
  Multiplicity = 1
  Basis Set: AUG-CC-PVTZ
    Blend: AUG-CC-PVTZ
  Basis Set: (AUG-CC-PVTZ AUX)
    Blend: AUG-CC-PVTZ-JKFIT

    Orbital Energies [Eh]
    ---------------------

    Doubly Occupied:

       1A    -20.512459     2A    -15.581506     3A    -11.342085
       4A    -11.274581     5A    -11.261581     6A    -11.242281
       7A    -11.239933     8A    -11.219005     9A     -1.368141
      10A     -1.262747    11A     -1.087930    12A     -1.001498
      13A     -0.971057    14A     -0.871148    15A     -0.829849
      16A     -0.727780    17A     -0.694107    18A     -0.668256
      19A     -0.639852    20A     -0.605161    21A     -0.588734
      22A     -0.573263    23A     -0.563598    24A     -0.555005
      25A     -0.523460    26A     -0.513701    27A     -0.507760
      28A     -0.490142    29A     -0.476965    30A     -0.410218
      31A     -0.369315

  @DF-RHF Final Energy:  -363.07560481280518

   => Energetics <=

    Nuclear Repulsion Energy =            394.6342466219414860
    One-Electron Energy =               -1275.4734630092718817
    Two-Electron Energy =                 517.7636115745252710
    Total Energy =                       -363.0756048128051816
  Basis Set: (AUG-CC-PVTZ AUX)
    Blend: AUG-CC-PVTZ-RI
    Molecular point group: c1

    Geometry (in Angstrom), charge = 0, multiplicity = 1:

       Center              X                  Y                   Z               Mass
    ------------   -----------------  -----------------  -----------------  -----------------
         O            0.006046341180     2.015236760898    -0.099193618649    15.994914619570
         N            0.251389341180    -0.273356239102    -0.343524618649    14.003074004430
         C           -0.464660558820    -1.473210939102    -0.018758518649    12.000000000000
         C           -1.934073658820    -1.013990239102    -0.033433618649    12.000000000000
         C           -1.832718658820     0.444322760898     0.415942381351    12.000000000000
         C           -0.442102658820     0.870917760898    -0.036135618649    12.000000000000
         C            1.677920341180    -0.240116239102    -0.606640618649    12.000000000000
         C            2.514080341180    -0.387047239102     0.660911381351    12.000000000000
         H           -0.189859658820    -1.876968239102     0.975728381351     1.007825032230
         H           -0.269194658820    -2.271807239102    -0.753832618649     1.007825032230
         H           -2.578988658820    -1.626740239102     0.601684381351     1.007825032230
         H           -2.316470658820    -1.064284239102    -1.057213618649     1.007825032230
         H           -1.875499658820     0.537528760898     1.508218381351     1.007825032230
         H           -2.594466658820     1.106538760898    -0.001623618649     1.007825032230
         H            1.911418341180    -1.033141239102    -1.326238618649     1.007825032230
         H            1.878488341180     0.723183760898    -1.082032618649     1.007825032230
         H            2.288655341180     0.432083760898     1.348045381351     1.007825032230
         H            2.309356341180    -1.335565239102     1.165257381351     1.007825032230
         H            3.581501341180    -0.354128239102     0.422289381351     1.007825032230

  Basis Set: AUG-CC-PVTZ
    Blend: AUG-CC-PVTZ
  Basis Set: (AUG-CC-PVTZ AUX)
    Blend: AUG-CC-PVTZ-JKFIT
	 Reference Energy          =    -363.0756048128051816 [Eh]
	 Singles Energy            =      -0.0000000000000000 [Eh]
	 Same-Spin Energy          =      -0.3768781775363296 [Eh]
	 Opposite-Spin Energy      =      -1.2469042037254907 [Eh]
	 Correlation Energy        =      -1.6237823812618202 [Eh]
	 Total Energy              =    -364.6993871940670147 [Eh]

	 ================> DF-SCS-MP2 Energies <==================
	-----------------------------------------------------------
	 SCS Same-Spin Scale       =       0.3333333333333333 [-]
	 SCS Opposite-Spin Scale   =       1.2000000000000000 [-]
	 SCS Same-Spin Energy      =      -0.1256260591787765 [Eh]
	 SCS Opposite-Spin Energy  =      -1.4962850444705889 [Eh]
	 SCS Correlation Energy    =      -1.6219111036493654 [Eh]
	 SCS Total Energy          =    -364.6975159164545630 [Eh]
	-----------------------------------------------------------

  Dipole Moment: [D]
     X:    -0.4430      Y:    -3.8912      Z:     0.2424     Total:     3.9238

*** Psi4 exiting successfully. Buy a developer a beer!
