                               Psi4 1.3.2 release

  ==> Input File <==

--------------------------------------------------------------------------
#psi4
#
memory 32 gb

molecule  {
0 1
  O       -0.0101440     2.0708820    -0.1140410
  N        0.2351990    -0.2177110    -0.3583720
  C       -0.4631543    -1.3360406     0.0035158
  C       -1.9502640    -0.9583450    -0.0482810
  C       -1.8489090     0.4999680     0.4010950
  C       -0.4582930     0.9265630    -0.0509830
  C        1.6617300    -0.1844710    -0.6214880
  C        2.4978900    -0.3314020     0.6460640
  H       -0.2060500    -1.8213230     0.9608810
  H       -0.2853850    -2.2161620    -0.7686800
  H       -2.5951790    -1.5710950     0.5868370
  H       -2.3326610    -1.0086390    -1.0720610
  H       -1.8916900     0.5931740     1.4933710
  H       -2.6106570     1.1621840    -0.0164710
  H        1.8952280    -0.9774960    -1.3410860
  H        1.8622980     0.7788290    -1.0968800
  H        2.2724650     0.4877290     1.3331980
  H        2.2931660    -1.2799200     1.1504100
  H        3.5653110    -0.2984830     0.4074420
units angstrom
no_reorient  #important for SAPT in psi4, default
symmetry c1  #important for SAPT in psi4, default
}

set PROPERTIES_ORIGIN ["COM"]
properties('MP2/aug-cc-pvtz', properties = ['dipole'])
--------------------------------------------------------------------------

    Molecular point group: c1
  Charge       = 0
  Multiplicity = 1
  Basis Set: AUG-CC-PVTZ
    Blend: AUG-CC-PVTZ
  Basis Set: (AUG-CC-PVTZ AUX)
    Blend: AUG-CC-PVTZ-JKFIT

    Orbital Energies [Eh]
    ---------------------

    Doubly Occupied:

       1A    -20.515611     2A    -15.583048     3A    -11.344195
       4A    -11.275260     5A    -11.264697     6A    -11.241713
       7A    -11.239994     8A    -11.220889     9A     -1.373680
      10A     -1.279840    11A     -1.091265    12A     -1.006410
      13A     -0.966542    14A     -0.876083    15A     -0.831395
      16A     -0.732800    17A     -0.702223    18A     -0.667846
      19A     -0.638694    20A     -0.607453    21A     -0.591831
      22A     -0.578358    23A     -0.560581    24A     -0.558136
      25A     -0.527197    26A     -0.516647    27A     -0.501915
      28A     -0.486555    29A     -0.473510    30A     -0.412802
      31A     -0.367821

  @DF-RHF Final Energy:  -363.06338684486786

   => Energetics <=

    Nuclear Repulsion Energy =            396.2166029065324437
    One-Electron Energy =               -1278.4899992996220135
    Two-Electron Energy =                 519.2100095482217057
    Total Energy =                       -363.0633868448678641
  Basis Set: (AUG-CC-PVTZ AUX)
    Blend: AUG-CC-PVTZ-RI
    Molecular point group: c1

    Geometry (in Angstrom), charge = 0, multiplicity = 1:

       Center              X                  Y                   Z               Mass
    ------------   -----------------  -----------------  -----------------  -----------------
         O            0.004168453239     2.006585663957    -0.103132815599    15.994914619570
         N            0.249511453239    -0.282007336043    -0.347463815599    14.003074004430
         C           -0.448841846761    -1.400336936043     0.014423984401    12.000000000000
         C           -1.935951546761    -1.022641336043    -0.037372815599    12.000000000000
         C           -1.834596546761     0.435671663957     0.412003184401    12.000000000000
         C           -0.443980546761     0.862266663957    -0.040074815599    12.000000000000
         C            1.676042453239    -0.248767336043    -0.610579815599    12.000000000000
         C            2.512202453239    -0.395698336043     0.656972184401    12.000000000000
         H           -0.191737546761    -1.885619336043     0.971789184401     1.007825032230
         H           -0.271072546761    -2.280458336043    -0.757771815599     1.007825032230
         H           -2.580866546761    -1.635391336043     0.597745184401     1.007825032230
         H           -2.318348546761    -1.072935336043    -1.061152815599     1.007825032230
         H           -1.877377546761     0.528877663957     1.504279184401     1.007825032230
         H           -2.596344546761     1.097887663957    -0.005562815599     1.007825032230
         H            1.909540453239    -1.041792336043    -1.330177815599     1.007825032230
         H            1.876610453239     0.714532663957    -1.085971815599     1.007825032230
         H            2.286777453239     0.423432663957     1.344106184401     1.007825032230
         H            2.307478453239    -1.344216336043     1.161318184401     1.007825032230
         H            3.579623453239    -0.362779336043     0.418350184401     1.007825032230

  Basis Set: AUG-CC-PVTZ
    Blend: AUG-CC-PVTZ
  Basis Set: (AUG-CC-PVTZ AUX)
    Blend: AUG-CC-PVTZ-JKFIT
	 Reference Energy          =    -363.0633868448678641 [Eh]
	 Singles Energy            =      -0.0000000000000000 [Eh]
	 Same-Spin Energy          =      -0.3776288649075140 [Eh]
	 Opposite-Spin Energy      =      -1.2475719621220565 [Eh]
	 Correlation Energy        =      -1.6252008270295704 [Eh]
	 Total Energy              =    -364.6885876718974373 [Eh]

	 ================> DF-SCS-MP2 Energies <==================
	-----------------------------------------------------------
	 SCS Same-Spin Scale       =       0.3333333333333333 [-]
	 SCS Opposite-Spin Scale   =       1.2000000000000000 [-]
	 SCS Same-Spin Energy      =      -0.1258762883025046 [Eh]
	 SCS Opposite-Spin Energy  =      -1.4970863545464677 [Eh]
	 SCS Correlation Energy    =      -1.6229626428489723 [Eh]
	 SCS Total Energy          =    -364.6863494877168250 [Eh]
	-----------------------------------------------------------

  Dipole Moment: [D]
     X:    -0.3696      Y:    -3.6321      Z:     0.2888     Total:     3.6622

*** Psi4 exiting successfully. Buy a developer a beer!
