                               Psi4 1.3.2 release

  ==> Input File <==

--------------------------------------------------------------------------
#psi4
#
memory 32 gb

molecule  {
0 1
  O       -0.0101440     2.0708820    -0.1140410
  N        0.2351990    -0.2177110    -0.3583720
  C       -0.4908340    -1.4342940    -0.0290780
  C       -1.9502640    -0.9583450    -0.0482810
  C       -1.8489090     0.4999680     0.4010950
  C       -0.4582930     0.9265630    -0.0509830
  C        1.6617300    -0.1844710    -0.6214880
  C        2.4978900    -0.3314020     0.6460640
  H       -0.2007010    -1.8378522     0.9526938
  H       -0.2853850    -2.2161620    -0.7686800
  H       -2.5951790    -1.5710950     0.5868370
  H       -2.3326610    -1.0086390    -1.0720610
  H       -1.8916900     0.5931740     1.4933710
  H       -2.6106570     1.1621840    -0.0164710
  H        1.8952280    -0.9774960    -1.3410860
  H        1.8622980     0.7788290    -1.0968800
  H        2.2724650     0.4877290     1.3331980
  H        2.2931660    -1.2799200     1.1504100
  H        3.5653110    -0.2984830     0.4074420
units angstrom
no_reorient  #important for SAPT in psi4, default
symmetry c1  #important for SAPT in psi4, default
}

set PROPERTIES_ORIGIN ["COM"]
properties('MP2/aug-cc-pvtz', properties = ['dipole'])
--------------------------------------------------------------------------

    Molecular point group: c1
  Charge       = 0
  Multiplicity = 1
  Basis Set: AUG-CC-PVTZ
    Blend: AUG-CC-PVTZ
  Basis Set: (AUG-CC-PVTZ AUX)
    Blend: AUG-CC-PVTZ-JKFIT

    Orbital Energies [Eh]
    ---------------------

    Doubly Occupied:

       1A    -20.511681     2A    -15.581174     3A    -11.341424
       4A    -11.274843     5A    -11.260943     6A    -11.242553
       7A    -11.239968     8A    -11.218679     9A     -1.366924
      10A     -1.258492    11A     -1.087840    12A     -1.000530
      13A     -0.972135    14A     -0.870255    15A     -0.829633
      16A     -0.726520    17A     -0.693196    18A     -0.667686
      19A     -0.639440    20A     -0.604589    21A     -0.589299
      22A     -0.571975    23A     -0.563181    24A     -0.554718
      25A     -0.522984    26A     -0.513091    27A     -0.509640
      28A     -0.490158    29A     -0.477360    30A     -0.409484
      31A     -0.369581

  @DF-RHF Final Energy:  -363.07592536000311

   => Energetics <=

    Nuclear Repulsion Energy =            394.2616199078499335
    One-Electron Energy =               -1274.7551337773411433
    Two-Electron Energy =                 517.4175885094880414
    Total Energy =                       -363.0759253600031116
  Basis Set: (AUG-CC-PVTZ AUX)
    Blend: AUG-CC-PVTZ-RI
    Molecular point group: c1

    Geometry (in Angstrom), charge = 0, multiplicity = 1:

       Center              X                  Y                   Z               Mass
    ------------   -----------------  -----------------  -----------------  -----------------
         O            0.007058034073     2.017159208092    -0.099601134379    15.994914619570
         N            0.252401034073    -0.271433791908    -0.343932134379    14.003074004430
         C           -0.473631965927    -1.488016791908    -0.014638134379    12.000000000000
         C           -1.933061965927    -1.012067791908    -0.033841134379    12.000000000000
         C           -1.831706965927     0.446245208092     0.415534865621    12.000000000000
         C           -0.441090965927     0.872840208092    -0.036543134379    12.000000000000
         C            1.678932034073    -0.238193791908    -0.607048134379    12.000000000000
         C            2.515092034073    -0.385124791908     0.660503865621    12.000000000000
         H           -0.183498965927    -1.891574991908     0.967133665621     1.007825032230
         H           -0.268182965927    -2.269884791908    -0.754240134379     1.007825032230
         H           -2.577976965927    -1.624817791908     0.601276865621     1.007825032230
         H           -2.315458965927    -1.062361791908    -1.057621134379     1.007825032230
         H           -1.874487965927     0.539451208092     1.507810865621     1.007825032230
         H           -2.593454965927     1.108461208092    -0.002031134379     1.007825032230
         H            1.912430034073    -1.031218791908    -1.326646134379     1.007825032230
         H            1.879500034073     0.725106208092    -1.082440134379     1.007825032230
         H            2.289667034073     0.434006208092     1.347637865621     1.007825032230
         H            2.310368034073    -1.333642791908     1.164849865621     1.007825032230
         H            3.582513034073    -0.352205791908     0.421881865621     1.007825032230

  Basis Set: AUG-CC-PVTZ
    Blend: AUG-CC-PVTZ
  Basis Set: (AUG-CC-PVTZ AUX)
    Blend: AUG-CC-PVTZ-JKFIT
	 Reference Energy          =    -363.0759253600031116 [Eh]
	 Singles Energy            =      -0.0000000000000000 [Eh]
	 Same-Spin Energy          =      -0.3767714183737754 [Eh]
	 Opposite-Spin Energy      =      -1.2468938212085372 [Eh]
	 Correlation Energy        =      -1.6236652395823126 [Eh]
	 Total Energy              =    -364.6995905995854059 [Eh]

	 ================> DF-SCS-MP2 Energies <==================
	-----------------------------------------------------------
	 SCS Same-Spin Scale       =       0.3333333333333333 [-]
	 SCS Opposite-Spin Scale   =       1.2000000000000000 [-]
	 SCS Same-Spin Energy      =      -0.1255904727912585 [Eh]
	 SCS Opposite-Spin Energy  =      -1.4962725854502446 [Eh]
	 SCS Correlation Energy    =      -1.6218630582415030 [Eh]
	 SCS Total Energy          =    -364.6977884182446132 [Eh]
	-----------------------------------------------------------

  Dipole Moment: [D]
     X:    -0.4605      Y:    -3.9460      Z:     0.2541     Total:     3.9809

*** Psi4 exiting successfully. Buy a developer a beer!
