                               Psi4 1.3.2 release

  ==> Input File <==

--------------------------------------------------------------------------
#psi4
#
memory 32 gb

molecule  {
0 1
  O        0.0086643     2.0629468    -0.1207152
  N        0.2351990    -0.2177110    -0.3583720
  C       -0.4908340    -1.4342940    -0.0290780
  C       -1.9502640    -0.9583450    -0.0482810
  C       -1.8489090     0.4999680     0.4010950
  C       -0.4582930     0.9265630    -0.0509830
  C        1.6617300    -0.1844710    -0.6214880
  C        2.4978900    -0.3314020     0.6460640
  H       -0.2060500    -1.8213230     0.9608810
  H       -0.2853850    -2.2161620    -0.7686800
  H       -2.5951790    -1.5710950     0.5868370
  H       -2.3326610    -1.0086390    -1.0720610
  H       -1.8916900     0.5931740     1.4933710
  H       -2.6106570     1.1621840    -0.0164710
  H        1.8952280    -0.9774960    -1.3410860
  H        1.8622980     0.7788290    -1.0968800
  H        2.2724650     0.4877290     1.3331980
  H        2.2931660    -1.2799200     1.1504100
  H        3.5653110    -0.2984830     0.4074420
units angstrom
no_reorient  #important for SAPT in psi4, default
symmetry c1  #important for SAPT in psi4, default
}

set PROPERTIES_ORIGIN ["COM"]
properties('MP2/aug-cc-pvtz', properties = ['dipole'])
--------------------------------------------------------------------------

    Molecular point group: c1
  Charge       = 0
  Multiplicity = 1
  Basis Set: AUG-CC-PVTZ
    Blend: AUG-CC-PVTZ
  Basis Set: (AUG-CC-PVTZ AUX)
    Blend: AUG-CC-PVTZ-JKFIT

    Orbital Energies [Eh]
    ---------------------

    Doubly Occupied:

       1A    -20.511335     2A    -15.580035     3A    -11.341336
       4A    -11.274574     5A    -11.260232     6A    -11.242828
       7A    -11.241000     8A    -11.218217     9A     -1.367182
      10A     -1.257527    11A     -1.087953    12A     -1.000203
      13A     -0.972148    14A     -0.869901    15A     -0.829492
      16A     -0.726057    17A     -0.693200    18A     -0.667704
      19A     -0.639430    20A     -0.604389    21A     -0.589308
      22A     -0.571911    23A     -0.563087    24A     -0.554670
      25A     -0.522702    26A     -0.512703    27A     -0.509600
      28A     -0.489769    29A     -0.477705    30A     -0.409837
      31A     -0.368792

  @DF-RHF Final Energy:  -363.07581436277985

   => Energetics <=

    Nuclear Repulsion Energy =            394.4183676411019519
    One-Electron Energy =               -1275.0787060524751269
    Two-Electron Energy =                 517.5845240485933800
    Total Energy =                       -363.0758143627798518
  Basis Set: (AUG-CC-PVTZ AUX)
    Blend: AUG-CC-PVTZ-RI
    Molecular point group: c1

    Geometry (in Angstrom), charge = 0, multiplicity = 1:

       Center              X                  Y                   Z               Mass
    ------------   -----------------  -----------------  -----------------  -----------------
         O            0.023253708685     2.010199073023    -0.105404283316    15.994914619570
         N            0.249788408685    -0.270458726977    -0.343061083316    14.003074004430
         C           -0.476244591315    -1.487041726977    -0.013767083316    12.000000000000
         C           -1.935674591315    -1.011092726977    -0.032970083316    12.000000000000
         C           -1.834319591315     0.447220273023     0.416405916684    12.000000000000
         C           -0.443703591315     0.873815273023    -0.035672083316    12.000000000000
         C            1.676319408685    -0.237218726977    -0.606177083316    12.000000000000
         C            2.512479408685    -0.384149726977     0.661374916684    12.000000000000
         H           -0.191460591315    -1.874070726977     0.976191916684     1.007825032230
         H           -0.270795591315    -2.268909726977    -0.753369083316     1.007825032230
         H           -2.580589591315    -1.623842726977     0.602147916684     1.007825032230
         H           -2.318071591315    -1.061386726977    -1.056750083316     1.007825032230
         H           -1.877100591315     0.540426273023     1.508681916684     1.007825032230
         H           -2.596067591315     1.109436273023    -0.001160083316     1.007825032230
         H            1.909817408685    -1.030243726977    -1.325775083316     1.007825032230
         H            1.876887408685     0.726081273023    -1.081569083316     1.007825032230
         H            2.287054408685     0.434981273023     1.348508916684     1.007825032230
         H            2.307755408685    -1.332667726977     1.165720916684     1.007825032230
         H            3.579900408685    -0.351230726977     0.422752916684     1.007825032230

  Basis Set: AUG-CC-PVTZ
    Blend: AUG-CC-PVTZ
  Basis Set: (AUG-CC-PVTZ AUX)
    Blend: AUG-CC-PVTZ-JKFIT
	 Reference Energy          =    -363.0758143627798518 [Eh]
	 Singles Energy            =      -0.0000000000000000 [Eh]
	 Same-Spin Energy          =      -0.3768300999732543 [Eh]
	 Opposite-Spin Energy      =      -1.2469518945887539 [Eh]
	 Correlation Energy        =      -1.6237819945620082 [Eh]
	 Total Energy              =    -364.6995963573418749 [Eh]

	 ================> DF-SCS-MP2 Energies <==================
	-----------------------------------------------------------
	 SCS Same-Spin Scale       =       0.3333333333333333 [-]
	 SCS Opposite-Spin Scale   =       1.2000000000000000 [-]
	 SCS Same-Spin Energy      =      -0.1256100333244181 [Eh]
	 SCS Opposite-Spin Energy  =      -1.4963422735065046 [Eh]
	 SCS Correlation Energy    =      -1.6219523068309227 [Eh]
	 SCS Total Energy          =    -364.6977666696107576 [Eh]
	-----------------------------------------------------------

  Dipole Moment: [D]
     X:    -0.5173      Y:    -3.9268      Z:     0.2685     Total:     3.9698

*** Psi4 exiting successfully. Buy a developer a beer!
