                               Psi4 1.3.2 release

  ==> Input File <==

--------------------------------------------------------------------------
#psi4
#
memory 32 gb

molecule  {
0 1
  O       -0.0101440     2.0708820    -0.1140410
  N        0.2351990    -0.2177110    -0.3583720
  C       -0.4908340    -1.4342940    -0.0290780
  C       -1.9502640    -0.9583450    -0.0482810
  C       -1.8489090     0.4999680     0.4010950
  C       -0.5311295     0.7405797    -0.0407343
  C        1.6617300    -0.1844710    -0.6214880
  C        2.4978900    -0.3314020     0.6460640
  H       -0.2060500    -1.8213230     0.9608810
  H       -0.2853850    -2.2161620    -0.7686800
  H       -2.5951790    -1.5710950     0.5868370
  H       -2.3326610    -1.0086390    -1.0720610
  H       -1.8916900     0.5931740     1.4933710
  H       -2.6106570     1.1621840    -0.0164710
  H        1.8952280    -0.9774960    -1.3410860
  H        1.8622980     0.7788290    -1.0968800
  H        2.2724650     0.4877290     1.3331980
  H        2.2931660    -1.2799200     1.1504100
  H        3.5653110    -0.2984830     0.4074420
units angstrom
no_reorient  #important for SAPT in psi4, default
symmetry c1  #important for SAPT in psi4, default
}

set PROPERTIES_ORIGIN ["COM"]
properties('MP2/aug-cc-pvtz', properties = ['dipole'])
--------------------------------------------------------------------------

    Molecular point group: c1
  Charge       = 0
  Multiplicity = 1
  Basis Set: AUG-CC-PVTZ
    Blend: AUG-CC-PVTZ
  Basis Set: (AUG-CC-PVTZ AUX)
    Blend: AUG-CC-PVTZ-JKFIT

    Orbital Energies [Eh]
    ---------------------

    Doubly Occupied:

       1A    -20.468213     2A    -15.610508     3A    -11.335865
       4A    -11.286314     5A    -11.275279     6A    -11.251336
       7A    -11.244123     8A    -11.226964     9A     -1.351709
      10A     -1.194457    11A     -1.115000    12A     -1.022723
      13A     -0.989993    14A     -0.889616    15A     -0.852957
      16A     -0.740805    17A     -0.711839    18A     -0.677675
      19A     -0.639556    20A     -0.620081    21A     -0.601983
      22A     -0.579281    23A     -0.564832    24A     -0.533541
      25A     -0.523018    26A     -0.521302    27A     -0.502004
      28A     -0.476355    29A     -0.456470    30A     -0.378636
      31A     -0.355541

  @DF-RHF Final Energy:  -363.00832703987373

   => Energetics <=

    Nuclear Repulsion Energy =            395.4639370085573660
    One-Electron Energy =               -1276.9485779476626703
    Two-Electron Energy =                 518.4763138992315135
    Total Energy =                       -363.0083270398737341
  Basis Set: (AUG-CC-PVTZ AUX)
    Blend: AUG-CC-PVTZ-RI
    Molecular point group: c1

    Geometry (in Angstrom), charge = 0, multiplicity = 1:

       Center              X                  Y                   Z               Mass
    ------------   -----------------  -----------------  -----------------  -----------------
         O            0.014834804956     2.036747653896    -0.100761648606    15.994914619570
         N            0.260177804956    -0.251845346104    -0.345092648606    14.003074004430
         C           -0.465855195044    -1.468428346104    -0.015798648606    12.000000000000
         C           -1.925285195044    -0.992479346104    -0.035001648606    12.000000000000
         C           -1.823930195044     0.465833653896     0.414374351394    12.000000000000
         C           -0.506150695044     0.706445353896    -0.027454948606    12.000000000000
         C            1.686708804956    -0.218605346104    -0.608208648606    12.000000000000
         C            2.522868804956    -0.365536346104     0.659343351394    12.000000000000
         H           -0.181071195044    -1.855457346104     0.974160351394     1.007825032230
         H           -0.260406195044    -2.250296346104    -0.755400648606     1.007825032230
         H           -2.570200195044    -1.605229346104     0.600116351394     1.007825032230
         H           -2.307682195044    -1.042773346104    -1.058781648606     1.007825032230
         H           -1.866711195044     0.559039653896     1.506650351394     1.007825032230
         H           -2.585678195044     1.128049653896    -0.003191648606     1.007825032230
         H            1.920206804956    -1.011630346104    -1.327806648606     1.007825032230
         H            1.887276804956     0.744694653896    -1.083600648606     1.007825032230
         H            2.297443804956     0.453594653896     1.346477351394     1.007825032230
         H            2.318144804956    -1.314054346104     1.163689351394     1.007825032230
         H            3.590289804956    -0.332617346104     0.420721351394     1.007825032230

  Basis Set: AUG-CC-PVTZ
    Blend: AUG-CC-PVTZ
  Basis Set: (AUG-CC-PVTZ AUX)
    Blend: AUG-CC-PVTZ-JKFIT
	 Reference Energy          =    -363.0083270398737341 [Eh]
	 Singles Energy            =      -0.0000000000000000 [Eh]
	 Same-Spin Energy          =      -0.3807848743917006 [Eh]
	 Opposite-Spin Energy      =      -1.2547143973725787 [Eh]
	 Correlation Energy        =      -1.6354992717642793 [Eh]
	 Total Energy              =    -364.6438263116380085 [Eh]

	 ================> DF-SCS-MP2 Energies <==================
	-----------------------------------------------------------
	 SCS Same-Spin Scale       =       0.3333333333333333 [-]
	 SCS Opposite-Spin Scale   =       1.2000000000000000 [-]
	 SCS Same-Spin Energy      =      -0.1269282914639002 [Eh]
	 SCS Opposite-Spin Energy  =      -1.5056572768470944 [Eh]
	 SCS Correlation Energy    =      -1.6325855683109947 [Eh]
	 SCS Total Energy          =    -364.6409126081847489 [Eh]
	-----------------------------------------------------------

  Dipole Moment: [D]
     X:    -0.5187      Y:    -5.4772      Z:     0.2739     Total:     5.5086

*** Psi4 exiting successfully. Buy a developer a beer!
