                               Psi4 1.3.2 release

  ==> Input File <==

--------------------------------------------------------------------------
#psi4
#
memory 32 gb

molecule  {
0 1
  O       -0.0101440     2.0708820    -0.1140410
  N        0.1964592    -0.2433461    -0.3466083
  C       -0.4908340    -1.4342940    -0.0290780
  C       -1.9502640    -0.9583450    -0.0482810
  C       -1.8489090     0.4999680     0.4010950
  C       -0.4582930     0.9265630    -0.0509830
  C        1.6617300    -0.1844710    -0.6214880
  C        2.4978900    -0.3314020     0.6460640
  H       -0.2060500    -1.8213230     0.9608810
  H       -0.2853850    -2.2161620    -0.7686800
  H       -2.5951790    -1.5710950     0.5868370
  H       -2.3326610    -1.0086390    -1.0720610
  H       -1.8916900     0.5931740     1.4933710
  H       -2.6106570     1.1621840    -0.0164710
  H        1.8952280    -0.9774960    -1.3410860
  H        1.8622980     0.7788290    -1.0968800
  H        2.2724650     0.4877290     1.3331980
  H        2.2931660    -1.2799200     1.1504100
  H        3.5653110    -0.2984830     0.4074420
units angstrom
no_reorient  #important for SAPT in psi4, default
symmetry c1  #important for SAPT in psi4, default
}

set PROPERTIES_ORIGIN ["COM"]
properties('MP2/aug-cc-pvtz', properties = ['dipole'])
--------------------------------------------------------------------------

    Molecular point group: c1
  Charge       = 0
  Multiplicity = 1
  Basis Set: AUG-CC-PVTZ
    Blend: AUG-CC-PVTZ
  Basis Set: (AUG-CC-PVTZ AUX)
    Blend: AUG-CC-PVTZ-JKFIT

    Orbital Energies [Eh]
    ---------------------

    Doubly Occupied:

       1A    -20.513805     2A    -15.581476     3A    -11.342042
       4A    -11.271356     5A    -11.264855     6A    -11.240629
       7A    -11.237492     8A    -11.220518     9A     -1.367443
      10A     -1.264469    11A     -1.082651    12A     -1.002153
      13A     -0.975376    14A     -0.866595    15A     -0.829706
      16A     -0.727195    17A     -0.694856    18A     -0.670412
      19A     -0.638602    20A     -0.603007    21A     -0.590788
      22A     -0.577097    23A     -0.558855    24A     -0.554653
      25A     -0.522086    26A     -0.512369    27A     -0.508019
      28A     -0.491932    29A     -0.477070    30A     -0.409169
      31A     -0.370660

  @DF-RHF Final Energy:  -363.07267287677763

   => Energetics <=

    Nuclear Repulsion Energy =            394.4517805918765134
    One-Electron Energy =               -1275.1142351199305267
    Two-Electron Energy =                 517.5897816512763256
    Total Energy =                       -363.0726728767776876
  Basis Set: (AUG-CC-PVTZ AUX)
    Blend: AUG-CC-PVTZ-RI
    Molecular point group: c1

    Geometry (in Angstrom), charge = 0, multiplicity = 1:

       Center              X                  Y                   Z               Mass
    ------------   -----------------  -----------------  -----------------  -----------------
         O            0.011902811694     2.020186262912    -0.101130786044    15.994914619570
         N            0.218506011694    -0.294041837088    -0.333698086044    14.003074004430
         C           -0.468787188306    -1.484989737088    -0.016167786044    12.000000000000
         C           -1.928217188306    -1.009040737088    -0.035370786044    12.000000000000
         C           -1.826862188306     0.449272262912     0.414005213956    12.000000000000
         C           -0.436246188306     0.875867262912    -0.038072786044    12.000000000000
         C            1.683776811694    -0.235166737088    -0.608577786044    12.000000000000
         C            2.519936811694    -0.382097737088     0.658974213956    12.000000000000
         H           -0.184003188306    -1.872018737088     0.973791213956     1.007825032230
         H           -0.263338188306    -2.266857737088    -0.755769786044     1.007825032230
         H           -2.573132188306    -1.621790737088     0.599747213956     1.007825032230
         H           -2.310614188306    -1.059334737088    -1.059150786044     1.007825032230
         H           -1.869643188306     0.542478262912     1.506281213956     1.007825032230
         H           -2.588610188306     1.111488262912    -0.003560786044     1.007825032230
         H            1.917274811694    -1.028191737088    -1.328175786044     1.007825032230
         H            1.884344811694     0.728133262912    -1.083969786044     1.007825032230
         H            2.294511811694     0.437033262912     1.346108213956     1.007825032230
         H            2.315212811694    -1.330615737088     1.163320213956     1.007825032230
         H            3.587357811694    -0.349178737088     0.420352213956     1.007825032230

  Basis Set: AUG-CC-PVTZ
    Blend: AUG-CC-PVTZ
  Basis Set: (AUG-CC-PVTZ AUX)
    Blend: AUG-CC-PVTZ-JKFIT
	 Reference Energy          =    -363.0726728767776308 [Eh]
	 Singles Energy            =      -0.0000000000000000 [Eh]
	 Same-Spin Energy          =      -0.3770348581013901 [Eh]
	 Opposite-Spin Energy      =      -1.2472634731784589 [Eh]
	 Correlation Energy        =      -1.6242983312798489 [Eh]
	 Total Energy              =    -364.6969712080575050 [Eh]

	 ================> DF-SCS-MP2 Energies <==================
	-----------------------------------------------------------
	 SCS Same-Spin Scale       =       0.3333333333333333 [-]
	 SCS Opposite-Spin Scale   =       1.2000000000000000 [-]
	 SCS Same-Spin Energy      =      -0.1256782860337967 [Eh]
	 SCS Opposite-Spin Energy  =      -1.4967161678141505 [Eh]
	 SCS Correlation Energy    =      -1.6223944538479471 [Eh]
	 SCS Total Energy          =    -364.6950673306255908 [Eh]
	-----------------------------------------------------------

  Dipole Moment: [D]
     X:    -0.3161      Y:    -3.8778      Z:     0.2185     Total:     3.8968

*** Psi4 exiting successfully. Buy a developer a beer!
