                               Psi4 1.3.2 release

  ==> Input File <==

--------------------------------------------------------------------------
#psi4
#
memory 32 gb

molecule  {
0 1
  O       -0.0101440     2.0708820    -0.1140410
  N        0.2286985    -0.2954723    -0.4229309
  C       -0.4908340    -1.4342940    -0.0290780
  C       -1.9502640    -0.9583450    -0.0482810
  C       -1.8489090     0.4999680     0.4010950
  C       -0.4582930     0.9265630    -0.0509830
  C        1.6617300    -0.1844710    -0.6214880
  C        2.4978900    -0.3314020     0.6460640
  H       -0.2060500    -1.8213230     0.9608810
  H       -0.2853850    -2.2161620    -0.7686800
  H       -2.5951790    -1.5710950     0.5868370
  H       -2.3326610    -1.0086390    -1.0720610
  H       -1.8916900     0.5931740     1.4933710
  H       -2.6106570     1.1621840    -0.0164710
  H        1.8952280    -0.9774960    -1.3410860
  H        1.8622980     0.7788290    -1.0968800
  H        2.2724650     0.4877290     1.3331980
  H        2.2931660    -1.2799200     1.1504100
  H        3.5653110    -0.2984830     0.4074420
units angstrom
no_reorient  #important for SAPT in psi4, default
symmetry c1  #important for SAPT in psi4, default
}

set PROPERTIES_ORIGIN ["COM"]
properties('MP2/aug-cc-pvtz', properties = ['dipole'])
--------------------------------------------------------------------------

    Molecular point group: c1
  Charge       = 0
  Multiplicity = 1
  Basis Set: AUG-CC-PVTZ
    Blend: AUG-CC-PVTZ
  Basis Set: (AUG-CC-PVTZ AUX)
    Blend: AUG-CC-PVTZ-JKFIT

    Orbital Energies [Eh]
    ---------------------

    Doubly Occupied:

       1A    -20.527822     2A    -15.577072     3A    -11.352717
       4A    -11.267885     5A    -11.258561     6A    -11.242508
       7A    -11.241508     8A    -11.217848     9A     -1.370787
      10A     -1.259430    11A     -1.086372    12A     -1.000450
      13A     -0.965707    14A     -0.868697    15A     -0.822184
      16A     -0.728295    17A     -0.692553    18A     -0.669165
      19A     -0.638876    20A     -0.602150    21A     -0.590558
      22A     -0.579800    23A     -0.560612    24A     -0.553530
      25A     -0.525143    26A     -0.510809    27A     -0.506737
      28A     -0.491419    29A     -0.479224    30A     -0.414158
      31A     -0.365808

  @DF-RHF Final Energy:  -363.06495135297280

   => Energetics <=

    Nuclear Repulsion Energy =            393.4030568398022183
    One-Electron Energy =               -1272.9992418565025218
    Two-Electron Energy =                 516.5312336637274484
    Total Energy =                       -363.0649513529727983
  Basis Set: (AUG-CC-PVTZ AUX)
    Blend: AUG-CC-PVTZ-RI
    Molecular point group: c1

    Geometry (in Angstrom), charge = 0, multiplicity = 1:

       Center              X                  Y                   Z               Mass
    ------------   -----------------  -----------------  -----------------  -----------------
         O            0.007910654993     2.026640992345    -0.091679843281    15.994914619570
         N            0.246753154993    -0.339713307655    -0.400569743281    14.003074004430
         C           -0.472779345007    -1.478535007655    -0.006716843281    12.000000000000
         C           -1.932209345007    -1.002586007655    -0.025919843281    12.000000000000
         C           -1.830854345007     0.455726992345     0.423456156719    12.000000000000
         C           -0.440238345007     0.882321992345    -0.028621843281    12.000000000000
         C            1.679784654993    -0.228712007655    -0.599126843281    12.000000000000
         C            2.515944654993    -0.375643007655     0.668425156719    12.000000000000
         H           -0.187995345007    -1.865564007655     0.983242156719     1.007825032230
         H           -0.267330345007    -2.260403007655    -0.746318843281     1.007825032230
         H           -2.577124345007    -1.615336007655     0.609198156719     1.007825032230
         H           -2.314606345007    -1.052880007655    -1.049699843281     1.007825032230
         H           -1.873635345007     0.548932992345     1.515732156719     1.007825032230
         H           -2.592602345007     1.117942992345     0.005890156719     1.007825032230
         H            1.913282654993    -1.021737007655    -1.318724843281     1.007825032230
         H            1.880352654993     0.734587992345    -1.074518843281     1.007825032230
         H            2.290519654993     0.443487992345     1.355559156719     1.007825032230
         H            2.311220654993    -1.324161007655     1.172771156719     1.007825032230
         H            3.583365654993    -0.342724007655     0.429803156719     1.007825032230

  Basis Set: AUG-CC-PVTZ
    Blend: AUG-CC-PVTZ
  Basis Set: (AUG-CC-PVTZ AUX)
    Blend: AUG-CC-PVTZ-JKFIT
	 Reference Energy          =    -363.0649513529727983 [Eh]
	 Singles Energy            =      -0.0000000000000000 [Eh]
	 Same-Spin Energy          =      -0.3777128750991324 [Eh]
	 Opposite-Spin Energy      =      -1.2487748843188120 [Eh]
	 Correlation Energy        =      -1.6264877594179443 [Eh]
	 Total Energy              =    -364.6914391123907535 [Eh]

	 ================> DF-SCS-MP2 Energies <==================
	-----------------------------------------------------------
	 SCS Same-Spin Scale       =       0.3333333333333333 [-]
	 SCS Opposite-Spin Scale   =       1.2000000000000000 [-]
	 SCS Same-Spin Energy      =      -0.1259042916997108 [Eh]
	 SCS Opposite-Spin Energy  =      -1.4985298611825744 [Eh]
	 SCS Correlation Energy    =      -1.6244341528822852 [Eh]
	 SCS Total Energy          =    -364.6893855058550571 [Eh]
	-----------------------------------------------------------

  Dipole Moment: [D]
     X:    -0.5539      Y:    -3.4327      Z:     0.3884     Total:     3.4987

*** Psi4 exiting successfully. Buy a developer a beer!
