                               Psi4 1.3.2 release

  ==> Input File <==

--------------------------------------------------------------------------
#psi4
#
memory 32 gb

molecule  {
0 1
  O       -0.0101440     2.0708820    -0.1140410
  N        0.2351990    -0.2177110    -0.3583720
  C       -0.4976869    -1.4538688    -0.0121140
  C       -1.9502640    -0.9583450    -0.0482810
  C       -1.8489090     0.4999680     0.4010950
  C       -0.4582930     0.9265630    -0.0509830
  C        1.6617300    -0.1844710    -0.6214880
  C        2.4978900    -0.3314020     0.6460640
  H       -0.2060500    -1.8213230     0.9608810
  H       -0.2853850    -2.2161620    -0.7686800
  H       -2.5951790    -1.5710950     0.5868370
  H       -2.3326610    -1.0086390    -1.0720610
  H       -1.8916900     0.5931740     1.4933710
  H       -2.6106570     1.1621840    -0.0164710
  H        1.8952280    -0.9774960    -1.3410860
  H        1.8622980     0.7788290    -1.0968800
  H        2.2724650     0.4877290     1.3331980
  H        2.2931660    -1.2799200     1.1504100
  H        3.5653110    -0.2984830     0.4074420
units angstrom
no_reorient  #important for SAPT in psi4, default
symmetry c1  #important for SAPT in psi4, default
}

set PROPERTIES_ORIGIN ["COM"]
properties('MP2/aug-cc-pvtz', properties = ['dipole'])
--------------------------------------------------------------------------

    Molecular point group: c1
  Charge       = 0
  Multiplicity = 1
  Basis Set: AUG-CC-PVTZ
    Blend: AUG-CC-PVTZ
  Basis Set: (AUG-CC-PVTZ AUX)
    Blend: AUG-CC-PVTZ-JKFIT

    Orbital Energies [Eh]
    ---------------------

    Doubly Occupied:

       1A    -20.510713     2A    -15.580237     3A    -11.340499
       4A    -11.275145     5A    -11.260020     6A    -11.242876
       7A    -11.239889     8A    -11.218313     9A     -1.365490
      10A     -1.253637    11A     -1.087405    12A     -0.999355
      13A     -0.972911    14A     -0.869364    15A     -0.829189
      16A     -0.724794    17A     -0.693488    18A     -0.666044
      19A     -0.638588    20A     -0.603907    21A     -0.592024
      22A     -0.570652    23A     -0.562237    24A     -0.553937
      25A     -0.523169    26A     -0.512330    27A     -0.509945
      28A     -0.489106    29A     -0.478510    30A     -0.408485
      31A     -0.370025

  @DF-RHF Final Energy:  -363.07519900894488

   => Energetics <=

    Nuclear Repulsion Energy =            393.8696033240362340
    One-Electron Energy =               -1274.0050366446730550
    Two-Electron Energy =                 517.0602343116919428
    Total Energy =                       -363.0751990089448782
  Basis Set: (AUG-CC-PVTZ AUX)
    Blend: AUG-CC-PVTZ-RI
    Molecular point group: c1

    Geometry (in Angstrom), charge = 0, multiplicity = 1:

       Center              X                  Y                   Z               Mass
    ------------   -----------------  -----------------  -----------------  -----------------
         O            0.007832905908     2.019089091498    -0.101474247686    15.994914619570
         N            0.253175905908    -0.269503908502    -0.345805247686    14.003074004430
         C           -0.479709994092    -1.505661708502     0.000452752314    12.000000000000
         C           -1.932287094092    -1.010137908502    -0.035714247686    12.000000000000
         C           -1.830932094092     0.448175091498     0.413661752314    12.000000000000
         C           -0.440316094092     0.874770091498    -0.038416247686    12.000000000000
         C            1.679706905908    -0.236263908502    -0.608921247686    12.000000000000
         C            2.515866905908    -0.383194908502     0.658630752314    12.000000000000
         H           -0.188073094092    -1.873115908502     0.973447752314     1.007825032230
         H           -0.267408094092    -2.267954908502    -0.756113247686     1.007825032230
         H           -2.577202094092    -1.622887908502     0.599403752314     1.007825032230
         H           -2.314684094092    -1.060431908502    -1.059494247686     1.007825032230
         H           -1.873713094092     0.541381091498     1.505937752314     1.007825032230
         H           -2.592680094092     1.110391091498    -0.003904247686     1.007825032230
         H            1.913204905908    -1.029288908502    -1.328519247686     1.007825032230
         H            1.880274905908     0.727036091498    -1.084313247686     1.007825032230
         H            2.290441905908     0.435936091498     1.345764752314     1.007825032230
         H            2.311142905908    -1.331712908502     1.162976752314     1.007825032230
         H            3.583287905908    -0.350275908502     0.420008752314     1.007825032230

  Basis Set: AUG-CC-PVTZ
    Blend: AUG-CC-PVTZ
  Basis Set: (AUG-CC-PVTZ AUX)
    Blend: AUG-CC-PVTZ-JKFIT
	 Reference Energy          =    -363.0751990089448782 [Eh]
	 Singles Energy            =      -0.0000000000000000 [Eh]
	 Same-Spin Energy          =      -0.3767020388758982 [Eh]
	 Opposite-Spin Energy      =      -1.2470218276841001 [Eh]
	 Correlation Energy        =      -1.6237238665599982 [Eh]
	 Total Energy              =    -364.6989228755048771 [Eh]

	 ================> DF-SCS-MP2 Energies <==================
	-----------------------------------------------------------
	 SCS Same-Spin Scale       =       0.3333333333333333 [-]
	 SCS Opposite-Spin Scale   =       1.2000000000000000 [-]
	 SCS Same-Spin Energy      =      -0.1255673462919661 [Eh]
	 SCS Opposite-Spin Energy  =      -1.4964261932209200 [Eh]
	 SCS Correlation Energy    =      -1.6219935395128859 [Eh]
	 SCS Total Energy          =    -364.6971925484577923 [Eh]
	-----------------------------------------------------------

  Dipole Moment: [D]
     X:    -0.4829      Y:    -4.0048      Z:     0.2831     Total:     4.0438

*** Psi4 exiting successfully. Buy a developer a beer!
