                               Psi4 1.3.2 release

  ==> Input File <==

--------------------------------------------------------------------------
#psi4
#
memory 32 gb

molecule  {
0 1
  O       -0.0101440     2.0708820    -0.1140410
  N        0.2351990    -0.2177110    -0.3583720
  C       -0.4908340    -1.4342940    -0.0290780
  C       -1.9502640    -0.9583450    -0.0482810
  C       -1.8489090     0.4999680     0.4010950
  C       -0.4582930     0.9265630    -0.0509830
  C        1.6617300    -0.1844710    -0.6214880
  C        2.4978900    -0.3314020     0.6460640
  H       -0.2060500    -1.8213230     0.9608810
  H       -0.2853850    -2.2161620    -0.7686800
  H       -2.5951790    -1.5710950     0.5868370
  H       -2.3326610    -1.0086390    -1.0720610
  H       -1.8955895     0.6016698     1.5929331
  H       -2.6106570     1.1621840    -0.0164710
  H        1.8952280    -0.9774960    -1.3410860
  H        1.8622980     0.7788290    -1.0968800
  H        2.2724650     0.4877290     1.3331980
  H        2.2931660    -1.2799200     1.1504100
  H        3.5653110    -0.2984830     0.4074420
units angstrom
no_reorient  #important for SAPT in psi4, default
symmetry c1  #important for SAPT in psi4, default
}

set PROPERTIES_ORIGIN ["COM"]
properties('MP2/aug-cc-pvtz', properties = ['dipole'])
--------------------------------------------------------------------------

    Molecular point group: c1
  Charge       = 0
  Multiplicity = 1
  Basis Set: AUG-CC-PVTZ
    Blend: AUG-CC-PVTZ
  Basis Set: (AUG-CC-PVTZ AUX)
    Blend: AUG-CC-PVTZ-JKFIT

    Orbital Energies [Eh]
    ---------------------

    Doubly Occupied:

       1A    -20.511727     2A    -15.581414     3A    -11.342097
       4A    -11.275220     5A    -11.261163     6A    -11.251425
       7A    -11.243411     8A    -11.218748     9A     -1.367038
      10A     -1.258797    11A     -1.086609    12A     -0.999674
      13A     -0.969998    14A     -0.870484    15A     -0.825704
      16A     -0.725982    17A     -0.690165    18A     -0.668020
      19A     -0.639361    20A     -0.602614    21A     -0.583556
      22A     -0.571395    23A     -0.562127    24A     -0.554677
      25A     -0.523321    26A     -0.513304    27A     -0.509436
      28A     -0.490290    29A     -0.471573    30A     -0.409803
      31A     -0.369715

  @DF-RHF Final Energy:  -363.06938464604809

   => Energetics <=

    Nuclear Repulsion Energy =            393.8233635274716562
    One-Electron Energy =               -1273.8877977789729812
    Two-Electron Energy =                 516.9950496054532323
    Total Energy =                       -363.0693846460480927
  Basis Set: (AUG-CC-PVTZ AUX)
    Blend: AUG-CC-PVTZ-RI
    Molecular point group: c1

    Geometry (in Angstrom), charge = 0, multiplicity = 1:

       Center              X                  Y                   Z               Mass
    ------------   -----------------  -----------------  -----------------  -----------------
         O            0.007140458329     2.016936180899    -0.100561415058    15.994914619570
         N            0.252483458329    -0.271656819101    -0.344892415058    14.003074004430
         C           -0.473549541671    -1.488239819101    -0.015598415058    12.000000000000
         C           -1.932979541671    -1.012290819101    -0.034801415058    12.000000000000
         C           -1.831624541671     0.446022180899     0.414574584942    12.000000000000
         C           -0.441008541671     0.872617180899    -0.037503415058    12.000000000000
         C            1.679014458329    -0.238416819101    -0.608008415058    12.000000000000
         C            2.515174458329    -0.385347819101     0.659543584942    12.000000000000
         H           -0.188765541671    -1.875268819101     0.974360584942     1.007825032230
         H           -0.268100541671    -2.270107819101    -0.755200415058     1.007825032230
         H           -2.577894541671    -1.625040819101     0.600316584942     1.007825032230
         H           -2.315376541671    -1.062584819101    -1.058581415058     1.007825032230
         H           -1.878305041671     0.547723980899     1.606412684942     1.007825032230
         H           -2.593372541671     1.108238180899    -0.002991415058     1.007825032230
         H            1.912512458329    -1.031441819101    -1.327606415058     1.007825032230
         H            1.879582458329     0.724883180899    -1.083400415058     1.007825032230
         H            2.289749458329     0.433783180899     1.346677584942     1.007825032230
         H            2.310450458329    -1.333865819101     1.163889584942     1.007825032230
         H            3.582595458329    -0.352428819101     0.420921584942     1.007825032230

  Basis Set: AUG-CC-PVTZ
    Blend: AUG-CC-PVTZ
  Basis Set: (AUG-CC-PVTZ AUX)
    Blend: AUG-CC-PVTZ-JKFIT
	 Reference Energy          =    -363.0693846460480927 [Eh]
	 Singles Energy            =      -0.0000000000000000 [Eh]
	 Same-Spin Energy          =      -0.3768568643709460 [Eh]
	 Opposite-Spin Energy      =      -1.2476796874830121 [Eh]
	 Correlation Energy        =      -1.6245365518539581 [Eh]
	 Total Energy              =    -364.6939211979020570 [Eh]

	 ================> DF-SCS-MP2 Energies <==================
	-----------------------------------------------------------
	 SCS Same-Spin Scale       =       0.3333333333333333 [-]
	 SCS Opposite-Spin Scale   =       1.2000000000000000 [-]
	 SCS Same-Spin Energy      =      -0.1256189547903153 [Eh]
	 SCS Opposite-Spin Energy  =      -1.4972156249796145 [Eh]
	 SCS Correlation Energy    =      -1.6228345797699297 [Eh]
	 SCS Total Energy          =    -364.6922192258180075 [Eh]
	-----------------------------------------------------------

  Dipole Moment: [D]
     X:    -0.4516      Y:    -3.9655      Z:     0.2106     Total:     3.9967

*** Psi4 exiting successfully. Buy a developer a beer!
