                               Psi4 1.4a3.dev225

  ==> Input File <==

--------------------------------------------------------------------------
#psi4
#
memory 32 gb

molecule  {
0 1
  O       -0.0101440     2.0708820    -0.1140410
  N        0.2351990    -0.2177110    -0.3583720
  C       -0.5157918    -1.4761147    -0.0177583
  C       -1.9502640    -0.9583450    -0.0482810
  C       -1.8489090     0.4999680     0.4010950
  C       -0.4582930     0.9265630    -0.0509830
  C        1.6617300    -0.1844710    -0.6214880
  C        2.4978900    -0.3314020     0.6460640
  H       -0.2060500    -1.8213230     0.9608810
  H       -0.2853850    -2.2161620    -0.7686800
  H       -2.5951790    -1.5710950     0.5868370
  H       -2.3326610    -1.0086390    -1.0720610
  H       -1.8916900     0.5931740     1.4933710
  H       -2.6106570     1.1621840    -0.0164710
  H        1.8952280    -0.9774960    -1.3410860
  H        1.8622980     0.7788290    -1.0968800
  H        2.2724650     0.4877290     1.3331980
  H        2.2931660    -1.2799200     1.1504100
  H        3.5653110    -0.2984830     0.4074420
units angstrom
no_reorient  #important for SAPT in psi4, default
symmetry c1  #important for SAPT in psi4, default
}

set PROPERTIES_ORIGIN ["COM"]
properties('MP2/aug-cc-pvtz', properties = ['dipole'])
--------------------------------------------------------------------------

    Molecular point group: c1
  Charge       = 0
  Multiplicity = 1
  Basis Set: AUG-CC-PVTZ
    Blend: AUG-CC-PVTZ
  Basis Set: (AUG-CC-PVTZ AUX)
    Blend: AUG-CC-PVTZ-JKFIT

    Orbital Energies [Eh]
    ---------------------

    Doubly Occupied:

       1A    -20.509590     2A    -15.579355     3A    -11.339587
       4A    -11.276203     5A    -11.259258     6A    -11.243066
       7A    -11.240106     8A    -11.217785     9A     -1.363989
      10A     -1.248700    11A     -1.087805    12A     -0.998366
      13A     -0.974521    14A     -0.868212    15A     -0.829005
      16A     -0.722886    17A     -0.691764    18A     -0.666307
      19A     -0.638453    20A     -0.603264    21A     -0.592262
      22A     -0.571092    23A     -0.560122    24A     -0.553408
      25A     -0.522330    26A     -0.514945    27A     -0.510738
      28A     -0.488423    29A     -0.478409    30A     -0.407241
      31A     -0.369388

  @DF-RHF Final Energy:  -363.07363648919460

   => Energetics <=

    Nuclear Repulsion Energy =            393.4361126916039666
    One-Electron Energy =               -1273.1663446706274954
    Two-Electron Energy =                 516.6565954898288737
    Total Energy =                       -363.0736364891946550
  Basis Set: (AUG-CC-PVTZ AUX)
    Blend: AUG-CC-PVTZ-RI
    Molecular point group: c1

    Geometry (in Angstrom), charge = 0, multiplicity = 1:

       Center              X                  Y                   Z               Mass
    ------------   -----------------  -----------------  -----------------  -----------------
         O            0.009754120908     2.021449731809    -0.100875298572    15.994914619570
         N            0.255097120908    -0.267143268191    -0.345206298572    14.003074004430
         C           -0.495893679092    -1.525546968191    -0.004592598572    12.000000000000
         C           -1.930365879092    -1.007777268191    -0.035115298572    12.000000000000
         C           -1.829010879092     0.450535731809     0.414260701428    12.000000000000
         C           -0.438394879092     0.877130731809    -0.037817298572    12.000000000000
         C            1.681628120908    -0.233903268191    -0.608322298572    12.000000000000
         C            2.517788120908    -0.380834268191     0.659229701428    12.000000000000
         H           -0.186151879092    -1.870755268191     0.974046701428     1.007825032230
         H           -0.265486879092    -2.265594268191    -0.755514298572     1.007825032230
         H           -2.575280879092    -1.620527268191     0.600002701428     1.007825032230
         H           -2.312762879092    -1.058071268191    -1.058895298572     1.007825032230
         H           -1.871791879092     0.543741731809     1.506536701428     1.007825032230
         H           -2.590758879092     1.112751731809    -0.003305298572     1.007825032230
         H            1.915126120908    -1.026928268191    -1.327920298572     1.007825032230
         H            1.882196120908     0.729396731809    -1.083714298572     1.007825032230
         H            2.292363120908     0.438296731809     1.346363701428     1.007825032230
         H            2.313064120908    -1.329352268191     1.163575701428     1.007825032230
         H            3.585209120908    -0.347915268191     0.420607701428     1.007825032230

  Basis Set: AUG-CC-PVTZ
    Blend: AUG-CC-PVTZ
  Basis Set: (AUG-CC-PVTZ AUX)
    Blend: AUG-CC-PVTZ-JKFIT
	 Reference Energy          =    -363.0736364891945982 [Eh]
	 Singles Energy            =      -0.0000000000000000 [Eh]
	 Same-Spin Energy          =      -0.3766885256282350 [Eh]
	 Opposite-Spin Energy      =      -1.2471991225663106 [Eh]
	 Correlation Energy        =      -1.6238876481945455 [Eh]
	 Total Energy              =    -364.6975241373891663 [Eh]

	 ================> DF-SCS-MP2 Energies <==================
	-----------------------------------------------------------
	 SCS Same-Spin Scale       =       0.3333333333333333 [-]
	 SCS Opposite-Spin Scale   =       1.2000000000000000 [-]
	 SCS Same-Spin Energy      =      -0.1255628418760783 [Eh]
	 SCS Opposite-Spin Energy  =      -1.4966389470795727 [Eh]
	 SCS Correlation Energy    =      -1.6222017889556510 [Eh]
	 SCS Total Energy          =    -364.6958382781502337 [Eh]
	-----------------------------------------------------------

  Dipole Moment: [D]
     X:    -0.5127      Y:    -4.0743      Z:     0.2787     Total:     4.1159

*** Psi4 exiting successfully. Buy a developer a beer!
