                               Psi4 1.3.2 release

  ==> Input File <==

--------------------------------------------------------------------------
#psi4
#
memory 32 gb

molecule  {
0 1
  O       -0.0478254     2.0856270    -0.0996323
  N        0.2351990    -0.2177110    -0.3583720
  C       -0.4908340    -1.4342940    -0.0290780
  C       -1.9502640    -0.9583450    -0.0482810
  C       -1.8489090     0.4999680     0.4010950
  C       -0.4582930     0.9265630    -0.0509830
  C        1.6617300    -0.1844710    -0.6214880
  C        2.4978900    -0.3314020     0.6460640
  H       -0.2060500    -1.8213230     0.9608810
  H       -0.2853850    -2.2161620    -0.7686800
  H       -2.5951790    -1.5710950     0.5868370
  H       -2.3326610    -1.0086390    -1.0720610
  H       -1.8916900     0.5931740     1.4933710
  H       -2.6106570     1.1621840    -0.0164710
  H        1.8952280    -0.9774960    -1.3410860
  H        1.8622980     0.7788290    -1.0968800
  H        2.2724650     0.4877290     1.3331980
  H        2.2931660    -1.2799200     1.1504100
  H        3.5653110    -0.2984830     0.4074420
units angstrom
no_reorient  #important for SAPT in psi4, default
symmetry c1  #important for SAPT in psi4, default
}

set PROPERTIES_ORIGIN ["COM"]
properties('MP2/aug-cc-pvtz', properties = ['dipole'])
--------------------------------------------------------------------------

    Molecular point group: c1
  Charge       = 0
  Multiplicity = 1
  Basis Set: AUG-CC-PVTZ
    Blend: AUG-CC-PVTZ
  Basis Set: (AUG-CC-PVTZ AUX)
    Blend: AUG-CC-PVTZ-JKFIT

    Orbital Energies [Eh]
    ---------------------

    Doubly Occupied:

       1A    -20.512095     2A    -15.582793     3A    -11.341392
       4A    -11.275493     5A    -11.262231     6A    -11.241653
       7A    -11.237852     8A    -11.219507     9A     -1.366306
      10A     -1.260353    11A     -1.087658    12A     -1.001078
      13A     -0.971854    14A     -0.870918    15A     -0.829349
      16A     -0.726994    17A     -0.693407    18A     -0.667708
      19A     -0.639439    20A     -0.605028    21A     -0.589393
      22A     -0.572749    23A     -0.563424    24A     -0.554543
      25A     -0.523363    26A     -0.513897    27A     -0.509505
      28A     -0.490830    29A     -0.476862    30A     -0.408307
      31A     -0.370904

  @DF-RHF Final Energy:  -363.07576224656947

   => Energetics <=

    Nuclear Repulsion Energy =            394.0457204015227717
    One-Electron Energy =               -1274.3091961712898410
    Two-Electron Energy =                 517.1877135231975444
    Total Energy =                       -363.0757622465695249
  Basis Set: (AUG-CC-PVTZ AUX)
    Blend: AUG-CC-PVTZ-RI
    Molecular point group: c1

    Geometry (in Angstrom), charge = 0, multiplicity = 1:

       Center              X                  Y                   Z               Mass
    ------------   -----------------  -----------------  -----------------  -----------------
         O           -0.025245935983     2.029671324442    -0.087303405483    15.994914619570
         N            0.257778464017    -0.273666675558    -0.346043105483    14.003074004430
         C           -0.468254535983    -1.490249675558    -0.016749105483    12.000000000000
         C           -1.927684535983    -1.014300675558    -0.035952105483    12.000000000000
         C           -1.826329535983     0.444012324442     0.413423894517    12.000000000000
         C           -0.435713535983     0.870607324442    -0.038654105483    12.000000000000
         C            1.684309464017    -0.240426675558    -0.609159105483    12.000000000000
         C            2.520469464017    -0.387357675558     0.658392894517    12.000000000000
         H           -0.183470535983    -1.877278675558     0.973209894517     1.007825032230
         H           -0.262805535983    -2.272117675558    -0.756351105483     1.007825032230
         H           -2.572599535983    -1.627050675558     0.599165894517     1.007825032230
         H           -2.310081535983    -1.064594675558    -1.059732105483     1.007825032230
         H           -1.869110535983     0.537218324442     1.505699894517     1.007825032230
         H           -2.588077535983     1.106228324442    -0.004142105483     1.007825032230
         H            1.917807464017    -1.033451675558    -1.328757105483     1.007825032230
         H            1.884877464017     0.722873324442    -1.084551105483     1.007825032230
         H            2.295044464017     0.431773324442     1.345526894517     1.007825032230
         H            2.315745464017    -1.335875675558     1.162738894517     1.007825032230
         H            3.587890464017    -0.354438675558     0.419770894517     1.007825032230

  Basis Set: AUG-CC-PVTZ
    Blend: AUG-CC-PVTZ
  Basis Set: (AUG-CC-PVTZ AUX)
    Blend: AUG-CC-PVTZ-JKFIT
	 Reference Energy          =    -363.0757622465694681 [Eh]
	 Singles Energy            =      -0.0000000000000000 [Eh]
	 Same-Spin Energy          =      -0.3767157572469318 [Eh]
	 Opposite-Spin Energy      =      -1.2468986655781769 [Eh]
	 Correlation Energy        =      -1.6236144228251086 [Eh]
	 Total Energy              =    -364.6993766693945531 [Eh]

	 ================> DF-SCS-MP2 Energies <==================
	-----------------------------------------------------------
	 SCS Same-Spin Scale       =       0.3333333333333333 [-]
	 SCS Opposite-Spin Scale   =       1.2000000000000000 [-]
	 SCS Same-Spin Energy      =      -0.1255719190823106 [Eh]
	 SCS Opposite-Spin Energy  =      -1.4962783986938122 [Eh]
	 SCS Correlation Energy    =      -1.6218503177761228 [Eh]
	 SCS Total Energy          =    -364.6976125643456044 [Eh]
	-----------------------------------------------------------

  Dipole Moment: [D]
     X:    -0.3541      Y:    -3.9825      Z:     0.2217     Total:     4.0044

*** Psi4 exiting successfully. Buy a developer a beer!
