                               Psi4 1.3.2 release

  ==> Input File <==

--------------------------------------------------------------------------
#psi4
#
memory 32 gb

molecule  {
0 1
  O       -0.0101440     2.0708820    -0.1140410
  N        0.2351990    -0.2177110    -0.3583720
  C       -0.4908340    -1.4342940    -0.0290780
  C       -1.8019805    -0.9419778    -0.1063282
  C       -1.8489090     0.4999680     0.4010950
  C       -0.4582930     0.9265630    -0.0509830
  C        1.6617300    -0.1844710    -0.6214880
  C        2.4978900    -0.3314020     0.6460640
  H       -0.2060500    -1.8213230     0.9608810
  H       -0.2853850    -2.2161620    -0.7686800
  H       -2.5951790    -1.5710950     0.5868370
  H       -2.3326610    -1.0086390    -1.0720610
  H       -1.8916900     0.5931740     1.4933710
  H       -2.6106570     1.1621840    -0.0164710
  H        1.8952280    -0.9774960    -1.3410860
  H        1.8622980     0.7788290    -1.0968800
  H        2.2724650     0.4877290     1.3331980
  H        2.2931660    -1.2799200     1.1504100
  H        3.5653110    -0.2984830     0.4074420
units angstrom
no_reorient  #important for SAPT in psi4, default
symmetry c1  #important for SAPT in psi4, default
}

set PROPERTIES_ORIGIN ["COM"]
properties('MP2/aug-cc-pvtz', properties = ['dipole'])
--------------------------------------------------------------------------

    Molecular point group: c1
  Charge       = 0
  Multiplicity = 1
  Basis Set: AUG-CC-PVTZ
    Blend: AUG-CC-PVTZ
  Basis Set: (AUG-CC-PVTZ AUX)
    Blend: AUG-CC-PVTZ-JKFIT

    Orbital Energies [Eh]
    ---------------------

    Doubly Occupied:

       1A    -20.510883     2A    -15.581447     3A    -11.340369
       4A    -11.270378     5A    -11.260832     6A    -11.247821
       7A    -11.240927     8A    -11.219345     9A     -1.367960
      10A     -1.268026    11A     -1.098309    12A     -0.998845
      13A     -0.988479    14A     -0.867067    15A     -0.823322
      16A     -0.729014    17A     -0.697074    18A     -0.678340
      19A     -0.637583    20A     -0.601712    21A     -0.596788
      22A     -0.574958    23A     -0.567551    24A     -0.551536
      25A     -0.532315    26A     -0.511530    27A     -0.503147
      28A     -0.493035    29A     -0.464070    30A     -0.402996
      31A     -0.371223

  @DF-RHF Final Energy:  -363.04684719079751

   => Energetics <=

    Nuclear Repulsion Energy =            396.8767308877579012
    One-Electron Energy =               -1279.8533911216102297
    Two-Electron Energy =                 519.9298130430547644
    Total Energy =                       -363.0468471907975072
  Basis Set: (AUG-CC-PVTZ AUX)
    Blend: AUG-CC-PVTZ-RI
    Molecular point group: c1

    Geometry (in Angstrom), charge = 0, multiplicity = 1:

       Center              X                  Y                   Z               Mass
    ------------   -----------------  -----------------  -----------------  -----------------
         O           -0.008629509171     2.015275079294    -0.093514378114    15.994914619570
         N            0.236713490829    -0.273317920706    -0.337845378114    14.003074004430
         C           -0.489319509171    -1.489900920706    -0.008551378114    12.000000000000
         C           -1.800466009171    -0.997584720706    -0.085801578114    12.000000000000
         C           -1.847394509171     0.444361079294     0.421621621886    12.000000000000
         C           -0.456778509171     0.870956079294    -0.030456378114    12.000000000000
         C            1.663244490829    -0.240077920706    -0.600961378114    12.000000000000
         C            2.499404490829    -0.387008920706     0.666590621886    12.000000000000
         H           -0.204535509171    -1.876929920706     0.981407621886     1.007825032230
         H           -0.283870509171    -2.271768920706    -0.748153378114     1.007825032230
         H           -2.593664509171    -1.626701920706     0.607363621886     1.007825032230
         H           -2.331146509171    -1.064245920706    -1.051534378114     1.007825032230
         H           -1.890175509171     0.537567079294     1.513897621886     1.007825032230
         H           -2.609142509171     1.106577079294     0.004055621886     1.007825032230
         H            1.896742490829    -1.033102920706    -1.320559378114     1.007825032230
         H            1.863812490829     0.723222079294    -1.076353378114     1.007825032230
         H            2.273979490829     0.432122079294     1.353724621886     1.007825032230
         H            2.294680490829    -1.335526920706     1.170936621886     1.007825032230
         H            3.566825490829    -0.354089920706     0.427968621886     1.007825032230

  Basis Set: AUG-CC-PVTZ
    Blend: AUG-CC-PVTZ
  Basis Set: (AUG-CC-PVTZ AUX)
    Blend: AUG-CC-PVTZ-JKFIT
	 Reference Energy          =    -363.0468471907975072 [Eh]
	 Singles Energy            =      -0.0000000000000000 [Eh]
	 Same-Spin Energy          =      -0.3784138169082593 [Eh]
	 Opposite-Spin Energy      =      -1.2490605352167363 [Eh]
	 Correlation Energy        =      -1.6274743521249957 [Eh]
	 Total Energy              =    -364.6743215429224847 [Eh]

	 ================> DF-SCS-MP2 Energies <==================
	-----------------------------------------------------------
	 SCS Same-Spin Scale       =       0.3333333333333333 [-]
	 SCS Opposite-Spin Scale   =       1.2000000000000000 [-]
	 SCS Same-Spin Energy      =      -0.1261379389694197 [Eh]
	 SCS Opposite-Spin Energy  =      -1.4988726422600835 [Eh]
	 SCS Correlation Energy    =      -1.6250105812295033 [Eh]
	 SCS Total Energy          =    -364.6718577720270105 [Eh]
	-----------------------------------------------------------

  Dipole Moment: [D]
     X:    -0.3754      Y:    -3.8734      Z:     0.1987     Total:     3.8966

*** Psi4 exiting successfully. Buy a developer a beer!
