                               Psi4 1.4a3.dev225

  ==> Input File <==

--------------------------------------------------------------------------
#psi4
#
memory 32 gb

molecule  {
0 1
  O       -0.0101440     2.0708820    -0.1140410
  N        0.2351990    -0.2177110    -0.3583720
  C       -0.4908340    -1.4342940    -0.0290780
  C       -1.9502640    -0.9583450    -0.0482810
  C       -1.8489090     0.4999680     0.4010950
  C       -0.4683958     0.9432328    -0.0465050
  C        1.6617300    -0.1844710    -0.6214880
  C        2.4978900    -0.3314020     0.6460640
  H       -0.2060500    -1.8213230     0.9608810
  H       -0.2853850    -2.2161620    -0.7686800
  H       -2.5951790    -1.5710950     0.5868370
  H       -2.3326610    -1.0086390    -1.0720610
  H       -1.8916900     0.5931740     1.4933710
  H       -2.6106570     1.1621840    -0.0164710
  H        1.8952280    -0.9774960    -1.3410860
  H        1.8622980     0.7788290    -1.0968800
  H        2.2724650     0.4877290     1.3331980
  H        2.2931660    -1.2799200     1.1504100
  H        3.5653110    -0.2984830     0.4074420
units angstrom
no_reorient  #important for SAPT in psi4, default
symmetry c1  #important for SAPT in psi4, default
}

set PROPERTIES_ORIGIN ["COM"]
properties('MP2/aug-cc-pvtz', properties = ['dipole'])
--------------------------------------------------------------------------

    Molecular point group: c1
  Charge       = 0
  Multiplicity = 1
  Basis Set: AUG-CC-PVTZ
    Blend: AUG-CC-PVTZ
  Basis Set: (AUG-CC-PVTZ AUX)
    Blend: AUG-CC-PVTZ-JKFIT

    Orbital Energies [Eh]
    ---------------------

    Doubly Occupied:

       1A    -20.515678     2A    -15.577336     3A    -11.342640
       4A    -11.273145     5A    -11.259155     6A    -11.242359
       7A    -11.240454     8A    -11.217374     9A     -1.374017
      10A     -1.254726    11A     -1.087013    12A     -0.998279
      13A     -0.971052    14A     -0.868163    15A     -0.827322
      16A     -0.725702    17A     -0.691473    18A     -0.667955
      19A     -0.639696    20A     -0.603569    21A     -0.589498
      22A     -0.574144    23A     -0.563818    24A     -0.555884
      25A     -0.522512    26A     -0.512069    27A     -0.509067
      28A     -0.489074    29A     -0.479113    30A     -0.411561
      31A     -0.367388

  @DF-RHF Final Energy:  -363.07579506081834

   => Energetics <=

    Nuclear Repulsion Energy =            394.1164799792047120
    One-Electron Energy =               -1274.4820758604391813
    Two-Electron Energy =                 517.2898008204160760
    Total Energy =                       -363.0757950608183364
  Basis Set: (AUG-CC-PVTZ AUX)
    Blend: AUG-CC-PVTZ-RI
    Molecular point group: c1

    Geometry (in Angstrom), charge = 0, multiplicity = 1:

       Center              X                  Y                   Z               Mass
    ------------   -----------------  -----------------  -----------------  -----------------
         O            0.008177771476     2.015242968669    -0.100149286461    15.994914619570
         N            0.253520771476    -0.273350031331    -0.344480286461    14.003074004430
         C           -0.472512228524    -1.489933031331    -0.015186286461    12.000000000000
         C           -1.931942228524    -1.013984031331    -0.034389286461    12.000000000000
         C           -1.830587228524     0.444328968669     0.414986713539    12.000000000000
         C           -0.450074028524     0.887593768669    -0.032613286461    12.000000000000
         C            1.680051771476    -0.240110031331    -0.607596286461    12.000000000000
         C            2.516211771476    -0.387041031331     0.659955713539    12.000000000000
         H           -0.187728228524    -1.876962031331     0.974772713539     1.007825032230
         H           -0.267063228524    -2.271801031331    -0.754788286461     1.007825032230
         H           -2.576857228524    -1.626734031331     0.600728713539     1.007825032230
         H           -2.314339228524    -1.064278031331    -1.058169286461     1.007825032230
         H           -1.873368228524     0.537534968669     1.507262713539     1.007825032230
         H           -2.592335228524     1.106544968669    -0.002579286461     1.007825032230
         H            1.913549771476    -1.033135031331    -1.327194286461     1.007825032230
         H            1.880619771476     0.723189968669    -1.082988286461     1.007825032230
         H            2.290786771476     0.432089968669     1.347089713539     1.007825032230
         H            2.311487771476    -1.335559031331     1.164301713539     1.007825032230
         H            3.583632771476    -0.354122031331     0.421333713539     1.007825032230

  Basis Set: AUG-CC-PVTZ
    Blend: AUG-CC-PVTZ
  Basis Set: (AUG-CC-PVTZ AUX)
    Blend: AUG-CC-PVTZ-JKFIT
	 Reference Energy          =    -363.0757950608183364 [Eh]
	 Singles Energy            =      -0.0000000000000000 [Eh]
	 Same-Spin Energy          =      -0.3766871386949608 [Eh]
	 Opposite-Spin Energy      =      -1.2467087914615191 [Eh]
	 Correlation Energy        =      -1.6233959301564800 [Eh]
	 Total Energy              =    -364.6991909909748415 [Eh]

	 ================> DF-SCS-MP2 Energies <==================
	-----------------------------------------------------------
	 SCS Same-Spin Scale       =       0.3333333333333333 [-]
	 SCS Opposite-Spin Scale   =       1.2000000000000000 [-]
	 SCS Same-Spin Energy      =      -0.1255623795649869 [Eh]
	 SCS Opposite-Spin Energy  =      -1.4960505497538230 [Eh]
	 SCS Correlation Energy    =      -1.6216129293188100 [Eh]
	 SCS Total Energy          =    -364.6974079901371510 [Eh]
	-----------------------------------------------------------

  Dipole Moment: [D]
     X:    -0.5324      Y:    -3.7864      Z:     0.2743     Total:     3.8334

*** Psi4 exiting successfully. Buy a developer a beer!
