                               Psi4 1.3.2 release

  ==> Input File <==

--------------------------------------------------------------------------
#psi4
#
memory 32 gb

molecule  {
0 1
  O       -0.0101440     2.0708820    -0.1140410
  N        0.2351990    -0.2177110    -0.3583720
  C       -0.4908340    -1.4342940    -0.0290780
  C       -1.9502640    -0.9583450    -0.0482810
  C       -1.8653521     0.4946021     0.4214243
  C       -0.4582930     0.9265630    -0.0509830
  C        1.6617300    -0.1844710    -0.6214880
  C        2.4978900    -0.3314020     0.6460640
  H       -0.2060500    -1.8213230     0.9608810
  H       -0.2853850    -2.2161620    -0.7686800
  H       -2.5951790    -1.5710950     0.5868370
  H       -2.3326610    -1.0086390    -1.0720610
  H       -1.8916900     0.5931740     1.4933710
  H       -2.6106570     1.1621840    -0.0164710
  H        1.8952280    -0.9774960    -1.3410860
  H        1.8622980     0.7788290    -1.0968800
  H        2.2724650     0.4877290     1.3331980
  H        2.2931660    -1.2799200     1.1504100
  H        3.5653110    -0.2984830     0.4074420
units angstrom
no_reorient  #important for SAPT in psi4, default
symmetry c1  #important for SAPT in psi4, default
}

set PROPERTIES_ORIGIN ["COM"]
properties('MP2/aug-cc-pvtz', properties = ['dipole'])
--------------------------------------------------------------------------

    Molecular point group: c1
  Charge       = 0
  Multiplicity = 1
  Basis Set: AUG-CC-PVTZ
    Blend: AUG-CC-PVTZ
  Basis Set: (AUG-CC-PVTZ AUX)
    Blend: AUG-CC-PVTZ-JKFIT

    Orbital Energies [Eh]
    ---------------------

    Doubly Occupied:

       1A    -20.511989     2A    -15.581051     3A    -11.342058
       4A    -11.274923     5A    -11.261041     6A    -11.242323
       7A    -11.239397     8A    -11.218739     9A     -1.366412
      10A     -1.257978    11A     -1.086915    12A     -1.000840
      13A     -0.970330    14A     -0.869964    15A     -0.829762
      16A     -0.725379    17A     -0.693489    18A     -0.667148
      19A     -0.638910    20A     -0.605567    21A     -0.590935
      22A     -0.572076    23A     -0.562365    24A     -0.552455
      25A     -0.522633    26A     -0.513130    27A     -0.510553
      28A     -0.490413    29A     -0.480688    30A     -0.407156
      31A     -0.369358

  @DF-RHF Final Energy:  -363.07531045253251

   => Energetics <=

    Nuclear Repulsion Energy =            393.9138699122549383
    One-Electron Energy =               -1274.0664083268882223
    Two-Electron Energy =                 517.0772279621007783
    Total Energy =                       -363.0753104525324488
  Basis Set: (AUG-CC-PVTZ AUX)
    Blend: AUG-CC-PVTZ-RI
    Molecular point group: c1

    Geometry (in Angstrom), charge = 0, multiplicity = 1:

       Center              X                  Y                   Z               Mass
    ------------   -----------------  -----------------  -----------------  -----------------
         O            0.008850577151     2.017581303450    -0.101831359012    15.994914619570
         N            0.254193577151    -0.271011696550    -0.346162359012    14.003074004430
         C           -0.471839422849    -1.487594696550    -0.016868359012    12.000000000000
         C           -1.931269422849    -1.011645696550    -0.036071359012    12.000000000000
         C           -1.846357522849     0.441301403450     0.433633940988    12.000000000000
         C           -0.439298422849     0.873262303450    -0.038773359012    12.000000000000
         C            1.680724577151    -0.237771696550    -0.609278359012    12.000000000000
         C            2.516884577151    -0.384702696550     0.658273640988    12.000000000000
         H           -0.187055422849    -1.874623696550     0.973090640988     1.007825032230
         H           -0.266390422849    -2.269462696550    -0.756470359012     1.007825032230
         H           -2.576184422849    -1.624395696550     0.599046640988     1.007825032230
         H           -2.313666422849    -1.061939696550    -1.059851359012     1.007825032230
         H           -1.872695422849     0.539873303450     1.505580640988     1.007825032230
         H           -2.591662422849     1.108883303450    -0.004261359012     1.007825032230
         H            1.914222577151    -1.030796696550    -1.328876359012     1.007825032230
         H            1.881292577151     0.725528303450    -1.084670359012     1.007825032230
         H            2.291459577151     0.434428303450     1.345407640988     1.007825032230
         H            2.312160577151    -1.333220696550     1.162619640988     1.007825032230
         H            3.584305577151    -0.351783696550     0.419651640988     1.007825032230

  Basis Set: AUG-CC-PVTZ
    Blend: AUG-CC-PVTZ
  Basis Set: (AUG-CC-PVTZ AUX)
    Blend: AUG-CC-PVTZ-JKFIT
	 Reference Energy          =    -363.0753104525325057 [Eh]
	 Singles Energy            =      -0.0000000000000000 [Eh]
	 Same-Spin Energy          =      -0.3767185129694240 [Eh]
	 Opposite-Spin Energy      =      -1.2469251196368707 [Eh]
	 Correlation Energy        =      -1.6236436326062949 [Eh]
	 Total Energy              =    -364.6989540851387801 [Eh]

	 ================> DF-SCS-MP2 Energies <==================
	-----------------------------------------------------------
	 SCS Same-Spin Scale       =       0.3333333333333333 [-]
	 SCS Opposite-Spin Scale   =       1.2000000000000000 [-]
	 SCS Same-Spin Energy      =      -0.1255728376564747 [Eh]
	 SCS Opposite-Spin Energy  =      -1.4963101435642447 [Eh]
	 SCS Correlation Energy    =      -1.6218829812207194 [Eh]
	 SCS Total Energy          =    -364.6971934337532275 [Eh]
	-----------------------------------------------------------

  Dipole Moment: [D]
     X:    -0.4301      Y:    -3.9329      Z:     0.2529     Total:     3.9644

*** Psi4 exiting successfully. Buy a developer a beer!
