                               Psi4 1.3.2 release

  ==> Input File <==

--------------------------------------------------------------------------
#psi4
#
memory 32 gb

molecule  {
0 1
  O       -0.0101440     2.0708820    -0.1140410
  N        0.2351990    -0.2177110    -0.3583720
  C       -0.4908340    -1.4342940    -0.0290780
  C       -1.9502640    -0.9583450    -0.0482810
  C       -1.8818212     0.4887937     0.4416104
  C       -0.4582930     0.9265630    -0.0509830
  C        1.6617300    -0.1844710    -0.6214880
  C        2.4978900    -0.3314020     0.6460640
  H       -0.2060500    -1.8213230     0.9608810
  H       -0.2853850    -2.2161620    -0.7686800
  H       -2.5951790    -1.5710950     0.5868370
  H       -2.3326610    -1.0086390    -1.0720610
  H       -1.8916900     0.5931740     1.4933710
  H       -2.6106570     1.1621840    -0.0164710
  H        1.8952280    -0.9774960    -1.3410860
  H        1.8622980     0.7788290    -1.0968800
  H        2.2724650     0.4877290     1.3331980
  H        2.2931660    -1.2799200     1.1504100
  H        3.5653110    -0.2984830     0.4074420
units angstrom
no_reorient  #important for SAPT in psi4, default
symmetry c1  #important for SAPT in psi4, default
}

set PROPERTIES_ORIGIN ["COM"]
properties('MP2/aug-cc-pvtz', properties = ['dipole'])
--------------------------------------------------------------------------

    Molecular point group: c1
  Charge       = 0
  Multiplicity = 1
  Basis Set: AUG-CC-PVTZ
    Blend: AUG-CC-PVTZ
  Basis Set: (AUG-CC-PVTZ AUX)
    Blend: AUG-CC-PVTZ-JKFIT

    Orbital Energies [Eh]
    ---------------------

    Doubly Occupied:

       1A    -20.512361     2A    -15.581130     3A    -11.342698
       4A    -11.274965     5A    -11.261165     6A    -11.242296
       7A    -11.239004     8A    -11.218817     9A     -1.365990
      10A     -1.257498    11A     -1.086058    12A     -1.001186
      13A     -0.968763    14A     -0.869710    15A     -0.830203
      16A     -0.724422    17A     -0.693752    18A     -0.666568
      19A     -0.638470    20A     -0.607016    21A     -0.592246
      22A     -0.572123    23A     -0.561589    24A     -0.549990
      25A     -0.522334    26A     -0.513203    27A     -0.511526
      28A     -0.490700    29A     -0.483407    30A     -0.404718
      31A     -0.369174

  @DF-RHF Final Energy:  -363.07328052817013

   => Energetics <=

    Nuclear Repulsion Energy =            393.5451142633220343
    One-Electron Energy =               -1273.3306216904841222
    Two-Electron Energy =                 516.7122268989919576
    Total Energy =                       -363.0732805281701303
  Basis Set: (AUG-CC-PVTZ AUX)
    Blend: AUG-CC-PVTZ-RI
    Molecular point group: c1

    Geometry (in Angstrom), charge = 0, multiplicity = 1:

       Center              X                  Y                   Z               Mass
    ------------   -----------------  -----------------  -----------------  -----------------
         O            0.010598208011     2.018197666159    -0.103973422106    15.994914619570
         N            0.255941208011    -0.270395333841    -0.348304422106    14.003074004430
         C           -0.470091791989    -1.486978333841    -0.019010422106    12.000000000000
         C           -1.929521791989    -1.011029333841    -0.038213422106    12.000000000000
         C           -1.861078991989     0.436109366159     0.451677977894    12.000000000000
         C           -0.437550791989     0.873878666159    -0.040915422106    12.000000000000
         C            1.682472208011    -0.237155333841    -0.611420422106    12.000000000000
         C            2.518632208011    -0.384086333841     0.656131577894    12.000000000000
         H           -0.185307791989    -1.874007333841     0.970948577894     1.007825032230
         H           -0.264642791989    -2.268846333841    -0.758612422106     1.007825032230
         H           -2.574436791989    -1.623779333841     0.596904577894     1.007825032230
         H           -2.311918791989    -1.061323333841    -1.061993422106     1.007825032230
         H           -1.870947791989     0.540489666159     1.503438577894     1.007825032230
         H           -2.589914791989     1.109499666159    -0.006403422106     1.007825032230
         H            1.915970208011    -1.030180333841    -1.331018422106     1.007825032230
         H            1.883040208011     0.726144666159    -1.086812422106     1.007825032230
         H            2.293207208011     0.435044666159     1.343265577894     1.007825032230
         H            2.313908208011    -1.332604333841     1.160477577894     1.007825032230
         H            3.586053208011    -0.351167333841     0.417509577894     1.007825032230

  Basis Set: AUG-CC-PVTZ
    Blend: AUG-CC-PVTZ
  Basis Set: (AUG-CC-PVTZ AUX)
    Blend: AUG-CC-PVTZ-JKFIT
	 Reference Energy          =    -363.0732805281701303 [Eh]
	 Singles Energy            =      -0.0000000000000000 [Eh]
	 Same-Spin Energy          =      -0.3767057102866932 [Eh]
	 Opposite-Spin Energy      =      -1.2470286853101633 [Eh]
	 Correlation Energy        =      -1.6237343955968564 [Eh]
	 Total Energy              =    -364.6970149237669716 [Eh]

	 ================> DF-SCS-MP2 Energies <==================
	-----------------------------------------------------------
	 SCS Same-Spin Scale       =       0.3333333333333333 [-]
	 SCS Opposite-Spin Scale   =       1.2000000000000000 [-]
	 SCS Same-Spin Energy      =      -0.1255685700955644 [Eh]
	 SCS Opposite-Spin Energy  =      -1.4964344223721959 [Eh]
	 SCS Correlation Energy    =      -1.6220029924677604 [Eh]
	 SCS Total Energy          =    -364.6952835206378722 [Eh]
	-----------------------------------------------------------

  Dipole Moment: [D]
     X:    -0.3968      Y:    -3.9200      Z:     0.2513     Total:     3.9480

*** Psi4 exiting successfully. Buy a developer a beer!
