                               Psi4 1.3.2 release

  ==> Input File <==

--------------------------------------------------------------------------
#psi4
#
memory 32 gb

molecule  {
0 1
  O       -0.0101440     2.0708820    -0.1140410
  N        0.2351990    -0.2177110    -0.3583720
  C       -0.4908340    -1.4342940    -0.0290780
  C       -1.9502640    -0.9583450    -0.0482810
  C       -1.8489090     0.4999680     0.4010950
  C       -0.4582930     0.9265630    -0.0509830
  C        1.6617300    -0.1844710    -0.6214880
  C        2.4978900    -0.3314020     0.6460640
  H       -0.2060500    -1.8213230     0.9608810
  H       -0.2853850    -2.2161620    -0.7686800
  H       -2.5843704    -1.5665701     0.6018913
  H       -2.3326610    -1.0086390    -1.0720610
  H       -1.8916900     0.5931740     1.4933710
  H       -2.6106570     1.1621840    -0.0164710
  H        1.8952280    -0.9774960    -1.3410860
  H        1.8622980     0.7788290    -1.0968800
  H        2.2724650     0.4877290     1.3331980
  H        2.2931660    -1.2799200     1.1504100
  H        3.5653110    -0.2984830     0.4074420
units angstrom
no_reorient  #important for SAPT in psi4, default
symmetry c1  #important for SAPT in psi4, default
}

set PROPERTIES_ORIGIN ["COM"]
properties('MP2/aug-cc-pvtz', properties = ['dipole'])
--------------------------------------------------------------------------

    Molecular point group: c1
  Charge       = 0
  Multiplicity = 1
  Basis Set: AUG-CC-PVTZ
    Blend: AUG-CC-PVTZ
  Basis Set: (AUG-CC-PVTZ AUX)
    Blend: AUG-CC-PVTZ-JKFIT

    Orbital Energies [Eh]
    ---------------------

    Doubly Occupied:

       1A    -20.511537     2A    -15.580899     3A    -11.341247
       4A    -11.274780     5A    -11.260866     6A    -11.242457
       7A    -11.239841     8A    -11.218639     9A     -1.366800
      10A     -1.258445    11A     -1.087930    12A     -1.000507
      13A     -0.972047    14A     -0.870153    15A     -0.829178
      16A     -0.726322    17A     -0.693665    18A     -0.667600
      19A     -0.639341    20A     -0.604830    21A     -0.589350
      22A     -0.572264    23A     -0.563368    24A     -0.553770
      25A     -0.523250    26A     -0.512963    27A     -0.509599
      28A     -0.489994    29A     -0.477805    30A     -0.409253
      31A     -0.369463

  @DF-RHF Final Energy:  -363.07591652836737

   => Energetics <=

    Nuclear Repulsion Energy =            394.3053810077519756
    One-Electron Energy =               -1274.8462662516581076
    Two-Electron Energy =                 517.4649687155388165
    Total Energy =                       -363.0759165283673155
  Basis Set: (AUG-CC-PVTZ AUX)
    Blend: AUG-CC-PVTZ-RI
    Molecular point group: c1

    Geometry (in Angstrom), charge = 0, multiplicity = 1:

       Center              X                  Y                   Z               Mass
    ------------   -----------------  -----------------  -----------------  -----------------
         O            0.007009377159     2.016971570257    -0.099808266707    15.994914619570
         N            0.252352377159    -0.271621429743    -0.344139266707    14.003074004430
         C           -0.473680622841    -1.488204429743    -0.014845266707    12.000000000000
         C           -1.933110622841    -1.012255429743    -0.034048266707    12.000000000000
         C           -1.831755622841     0.446057570257     0.415327733293    12.000000000000
         C           -0.441139622841     0.872652570257    -0.036750266707    12.000000000000
         C            1.678883377159    -0.238381429743    -0.607255266707    12.000000000000
         C            2.515043377159    -0.385312429743     0.660296733293    12.000000000000
         H           -0.188896622841    -1.875233429743     0.975113733293     1.007825032230
         H           -0.268231622841    -2.270072429743    -0.754447266707     1.007825032230
         H           -2.567217022841    -1.620480529743     0.616124033293     1.007825032230
         H           -2.315507622841    -1.062549429743    -1.057828266707     1.007825032230
         H           -1.874536622841     0.539263570257     1.507603733293     1.007825032230
         H           -2.593503622841     1.108273570257    -0.002238266707     1.007825032230
         H            1.912381377159    -1.031406429743    -1.326853266707     1.007825032230
         H            1.879451377159     0.724918570257    -1.082647266707     1.007825032230
         H            2.289618377159     0.433818570257     1.347430733293     1.007825032230
         H            2.310319377159    -1.333830429743     1.164642733293     1.007825032230
         H            3.582464377159    -0.352393429743     0.421674733293     1.007825032230

  Basis Set: AUG-CC-PVTZ
    Blend: AUG-CC-PVTZ
  Basis Set: (AUG-CC-PVTZ AUX)
    Blend: AUG-CC-PVTZ-JKFIT
	 Reference Energy          =    -363.0759165283673724 [Eh]
	 Singles Energy            =      -0.0000000000000000 [Eh]
	 Same-Spin Energy          =      -0.3767941494862426 [Eh]
	 Opposite-Spin Energy      =      -1.2469505153386751 [Eh]
	 Correlation Energy        =      -1.6237446648249176 [Eh]
	 Total Energy              =    -364.6996611931922985 [Eh]

	 ================> DF-SCS-MP2 Energies <==================
	-----------------------------------------------------------
	 SCS Same-Spin Scale       =       0.3333333333333333 [-]
	 SCS Opposite-Spin Scale   =       1.2000000000000000 [-]
	 SCS Same-Spin Energy      =      -0.1255980498287475 [Eh]
	 SCS Opposite-Spin Energy  =      -1.4963406184064101 [Eh]
	 SCS Correlation Energy    =      -1.6219386682351575 [Eh]
	 SCS Total Energy          =    -364.6978551966025179 [Eh]
	-----------------------------------------------------------

  Dipole Moment: [D]
     X:    -0.4605      Y:    -3.9453      Z:     0.2569     Total:     3.9804

*** Psi4 exiting successfully. Buy a developer a beer!
