                               Psi4 1.3.2 release

  ==> Input File <==

--------------------------------------------------------------------------
#psi4
#
memory 32 gb

molecule  {
0 1
  O       -0.0101440     2.0708820    -0.1140410
  N        0.2351990    -0.2177110    -0.3583720
  C       -0.4908340    -1.4342940    -0.0290780
  C       -1.9502640    -0.9583450    -0.0482810
  C       -1.8489090     0.4999680     0.4010950
  C       -0.4582930     0.9265630    -0.0509830
  C        1.6617300    -0.1844710    -0.6214880
  C        2.4978900    -0.3314020     0.6460640
  H       -0.2114857    -1.8046759     0.9687667
  H       -0.2853850    -2.2161620    -0.7686800
  H       -2.5951790    -1.5710950     0.5868370
  H       -2.3326610    -1.0086390    -1.0720610
  H       -1.8916900     0.5931740     1.4933710
  H       -2.6106570     1.1621840    -0.0164710
  H        1.8952280    -0.9774960    -1.3410860
  H        1.8622980     0.7788290    -1.0968800
  H        2.2724650     0.4877290     1.3331980
  H        2.2931660    -1.2799200     1.1504100
  H        3.5653110    -0.2984830     0.4074420
units angstrom
no_reorient  #important for SAPT in psi4, default
symmetry c1  #important for SAPT in psi4, default
}

set PROPERTIES_ORIGIN ["COM"]
properties('MP2/aug-cc-pvtz', properties = ['dipole'])
--------------------------------------------------------------------------

    Molecular point group: c1
  Charge       = 0
  Multiplicity = 1
  Basis Set: AUG-CC-PVTZ
    Blend: AUG-CC-PVTZ
  Basis Set: (AUG-CC-PVTZ AUX)
    Blend: AUG-CC-PVTZ-JKFIT

    Orbital Energies [Eh]
    ---------------------

    Doubly Occupied:

       1A    -20.511526     2A    -15.580749     3A    -11.341274
       4A    -11.274943     5A    -11.260879     6A    -11.242336
       7A    -11.239953     8A    -11.218627     9A     -1.366796
      10A     -1.258490    11A     -1.087884    12A     -1.000475
      13A     -0.972002    14A     -0.870232    15A     -0.829284
      16A     -0.726239    17A     -0.693369    18A     -0.667731
      19A     -0.639398    20A     -0.604609    21A     -0.589373
      22A     -0.572441    23A     -0.563217    24A     -0.554539
      25A     -0.522881    26A     -0.513135    27A     -0.509485
      28A     -0.490105    29A     -0.477526    30A     -0.409292
      31A     -0.369420

  @DF-RHF Final Energy:  -363.07590864188126

   => Energetics <=

    Nuclear Repulsion Energy =            394.3131573863389576
    One-Electron Energy =               -1274.8617078942386343
    Two-Electron Energy =                 517.4726418660184208
    Total Energy =                       -363.0759086418812558
  Basis Set: (AUG-CC-PVTZ AUX)
    Blend: AUG-CC-PVTZ-RI
    Molecular point group: c1

    Geometry (in Angstrom), charge = 0, multiplicity = 1:

       Center              X                  Y                   Z               Mass
    ------------   -----------------  -----------------  -----------------  -----------------
         O            0.007154149213     2.016863535082    -0.099744378885    15.994914619570
         N            0.252497149213    -0.271729464918    -0.344075378885    14.003074004430
         C           -0.473535850787    -1.488312464918    -0.014781378885    12.000000000000
         C           -1.932965850787    -1.012363464918    -0.033984378885    12.000000000000
         C           -1.831610850787     0.445949535082     0.415391621115    12.000000000000
         C           -0.440994850787     0.872544535082    -0.036686378885    12.000000000000
         C            1.679028149213    -0.238489464918    -0.607191378885    12.000000000000
         C            2.515188149213    -0.385420464918     0.660360621115    12.000000000000
         H           -0.194187550787    -1.858694364918     0.983063321115     1.007825032230
         H           -0.268086850787    -2.270180464918    -0.754383378885     1.007825032230
         H           -2.577880850787    -1.625113464918     0.601133621115     1.007825032230
         H           -2.315362850787    -1.062657464918    -1.057764378885     1.007825032230
         H           -1.874391850787     0.539155535082     1.507667621115     1.007825032230
         H           -2.593358850787     1.108165535082    -0.002174378885     1.007825032230
         H            1.912526149213    -1.031514464918    -1.326789378885     1.007825032230
         H            1.879596149213     0.724810535082    -1.082583378885     1.007825032230
         H            2.289763149213     0.433710535082     1.347494621115     1.007825032230
         H            2.310464149213    -1.333938464918     1.164706621115     1.007825032230
         H            3.582609149213    -0.352501464918     0.421738621115     1.007825032230

  Basis Set: AUG-CC-PVTZ
    Blend: AUG-CC-PVTZ
  Basis Set: (AUG-CC-PVTZ AUX)
    Blend: AUG-CC-PVTZ-JKFIT
	 Reference Energy          =    -363.0759086418812558 [Eh]
	 Singles Energy            =      -0.0000000000000000 [Eh]
	 Same-Spin Energy          =      -0.3768019130508561 [Eh]
	 Opposite-Spin Energy      =      -1.2469542554182922 [Eh]
	 Correlation Energy        =      -1.6237561684691484 [Eh]
	 Total Energy              =    -364.6996648103503844 [Eh]

	 ================> DF-SCS-MP2 Energies <==================
	-----------------------------------------------------------
	 SCS Same-Spin Scale       =       0.3333333333333333 [-]
	 SCS Opposite-Spin Scale   =       1.2000000000000000 [-]
	 SCS Same-Spin Energy      =      -0.1256006376836187 [Eh]
	 SCS Opposite-Spin Energy  =      -1.4963451065019506 [Eh]
	 SCS Correlation Energy    =      -1.6219457441855694 [Eh]
	 SCS Total Energy          =    -364.6978543860668083 [Eh]
	-----------------------------------------------------------

  Dipole Moment: [D]
     X:    -0.4654      Y:    -3.9473      Z:     0.2528     Total:     3.9827

*** Psi4 exiting successfully. Buy a developer a beer!
