                               Psi4 1.3.2 release

  ==> Input File <==

--------------------------------------------------------------------------
#psi4
#
memory 32 gb

molecule  {
0 1
  O       -0.0101440     2.0708820    -0.1140410
  N        0.1850965    -0.2159424    -0.4466543
  C       -0.4908340    -1.4342940    -0.0290780
  C       -1.9502640    -0.9583450    -0.0482810
  C       -1.8489090     0.4999680     0.4010950
  C       -0.4582930     0.9265630    -0.0509830
  C        1.6617300    -0.1844710    -0.6214880
  C        2.4978900    -0.3314020     0.6460640
  H       -0.2060500    -1.8213230     0.9608810
  H       -0.2853850    -2.2161620    -0.7686800
  H       -2.5951790    -1.5710950     0.5868370
  H       -2.3326610    -1.0086390    -1.0720610
  H       -1.8916900     0.5931740     1.4933710
  H       -2.6106570     1.1621840    -0.0164710
  H        1.8952280    -0.9774960    -1.3410860
  H        1.8622980     0.7788290    -1.0968800
  H        2.2724650     0.4877290     1.3331980
  H        2.2931660    -1.2799200     1.1504100
  H        3.5653110    -0.2984830     0.4074420
units angstrom
no_reorient  #important for SAPT in psi4, default
symmetry c1  #important for SAPT in psi4, default
}

set PROPERTIES_ORIGIN ["COM"]
properties('MP2/aug-cc-pvtz', properties = ['dipole'])
--------------------------------------------------------------------------

    Molecular point group: c1
  Charge       = 0
  Multiplicity = 1
  Basis Set: AUG-CC-PVTZ
    Blend: AUG-CC-PVTZ
  Basis Set: (AUG-CC-PVTZ AUX)
    Blend: AUG-CC-PVTZ-JKFIT

    Orbital Energies [Eh]
    ---------------------

    Doubly Occupied:

       1A    -20.514153     2A    -15.582936     3A    -11.341283
       4A    -11.273823     5A    -11.262799     6A    -11.240686
       7A    -11.238693     8A    -11.222053     9A     -1.367852
      10A     -1.257049    11A     -1.082915    12A     -1.002121
      13A     -0.972536    14A     -0.867679    15A     -0.828467
      16A     -0.724084    17A     -0.693117    18A     -0.666335
      19A     -0.637795    20A     -0.602873    21A     -0.593350
      22A     -0.569820    23A     -0.561894    24A     -0.553971
      25A     -0.526277    26A     -0.509315    27A     -0.505699
      28A     -0.488242    29A     -0.478159    30A     -0.411166
      31A     -0.376066

  @DF-RHF Final Energy:  -363.07220853031180

   => Energetics <=

    Nuclear Repulsion Energy =            393.7442263019904090
    One-Electron Energy =               -1273.7264561762553967
    Two-Electron Energy =                 516.9100213439531899
    Total Energy =                       -363.0722085303117410
  Basis Set: (AUG-CC-PVTZ AUX)
    Blend: AUG-CC-PVTZ-RI
    Molecular point group: c1

    Geometry (in Angstrom), charge = 0, multiplicity = 1:

       Center              X                  Y                   Z               Mass
    ------------   -----------------  -----------------  -----------------  -----------------
         O            0.013309842211     2.016792893187    -0.088742201016    15.994914619570
         N            0.208550342211    -0.270031506813    -0.421355501016    14.003074004430
         C           -0.467380157789    -1.488383106813    -0.003779201016    12.000000000000
         C           -1.926810157789    -1.012434106813    -0.022982201016    12.000000000000
         C           -1.825455157789     0.445878893187     0.426393798984    12.000000000000
         C           -0.434839157789     0.872473893187    -0.025684201016    12.000000000000
         C            1.685183842211    -0.238560106813    -0.596189201016    12.000000000000
         C            2.521343842211    -0.385491106813     0.671362798984    12.000000000000
         H           -0.182596157789    -1.875412106813     0.986179798984     1.007825032230
         H           -0.261931157789    -2.270251106813    -0.743381201016     1.007825032230
         H           -2.571725157789    -1.625184106813     0.612135798984     1.007825032230
         H           -2.309207157789    -1.062728106813    -1.046762201016     1.007825032230
         H           -1.868236157789     0.539084893187     1.518669798984     1.007825032230
         H           -2.587203157789     1.108094893187     0.008827798984     1.007825032230
         H            1.918681842211    -1.031585106813    -1.315787201016     1.007825032230
         H            1.885751842211     0.724739893187    -1.071581201016     1.007825032230
         H            2.295918842211     0.433639893187     1.358496798984     1.007825032230
         H            2.316619842211    -1.334009106813     1.175708798984     1.007825032230
         H            3.588764842211    -0.352572106813     0.432740798984     1.007825032230

  Basis Set: AUG-CC-PVTZ
    Blend: AUG-CC-PVTZ
  Basis Set: (AUG-CC-PVTZ AUX)
    Blend: AUG-CC-PVTZ-JKFIT
	 Reference Energy          =    -363.0722085303117979 [Eh]
	 Singles Energy            =      -0.0000000000000000 [Eh]
	 Same-Spin Energy          =      -0.3767424802480206 [Eh]
	 Opposite-Spin Energy      =      -1.2473157407012347 [Eh]
	 Correlation Energy        =      -1.6240582209492553 [Eh]
	 Total Energy              =    -364.6962667512610778 [Eh]

	 ================> DF-SCS-MP2 Energies <==================
	-----------------------------------------------------------
	 SCS Same-Spin Scale       =       0.3333333333333333 [-]
	 SCS Opposite-Spin Scale   =       1.2000000000000000 [-]
	 SCS Same-Spin Energy      =      -0.1255808267493402 [Eh]
	 SCS Opposite-Spin Energy  =      -1.4967788888414817 [Eh]
	 SCS Correlation Energy    =      -1.6223597155908218 [Eh]
	 SCS Total Energy          =    -364.6945682459026443 [Eh]
	-----------------------------------------------------------

  Dipole Moment: [D]
     X:    -0.3440      Y:    -3.8729      Z:     0.4018     Total:     3.9088

*** Psi4 exiting successfully. Buy a developer a beer!
