                               Psi4 1.3.2 release

  ==> Input File <==

--------------------------------------------------------------------------
#psi4
#
memory 32 gb

molecule  {
0 1
  O       -0.0101440     2.0708820    -0.1140410
  N        0.2329205    -0.2371813    -0.3744037
  C       -0.4908340    -1.4342940    -0.0290780
  C       -1.9502640    -0.9583450    -0.0482810
  C       -1.8489090     0.4999680     0.4010950
  C       -0.4582930     0.9265630    -0.0509830
  C        1.6617300    -0.1844710    -0.6214880
  C        2.4978900    -0.3314020     0.6460640
  H       -0.2060500    -1.8213230     0.9608810
  H       -0.2853850    -2.2161620    -0.7686800
  H       -2.5951790    -1.5710950     0.5868370
  H       -2.3326610    -1.0086390    -1.0720610
  H       -1.8916900     0.5931740     1.4933710
  H       -2.6106570     1.1621840    -0.0164710
  H        1.8952280    -0.9774960    -1.3410860
  H        1.8622980     0.7788290    -1.0968800
  H        2.2724650     0.4877290     1.3331980
  H        2.2931660    -1.2799200     1.1504100
  H        3.5653110    -0.2984830     0.4074420
units angstrom
no_reorient  #important for SAPT in psi4, default
symmetry c1  #important for SAPT in psi4, default
}

set PROPERTIES_ORIGIN ["COM"]
properties('MP2/aug-cc-pvtz', properties = ['dipole'])
--------------------------------------------------------------------------

    Molecular point group: c1
  Charge       = 0
  Multiplicity = 1
  Basis Set: AUG-CC-PVTZ
    Blend: AUG-CC-PVTZ
  Basis Set: (AUG-CC-PVTZ AUX)
    Blend: AUG-CC-PVTZ-JKFIT

    Orbital Energies [Eh]
    ---------------------

    Doubly Occupied:

       1A    -20.515737     2A    -15.580010     3A    -11.344382
       4A    -11.273100     5A    -11.260256     6A    -11.242239
       7A    -11.240503     8A    -11.218428     9A     -1.367575
      10A     -1.258822    11A     -1.087449    12A     -0.999807
      13A     -0.971028    14A     -0.869739    15A     -0.827886
      16A     -0.726664    17A     -0.693178    18A     -0.667933
      19A     -0.639536    20A     -0.603510    21A     -0.589823
      22A     -0.573370    23A     -0.562873    24A     -0.554849
      25A     -0.523485    26A     -0.512177    27A     -0.509287
      28A     -0.490631    29A     -0.477837    30A     -0.410898
      31A     -0.368724

  @DF-RHF Final Energy:  -363.07466768285934

   => Energetics <=

    Nuclear Repulsion Energy =            394.0746016174026067
    One-Electron Energy =               -1274.3750641193682895
    Two-Electron Energy =                 517.2257948191064543
    Total Energy =                       -363.0746676828592854
  Basis Set: (AUG-CC-PVTZ AUX)
    Blend: AUG-CC-PVTZ-RI
    Molecular point group: c1

    Geometry (in Angstrom), charge = 0, multiplicity = 1:

       Center              X                  Y                   Z               Mass
    ------------   -----------------  -----------------  -----------------  -----------------
         O            0.007387849424     2.019422882577    -0.097688912543    15.994914619570
         N            0.250452349424    -0.288640417423    -0.358051612543    14.003074004430
         C           -0.473302150576    -1.485753117423    -0.012725912543    12.000000000000
         C           -1.932732150576    -1.009804117423    -0.031928912543    12.000000000000
         C           -1.831377150576     0.448508882577     0.417447087457    12.000000000000
         C           -0.440761150576     0.875103882577    -0.034630912543    12.000000000000
         C            1.679261849424    -0.235930117423    -0.605135912543    12.000000000000
         C            2.515421849424    -0.382861117423     0.662416087457    12.000000000000
         H           -0.188518150576    -1.872782117423     0.977233087457     1.007825032230
         H           -0.267853150576    -2.267621117423    -0.752327912543     1.007825032230
         H           -2.577647150576    -1.622554117423     0.603189087457     1.007825032230
         H           -2.315129150576    -1.060098117423    -1.055708912543     1.007825032230
         H           -1.874158150576     0.541714882577     1.509723087457     1.007825032230
         H           -2.593125150576     1.110724882577    -0.000118912543     1.007825032230
         H            1.912759849424    -1.028955117423    -1.324733912543     1.007825032230
         H            1.879829849424     0.727369882577    -1.080527912543     1.007825032230
         H            2.289996849424     0.436269882577     1.349550087457     1.007825032230
         H            2.310697849424    -1.331379117423     1.166762087457     1.007825032230
         H            3.582842849424    -0.349942117423     0.423794087457     1.007825032230

  Basis Set: AUG-CC-PVTZ
    Blend: AUG-CC-PVTZ
  Basis Set: (AUG-CC-PVTZ AUX)
    Blend: AUG-CC-PVTZ-JKFIT
	 Reference Energy          =    -363.0746676828593422 [Eh]
	 Singles Energy            =      -0.0000000000000000 [Eh]
	 Same-Spin Energy          =      -0.3769818521458822 [Eh]
	 Opposite-Spin Energy      =      -1.2472883347855823 [Eh]
	 Correlation Energy        =      -1.6242701869314646 [Eh]
	 Total Energy              =    -364.6989378697908251 [Eh]

	 ================> DF-SCS-MP2 Energies <==================
	-----------------------------------------------------------
	 SCS Same-Spin Scale       =       0.3333333333333333 [-]
	 SCS Opposite-Spin Scale   =       1.2000000000000000 [-]
	 SCS Same-Spin Energy      =      -0.1256606173819607 [Eh]
	 SCS Opposite-Spin Energy  =      -1.4967460017426988 [Eh]
	 SCS Correlation Energy    =      -1.6224066191246596 [Eh]
	 SCS Total Energy          =    -364.6970743019840029 [Eh]
	-----------------------------------------------------------

  Dipole Moment: [D]
     X:    -0.4834      Y:    -3.8203      Z:     0.2853     Total:     3.8613

*** Psi4 exiting successfully. Buy a developer a beer!
