                               Psi4 1.3.2 release

  ==> Input File <==

--------------------------------------------------------------------------
#psi4
#
memory 32 gb

molecule  {
0 1
  O       -0.0101440     2.0708820    -0.1140410
  N        0.2351990    -0.2177110    -0.3583720
  C       -0.4908340    -1.4342940    -0.0290780
  C       -1.9502640    -0.9583450    -0.0482810
  C       -1.8489090     0.4999680     0.4010950
  C       -0.5593208     1.0932606    -0.0062026
  C        1.6617300    -0.1844710    -0.6214880
  C        2.4978900    -0.3314020     0.6460640
  H       -0.2060500    -1.8213230     0.9608810
  H       -0.2853850    -2.2161620    -0.7686800
  H       -2.5951790    -1.5710950     0.5868370
  H       -2.3326610    -1.0086390    -1.0720610
  H       -1.8916900     0.5931740     1.4933710
  H       -2.6106570     1.1621840    -0.0164710
  H        1.8952280    -0.9774960    -1.3410860
  H        1.8622980     0.7788290    -1.0968800
  H        2.2724650     0.4877290     1.3331980
  H        2.2931660    -1.2799200     1.1504100
  H        3.5653110    -0.2984830     0.4074420
units angstrom
no_reorient  #important for SAPT in psi4, default
symmetry c1  #important for SAPT in psi4, default
}

set PROPERTIES_ORIGIN ["COM"]
properties('MP2/aug-cc-pvtz', properties = ['dipole'])
--------------------------------------------------------------------------

    Molecular point group: c1
  Charge       = 0
  Multiplicity = 1
  Basis Set: AUG-CC-PVTZ
    Blend: AUG-CC-PVTZ
  Basis Set: (AUG-CC-PVTZ AUX)
    Blend: AUG-CC-PVTZ-JKFIT

    Orbital Energies [Eh]
    ---------------------

    Doubly Occupied:

       1A    -20.551922     2A    -15.540351     3A    -11.354223
       4A    -11.257230     5A    -11.249466     6A    -11.243204
       7A    -11.241970     8A    -11.206051     9A     -1.455582
      10A     -1.214002    11A     -1.081763    12A     -0.989347
      13A     -0.958084    14A     -0.853590    15A     -0.804906
      16A     -0.727135    17A     -0.684020    18A     -0.679203
      19A     -0.639253    20A     -0.614957    21A     -0.599178
      22A     -0.582686    23A     -0.575418    24A     -0.549779
      25A     -0.523158    26A     -0.503839    27A     -0.502578
      28A     -0.492016    29A     -0.476479    30A     -0.406437
      31A     -0.339987

  @DF-RHF Final Energy:  -363.03734684429043

   => Energetics <=

    Nuclear Repulsion Energy =            392.7730040133901070
    One-Electron Energy =               -1271.8250754550240345
    Two-Electron Energy =                 516.0147245973435020
    Total Energy =                       -363.0373468442903686
  Basis Set: (AUG-CC-PVTZ AUX)
    Blend: AUG-CC-PVTZ-RI
    Molecular point group: c1

    Geometry (in Angstrom), charge = 0, multiplicity = 1:

       Center              X                  Y                   Z               Mass
    ------------   -----------------  -----------------  -----------------  -----------------
         O            0.017826345834     1.999322656499    -0.104426005770    15.994914619570
         N            0.263169345834    -0.289270343501    -0.348757005770    14.003074004430
         C           -0.462863654166    -1.505853343501    -0.019463005770    12.000000000000
         C           -1.922293654166    -1.029904343501    -0.038666005770    12.000000000000
         C           -1.820938654166     0.428408656499     0.410709994230    12.000000000000
         C           -0.531350454166     1.021701256499     0.003412394230    12.000000000000
         C            1.689700345834    -0.256030343501    -0.611873005770    12.000000000000
         C            2.525860345834    -0.402961343501     0.655678994230    12.000000000000
         H           -0.178079654166    -1.892882343501     0.970495994230     1.007825032230
         H           -0.257414654166    -2.287721343501    -0.759065005770     1.007825032230
         H           -2.567208654166    -1.642654343501     0.596451994230     1.007825032230
         H           -2.304690654166    -1.080198343501    -1.062446005770     1.007825032230
         H           -1.863719654166     0.521614656499     1.502985994230     1.007825032230
         H           -2.582686654166     1.090624656499    -0.006856005770     1.007825032230
         H            1.923198345834    -1.049055343501    -1.331471005770     1.007825032230
         H            1.890268345834     0.707269656499    -1.087265005770     1.007825032230
         H            2.300435345834     0.416169656499     1.342812994230     1.007825032230
         H            2.321136345834    -1.351479343501     1.160024994230     1.007825032230
         H            3.593281345834    -0.370042343501     0.417056994230     1.007825032230

  Basis Set: AUG-CC-PVTZ
    Blend: AUG-CC-PVTZ
  Basis Set: (AUG-CC-PVTZ AUX)
    Blend: AUG-CC-PVTZ-JKFIT
	 Reference Energy          =    -363.0373468442904255 [Eh]
	 Singles Energy            =      -0.0000000000000000 [Eh]
	 Same-Spin Energy          =      -0.3766597138677468 [Eh]
	 Opposite-Spin Energy      =      -1.2463405885624819 [Eh]
	 Correlation Energy        =      -1.6230003024302286 [Eh]
	 Total Energy              =    -364.6603471467206532 [Eh]

	 ================> DF-SCS-MP2 Energies <==================
	-----------------------------------------------------------
	 SCS Same-Spin Scale       =       0.3333333333333333 [-]
	 SCS Opposite-Spin Scale   =       1.2000000000000000 [-]
	 SCS Same-Spin Energy      =      -0.1255532379559156 [Eh]
	 SCS Opposite-Spin Energy  =      -1.4956087062749781 [Eh]
	 SCS Correlation Energy    =      -1.6211619442308938 [Eh]
	 SCS Total Energy          =    -364.6585087885213170 [Eh]
	-----------------------------------------------------------

  Dipole Moment: [D]
     X:    -1.2522      Y:    -2.2727      Z:     0.4996     Total:     2.6425

*** Psi4 exiting successfully. Buy a developer a beer!
