                               Psi4 1.3.2 release

  ==> Input File <==

--------------------------------------------------------------------------
#psi4
#
memory 32 gb

molecule  {
0 1
  O        0.0269914     2.0547428    -0.1283729
  N        0.2351990    -0.2177110    -0.3583720
  C       -0.4908340    -1.4342940    -0.0290780
  C       -1.9502640    -0.9583450    -0.0482810
  C       -1.8489090     0.4999680     0.4010950
  C       -0.4582930     0.9265630    -0.0509830
  C        1.6617300    -0.1844710    -0.6214880
  C        2.4978900    -0.3314020     0.6460640
  H       -0.2060500    -1.8213230     0.9608810
  H       -0.2853850    -2.2161620    -0.7686800
  H       -2.5951790    -1.5710950     0.5868370
  H       -2.3326610    -1.0086390    -1.0720610
  H       -1.8916900     0.5931740     1.4933710
  H       -2.6106570     1.1621840    -0.0164710
  H        1.8952280    -0.9774960    -1.3410860
  H        1.8622980     0.7788290    -1.0968800
  H        2.2724650     0.4877290     1.3331980
  H        2.2931660    -1.2799200     1.1504100
  H        3.5653110    -0.2984830     0.4074420
units angstrom
no_reorient  #important for SAPT in psi4, default
symmetry c1  #important for SAPT in psi4, default
}

set PROPERTIES_ORIGIN ["COM"]
properties('MP2/aug-cc-pvtz', properties = ['dipole'])
--------------------------------------------------------------------------

    Molecular point group: c1
  Charge       = 0
  Multiplicity = 1
  Basis Set: AUG-CC-PVTZ
    Blend: AUG-CC-PVTZ
  Basis Set: (AUG-CC-PVTZ AUX)
    Blend: AUG-CC-PVTZ-JKFIT

    Orbital Energies [Eh]
    ---------------------

    Doubly Occupied:

       1A    -20.511048     2A    -15.579103     3A    -11.341328
       4A    -11.274243     5A    -11.259542     6A    -11.243219
       7A    -11.242018     8A    -11.217787     9A     -1.367531
      10A     -1.256547    11A     -1.088040    12A     -0.999902
      13A     -0.972215    14A     -0.869560    15A     -0.829516
      16A     -0.725730    17A     -0.693129    18A     -0.667694
      19A     -0.639456    20A     -0.604198    21A     -0.589277
      22A     -0.571590    23A     -0.562961    24A     -0.554713
      25A     -0.522473    26A     -0.512296    27A     -0.509623
      28A     -0.489404    29A     -0.477927    30A     -0.410220
      31A     -0.368062

  @DF-RHF Final Energy:  -363.07550862135668

   => Energetics <=

    Nuclear Repulsion Energy =            394.5543837860180929
    One-Electron Energy =               -1275.3590797858059886
    Two-Electron Energy =                 517.7291873784312202
    Total Energy =                       -363.0755086213566756
  Basis Set: (AUG-CC-PVTZ AUX)
    Blend: AUG-CC-PVTZ-RI
    Molecular point group: c1

    Geometry (in Angstrom), charge = 0, multiplicity = 1:

       Center              X                  Y                   Z               Mass
    ------------   -----------------  -----------------  -----------------  -----------------
         O            0.038988574294     2.003155468881    -0.111978857601    15.994914619570
         N            0.247196174294    -0.269298331119    -0.341977957601    14.003074004430
         C           -0.478836825706    -1.485881331119    -0.012683957601    12.000000000000
         C           -1.938266825706    -1.009932331119    -0.031886957601    12.000000000000
         C           -1.836911825706     0.448380668881     0.417489042399    12.000000000000
         C           -0.446295825706     0.874975668881    -0.034588957601    12.000000000000
         C            1.673727174294    -0.236058331119    -0.605093957601    12.000000000000
         C            2.509887174294    -0.382989331119     0.662458042399    12.000000000000
         H           -0.194052825706    -1.872910331119     0.977275042399     1.007825032230
         H           -0.273387825706    -2.267749331119    -0.752285957601     1.007825032230
         H           -2.583181825706    -1.622682331119     0.603231042399     1.007825032230
         H           -2.320663825706    -1.060226331119    -1.055666957601     1.007825032230
         H           -1.879692825706     0.541586668881     1.509765042399     1.007825032230
         H           -2.598659825706     1.110596668881    -0.000076957601     1.007825032230
         H            1.907225174294    -1.029083331119    -1.324691957601     1.007825032230
         H            1.874295174294     0.727241668881    -1.080485957601     1.007825032230
         H            2.284462174294     0.436141668881     1.349592042399     1.007825032230
         H            2.305163174294    -1.331507331119     1.166804042399     1.007825032230
         H            3.577308174294    -0.350070331119     0.423836042399     1.007825032230

  Basis Set: AUG-CC-PVTZ
    Blend: AUG-CC-PVTZ
  Basis Set: (AUG-CC-PVTZ AUX)
    Blend: AUG-CC-PVTZ-JKFIT
	 Reference Energy          =    -363.0755086213566756 [Eh]
	 Singles Energy            =      -0.0000000000000000 [Eh]
	 Same-Spin Energy          =      -0.3768823396959018 [Eh]
	 Opposite-Spin Energy      =      -1.2469950096281281 [Eh]
	 Correlation Energy        =      -1.6238773493240299 [Eh]
	 Total Energy              =    -364.6993859706806802 [Eh]

	 ================> DF-SCS-MP2 Energies <==================
	-----------------------------------------------------------
	 SCS Same-Spin Scale       =       0.3333333333333333 [-]
	 SCS Opposite-Spin Scale   =       1.2000000000000000 [-]
	 SCS Same-Spin Energy      =      -0.1256274465653006 [Eh]
	 SCS Opposite-Spin Energy  =      -1.4963940115537537 [Eh]
	 SCS Correlation Energy    =      -1.6220214581190544 [Eh]
	 SCS Total Energy          =    -364.6975300794757118 [Eh]
	-----------------------------------------------------------

  Dipole Moment: [D]
     X:    -0.5706      Y:    -3.9061      Z:     0.2851     Total:     3.9579

*** Psi4 exiting successfully. Buy a developer a beer!
