                               Psi4 1.3.2 release

  ==> Input File <==

--------------------------------------------------------------------------
#psi4
#
memory 32 gb

molecule  {
0 1
  O       -0.0101440     2.0708820    -0.1140410
  N        0.2351990    -0.2177110    -0.3583720
  C       -0.4908340    -1.4342940    -0.0290780
  C       -1.9502640    -0.9583450    -0.0482810
  C       -1.8489090     0.4999680     0.4010950
  C       -0.4191188     0.8454210     0.0054528
  C        1.6617300    -0.1844710    -0.6214880
  C        2.4978900    -0.3314020     0.6460640
  H       -0.2060500    -1.8213230     0.9608810
  H       -0.2853850    -2.2161620    -0.7686800
  H       -2.5951790    -1.5710950     0.5868370
  H       -2.3326610    -1.0086390    -1.0720610
  H       -1.8916900     0.5931740     1.4933710
  H       -2.6106570     1.1621840    -0.0164710
  H        1.8952280    -0.9774960    -1.3410860
  H        1.8622980     0.7788290    -1.0968800
  H        2.2724650     0.4877290     1.3331980
  H        2.2931660    -1.2799200     1.1504100
  H        3.5653110    -0.2984830     0.4074420
units angstrom
no_reorient  #important for SAPT in psi4, default
symmetry c1  #important for SAPT in psi4, default
}

set PROPERTIES_ORIGIN ["COM"]
properties('MP2/aug-cc-pvtz', properties = ['dipole'])
--------------------------------------------------------------------------

    Molecular point group: c1
  Charge       = 0
  Multiplicity = 1
  Basis Set: AUG-CC-PVTZ
    Blend: AUG-CC-PVTZ
  Basis Set: (AUG-CC-PVTZ AUX)
    Blend: AUG-CC-PVTZ-JKFIT

    Orbital Energies [Eh]
    ---------------------

    Doubly Occupied:

       1A    -20.493533     2A    -15.595136     3A    -11.337015
       4A    -11.281545     5A    -11.267932     6A    -11.244212
       7A    -11.240192     8A    -11.223904     9A     -1.347622
      10A     -1.254964    11A     -1.094262    12A     -1.011636
      13A     -0.977428    14A     -0.880232    15A     -0.838330
      16A     -0.730888    17A     -0.701929    18A     -0.669963
      19A     -0.635425    20A     -0.608703    21A     -0.593451
      22A     -0.569753    23A     -0.566202    24A     -0.533768
      25A     -0.525765    26A     -0.516392    27A     -0.512618
      28A     -0.495392    29A     -0.467788    30A     -0.397773
      31A     -0.372561

  @DF-RHF Final Energy:  -363.06122535910947

   => Energetics <=

    Nuclear Repulsion Energy =            394.9940739844137738
    One-Electron Energy =               -1276.1379763250436099
    Two-Electron Energy =                 518.0826769815204216
    Total Energy =                       -363.0612253591094714
  Basis Set: (AUG-CC-PVTZ AUX)
    Blend: AUG-CC-PVTZ-RI
    Molecular point group: c1

    Geometry (in Angstrom), charge = 0, multiplicity = 1:

       Center              X                  Y                   Z               Mass
    ------------   -----------------  -----------------  -----------------  -----------------
         O            0.002948705777     2.025622340958    -0.105662827256    15.994914619570
         N            0.248291705777    -0.262970659042    -0.349993827256    14.003074004430
         C           -0.477741294223    -1.479553659042    -0.020699827256    12.000000000000
         C           -1.937171294223    -1.003604659042    -0.039902827256    12.000000000000
         C           -1.835816294223     0.454708340958     0.409473172744    12.000000000000
         C           -0.406026094223     0.800161340958     0.013830972744    12.000000000000
         C            1.674822705777    -0.229730659042    -0.613109827256    12.000000000000
         C            2.510982705777    -0.376661659042     0.654442172744    12.000000000000
         H           -0.192957294223    -1.866582659042     0.969259172744     1.007825032230
         H           -0.272292294223    -2.261421659042    -0.760301827256     1.007825032230
         H           -2.582086294223    -1.616354659042     0.595215172744     1.007825032230
         H           -2.319568294223    -1.053898659042    -1.063682827256     1.007825032230
         H           -1.878597294223     0.547914340958     1.501749172744     1.007825032230
         H           -2.597564294223     1.116924340958    -0.008092827256     1.007825032230
         H            1.908320705777    -1.022755659042    -1.332707827256     1.007825032230
         H            1.875390705777     0.733569340958    -1.088501827256     1.007825032230
         H            2.285557705777     0.442469340958     1.341576172744     1.007825032230
         H            2.306258705777    -1.325179659042     1.158788172744     1.007825032230
         H            3.578403705777    -0.343742659042     0.415820172744     1.007825032230

  Basis Set: AUG-CC-PVTZ
    Blend: AUG-CC-PVTZ
  Basis Set: (AUG-CC-PVTZ AUX)
    Blend: AUG-CC-PVTZ-JKFIT
	 Reference Energy          =    -363.0612253591094714 [Eh]
	 Singles Energy            =      -0.0000000000000000 [Eh]
	 Same-Spin Energy          =      -0.3778198013057048 [Eh]
	 Opposite-Spin Energy      =      -1.2491068415485711 [Eh]
	 Correlation Energy        =      -1.6269266428542759 [Eh]
	 Total Energy              =    -364.6881520019637719 [Eh]

	 ================> DF-SCS-MP2 Energies <==================
	-----------------------------------------------------------
	 SCS Same-Spin Scale       =       0.3333333333333333 [-]
	 SCS Opposite-Spin Scale   =       1.2000000000000000 [-]
	 SCS Same-Spin Energy      =      -0.1259399337685683 [Eh]
	 SCS Opposite-Spin Energy  =      -1.4989282098582852 [Eh]
	 SCS Correlation Energy    =      -1.6248681436268535 [Eh]
	 SCS Total Energy          =    -364.6860935027362984 [Eh]
	-----------------------------------------------------------

  Dipole Moment: [D]
     X:    -0.2896      Y:    -4.6332      Z:     0.2217     Total:     4.6475

*** Psi4 exiting successfully. Buy a developer a beer!
