                               Psi4 1.4a3.dev225

  ==> Input File <==

--------------------------------------------------------------------------
#psi4
#
memory 32 gb

molecule  {
0 1
  O       -0.0101440     2.0708820    -0.1140410
  N        0.2351990    -0.2177110    -0.3583720
  C       -0.4908340    -1.4342940    -0.0290780
  C       -1.9502640    -0.9583450    -0.0482810
  C       -1.8489090     0.4999680     0.4010950
  C       -0.4582930     0.9265630    -0.0509830
  C        1.6617300    -0.1844710    -0.6214880
  C        2.4978900    -0.3314020     0.6460640
  H       -0.2060500    -1.8213230     0.9608810
  H       -0.2853850    -2.2161620    -0.7686800
  H       -2.6246798    -1.5991244     0.6158896
  H       -2.3326610    -1.0086390    -1.0720610
  H       -1.8916900     0.5931740     1.4933710
  H       -2.6106570     1.1621840    -0.0164710
  H        1.8952280    -0.9774960    -1.3410860
  H        1.8622980     0.7788290    -1.0968800
  H        2.2724650     0.4877290     1.3331980
  H        2.2931660    -1.2799200     1.1504100
  H        3.5653110    -0.2984830     0.4074420
units angstrom
no_reorient  #important for SAPT in psi4, default
symmetry c1  #important for SAPT in psi4, default
}

set PROPERTIES_ORIGIN ["COM"]
properties('MP2/aug-cc-pvtz', properties = ['dipole'])
--------------------------------------------------------------------------

    Molecular point group: c1
  Charge       = 0
  Multiplicity = 1
  Basis Set: AUG-CC-PVTZ
    Blend: AUG-CC-PVTZ
  Basis Set: (AUG-CC-PVTZ AUX)
    Blend: AUG-CC-PVTZ-JKFIT

    Orbital Energies [Eh]
    ---------------------

    Doubly Occupied:

       1A    -20.511974     2A    -15.581382     3A    -11.341778
       4A    -11.275367     5A    -11.261204     6A    -11.248409
       7A    -11.240479     8A    -11.218849     9A     -1.367232
      10A     -1.258885    11A     -1.087248    12A     -1.000053
      13A     -0.971968    14A     -0.869376    15A     -0.827095
      16A     -0.726503    17A     -0.692123    18A     -0.668070
      19A     -0.638719    20A     -0.603950    21A     -0.589511
      22A     -0.572413    23A     -0.563475    24A     -0.551108
      25A     -0.521031    26A     -0.513290    27A     -0.509910
      28A     -0.490224    29A     -0.477068    30A     -0.409426
      31A     -0.369852

  @DF-RHF Final Energy:  -363.07375535492781

   => Energetics <=

    Nuclear Repulsion Energy =            394.0442080789307511
    One-Electron Energy =               -1274.3199816425890276
    Two-Electron Energy =                 517.2020182087304647
    Total Energy =                       -363.0737553549278118
  Basis Set: (AUG-CC-PVTZ AUX)
    Blend: AUG-CC-PVTZ-RI
    Molecular point group: c1

    Geometry (in Angstrom), charge = 0, multiplicity = 1:

       Center              X                  Y                   Z               Mass
    ------------   -----------------  -----------------  -----------------  -----------------
         O            0.007368621609     2.017261699894    -0.099933022014    15.994914619570
         N            0.252711621609    -0.271331300106    -0.344264022014    14.003074004430
         C           -0.473321378391    -1.487914300106    -0.014970022014    12.000000000000
         C           -1.932751378391    -1.011965300106    -0.034173022014    12.000000000000
         C           -1.831396378391     0.446347699894     0.415202977986    12.000000000000
         C           -0.440780378391     0.872942699894    -0.036875022014    12.000000000000
         C            1.679242621609    -0.238091300106    -0.607380022014    12.000000000000
         C            2.515402621609    -0.385022300106     0.660171977986    12.000000000000
         H           -0.188537378391    -1.874943300106     0.974988977986     1.007825032230
         H           -0.267872378391    -2.269782300106    -0.754572022014     1.007825032230
         H           -2.607167178391    -1.652744700106     0.629997577986     1.007825032230
         H           -2.315148378391    -1.062259300106    -1.057953022014     1.007825032230
         H           -1.874177378391     0.539553699894     1.507478977986     1.007825032230
         H           -2.593144378391     1.108563699894    -0.002363022014     1.007825032230
         H            1.912740621609    -1.031116300106    -1.326978022014     1.007825032230
         H            1.879810621609     0.725208699894    -1.082772022014     1.007825032230
         H            2.289977621609     0.434108699894     1.347305977986     1.007825032230
         H            2.310678621609    -1.333540300106     1.164517977986     1.007825032230
         H            3.582823621609    -0.352103300106     0.421549977986     1.007825032230

  Basis Set: AUG-CC-PVTZ
    Blend: AUG-CC-PVTZ
  Basis Set: (AUG-CC-PVTZ AUX)
    Blend: AUG-CC-PVTZ-JKFIT
	 Reference Energy          =    -363.0737553549278118 [Eh]
	 Singles Energy            =      -0.0000000000000000 [Eh]
	 Same-Spin Energy          =      -0.3767971698933138 [Eh]
	 Opposite-Spin Energy      =      -1.2472903960873536 [Eh]
	 Correlation Energy        =      -1.6240875659806675 [Eh]
	 Total Energy              =    -364.6978429209084993 [Eh]

	 ================> DF-SCS-MP2 Energies <==================
	-----------------------------------------------------------
	 SCS Same-Spin Scale       =       0.3333333333333333 [-]
	 SCS Opposite-Spin Scale   =       1.2000000000000000 [-]
	 SCS Same-Spin Energy      =      -0.1255990566311046 [Eh]
	 SCS Opposite-Spin Energy  =      -1.4967484753048244 [Eh]
	 SCS Correlation Energy    =      -1.6223475319359288 [Eh]
	 SCS Total Energy          =    -364.6961028868637413 [Eh]
	-----------------------------------------------------------

  Dipole Moment: [D]
     X:    -0.4343      Y:    -3.9234      Z:     0.2436     Total:     3.9549

*** Psi4 exiting successfully. Buy a developer a beer!
