                               Psi4 1.3.2 release

  ==> Input File <==

--------------------------------------------------------------------------
#psi4
#
memory 32 gb

molecule  {
0 1
  O       -0.0866843     2.0991146    -0.0871725
  N        0.2351990    -0.2177110    -0.3583720
  C       -0.4908340    -1.4342940    -0.0290780
  C       -1.9502640    -0.9583450    -0.0482810
  C       -1.8489090     0.4999680     0.4010950
  C       -0.4582930     0.9265630    -0.0509830
  C        1.6617300    -0.1844710    -0.6214880
  C        2.4978900    -0.3314020     0.6460640
  H       -0.2060500    -1.8213230     0.9608810
  H       -0.2853850    -2.2161620    -0.7686800
  H       -2.5951790    -1.5710950     0.5868370
  H       -2.3326610    -1.0086390    -1.0720610
  H       -1.8916900     0.5931740     1.4933710
  H       -2.6106570     1.1621840    -0.0164710
  H        1.8952280    -0.9774960    -1.3410860
  H        1.8622980     0.7788290    -1.0968800
  H        2.2724650     0.4877290     1.3331980
  H        2.2931660    -1.2799200     1.1504100
  H        3.5653110    -0.2984830     0.4074420
units angstrom
no_reorient  #important for SAPT in psi4, default
symmetry c1  #important for SAPT in psi4, default
}

set PROPERTIES_ORIGIN ["COM"]
properties('MP2/aug-cc-pvtz', properties = ['dipole'])
--------------------------------------------------------------------------

    Molecular point group: c1
  Charge       = 0
  Multiplicity = 1
  Basis Set: AUG-CC-PVTZ
    Blend: AUG-CC-PVTZ
  Basis Set: (AUG-CC-PVTZ AUX)
    Blend: AUG-CC-PVTZ-JKFIT

    Orbital Energies [Eh]
    ---------------------

    Doubly Occupied:

       1A    -20.512520     2A    -15.584599     3A    -11.341453
       4A    -11.276043     5A    -11.263504     6A    -11.240823
       7A    -11.235719     8A    -11.220361     9A     -1.365860
      10A     -1.262143    11A     -1.087433    12A     -1.001635
      13A     -0.971581    14A     -0.871589    15A     -0.829196
      16A     -0.727583    17A     -0.693540    18A     -0.667688
      19A     -0.639509    20A     -0.605504    21A     -0.589437
      22A     -0.573212    23A     -0.563612    24A     -0.554463
      25A     -0.523780    26A     -0.514659    27A     -0.509439
      28A     -0.491476    29A     -0.476176    30A     -0.406983
      31A     -0.372242

  @DF-RHF Final Energy:  -363.07493657186376

   => Energetics <=

    Nuclear Repulsion Energy =            393.8267147862284787
    One-Electron Energy =               -1273.8557779457969446
    Two-Electron Energy =                 516.9541265877047636
    Total Energy =                       -363.0749365718637591
  Basis Set: (AUG-CC-PVTZ AUX)
    Blend: AUG-CC-PVTZ-RI
    Molecular point group: c1

    Geometry (in Angstrom), charge = 0, multiplicity = 1:

       Center              X                  Y                   Z               Mass
    ------------   -----------------  -----------------  -----------------  -----------------
         O           -0.058608528494     2.041251201967    -0.076605953157    15.994914619570
         N            0.263274771506    -0.275574398033    -0.347805453157    14.003074004430
         C           -0.462758228494    -1.492157398033    -0.018511453157    12.000000000000
         C           -1.922188228494    -1.016208398033    -0.037714453157    12.000000000000
         C           -1.820833228494     0.442104601967     0.411661546843    12.000000000000
         C           -0.430217228494     0.868699601967    -0.040416453157    12.000000000000
         C            1.689805771506    -0.242334398033    -0.610921453157    12.000000000000
         C            2.525965771506    -0.389265398033     0.656630546843    12.000000000000
         H           -0.177974228494    -1.879186398033     0.971447546843     1.007825032230
         H           -0.257309228494    -2.274025398033    -0.758113453157     1.007825032230
         H           -2.567103228494    -1.628958398033     0.597403546843     1.007825032230
         H           -2.304585228494    -1.066502398033    -1.061494453157     1.007825032230
         H           -1.863614228494     0.535310601967     1.503937546843     1.007825032230
         H           -2.582581228494     1.104320601967    -0.005904453157     1.007825032230
         H            1.923303771506    -1.035359398033    -1.330519453157     1.007825032230
         H            1.890373771506     0.720965601967    -1.086313453157     1.007825032230
         H            2.300540771506     0.429865601967     1.343764546843     1.007825032230
         H            2.321241771506    -1.337783398033     1.160976546843     1.007825032230
         H            3.593386771506    -0.356346398033     0.418008546843     1.007825032230

  Basis Set: AUG-CC-PVTZ
    Blend: AUG-CC-PVTZ
  Basis Set: (AUG-CC-PVTZ AUX)
    Blend: AUG-CC-PVTZ-JKFIT
	 Reference Energy          =    -363.0749365718637591 [Eh]
	 Singles Energy            =      -0.0000000000000000 [Eh]
	 Same-Spin Energy          =      -0.3766738179279892 [Eh]
	 Opposite-Spin Energy      =      -1.2469264258775057 [Eh]
	 Correlation Energy        =      -1.6236002438054948 [Eh]
	 Total Energy              =    -364.6985368156692289 [Eh]

	 ================> DF-SCS-MP2 Energies <==================
	-----------------------------------------------------------
	 SCS Same-Spin Scale       =       0.3333333333333333 [-]
	 SCS Opposite-Spin Scale   =       1.2000000000000000 [-]
	 SCS Same-Spin Energy      =      -0.1255579393093297 [Eh]
	 SCS Opposite-Spin Energy  =      -1.4963117110530069 [Eh]
	 SCS Correlation Energy    =      -1.6218696503623367 [Eh]
	 SCS Total Energy          =    -364.6968062222260869 [Eh]
	-----------------------------------------------------------

  Dipole Moment: [D]
     X:    -0.2429      Y:    -4.0143      Z:     0.1931     Total:     4.0263

*** Psi4 exiting successfully. Buy a developer a beer!
