                               Psi4 1.3.2 release

  ==> Input File <==

--------------------------------------------------------------------------
#psi4
#
memory 32 gb

molecule  {
0 1
  O        0.1004591     2.0181305    -0.1537273
  N        0.2351990    -0.2177110    -0.3583720
  C       -0.4908340    -1.4342940    -0.0290780
  C       -1.9502640    -0.9583450    -0.0482810
  C       -1.8489090     0.4999680     0.4010950
  C       -0.4582930     0.9265630    -0.0509830
  C        1.6617300    -0.1844710    -0.6214880
  C        2.4978900    -0.3314020     0.6460640
  H       -0.2060500    -1.8213230     0.9608810
  H       -0.2853850    -2.2161620    -0.7686800
  H       -2.5951790    -1.5710950     0.5868370
  H       -2.3326610    -1.0086390    -1.0720610
  H       -1.8916900     0.5931740     1.4933710
  H       -2.6106570     1.1621840    -0.0164710
  H        1.8952280    -0.9774960    -1.3410860
  H        1.8622980     0.7788290    -1.0968800
  H        2.2724650     0.4877290     1.3331980
  H        2.2931660    -1.2799200     1.1504100
  H        3.5653110    -0.2984830     0.4074420
units angstrom
no_reorient  #important for SAPT in psi4, default
symmetry c1  #important for SAPT in psi4, default
}

set PROPERTIES_ORIGIN ["COM"]
properties('MP2/aug-cc-pvtz', properties = ['dipole'])
--------------------------------------------------------------------------

    Molecular point group: c1
  Charge       = 0
  Multiplicity = 1
  Basis Set: AUG-CC-PVTZ
    Blend: AUG-CC-PVTZ
  Basis Set: (AUG-CC-PVTZ AUX)
    Blend: AUG-CC-PVTZ-JKFIT

    Orbital Energies [Eh]
    ---------------------

    Doubly Occupied:

       1A    -20.509732     2A    -15.575311     3A    -11.341361
       4A    -11.272796     5A    -11.256657     6A    -11.246310
       7A    -11.244406     8A    -11.215991     9A     -1.369256
      10A     -1.252416    11A     -1.088327    12A     -0.998626
      13A     -0.972329    14A     -0.868173    15A     -0.829491
      16A     -0.724345    17A     -0.692837    18A     -0.667621
      19A     -0.639754    20A     -0.603480    21A     -0.589164
      22A     -0.570033    23A     -0.562460    24A     -0.554836
      25A     -0.521480    26A     -0.510713    27A     -0.509516
      28A     -0.488021    29A     -0.478383    30A     -0.411105
      31A     -0.365011

  @DF-RHF Final Energy:  -363.07259659207386

   => Energetics <=

    Nuclear Repulsion Energy =            395.1734221926933515
    One-Electron Energy =               -1276.6321524344305089
    Two-Electron Energy =                 518.3861336496632930
    Total Energy =                       -363.0725965920738645
  Basis Set: (AUG-CC-PVTZ AUX)
    Blend: AUG-CC-PVTZ-RI
    Molecular point group: c1

    Geometry (in Angstrom), charge = 0, multiplicity = 1:

       Center              X                  Y                   Z               Mass
    ------------   -----------------  -----------------  -----------------  -----------------
         O            0.102064804909     1.971721711215    -0.133747062969    15.994914619570
         N            0.236804704909    -0.264119788785    -0.338391762969    14.003074004430
         C           -0.489228295091    -1.480702788785    -0.009097762969    12.000000000000
         C           -1.948658295091    -1.004753788785    -0.028300762969    12.000000000000
         C           -1.847303295091     0.453559211215     0.421075237031    12.000000000000
         C           -0.456687295091     0.880154211215    -0.031002762969    12.000000000000
         C            1.663335704909    -0.230879788785    -0.601507762969    12.000000000000
         C            2.499495704909    -0.377810788785     0.666044237031    12.000000000000
         H           -0.204444295091    -1.867731788785     0.980861237031     1.007825032230
         H           -0.283779295091    -2.262570788785    -0.748699762969     1.007825032230
         H           -2.593573295091    -1.617503788785     0.606817237031     1.007825032230
         H           -2.331055295091    -1.055047788785    -1.052080762969     1.007825032230
         H           -1.890084295091     0.546765211215     1.513351237031     1.007825032230
         H           -2.609051295091     1.115775211215     0.003509237031     1.007825032230
         H            1.896833704909    -1.023904788785    -1.321105762969     1.007825032230
         H            1.863903704909     0.732420211215    -1.076899762969     1.007825032230
         H            2.274070704909     0.441320211215     1.353178237031     1.007825032230
         H            2.294771704909    -1.326328788785     1.170390237031     1.007825032230
         H            3.566916704909    -0.344891788785     0.427422237031     1.007825032230

  Basis Set: AUG-CC-PVTZ
    Blend: AUG-CC-PVTZ
  Basis Set: (AUG-CC-PVTZ AUX)
    Blend: AUG-CC-PVTZ-JKFIT
	 Reference Energy          =    -363.0725965920738645 [Eh]
	 Singles Energy            =      -0.0000000000000000 [Eh]
	 Same-Spin Energy          =      -0.3771690590184014 [Eh]
	 Opposite-Spin Energy      =      -1.2472973548696158 [Eh]
	 Correlation Energy        =      -1.6244664138880172 [Eh]
	 Total Energy              =    -364.6970630059618657 [Eh]

	 ================> DF-SCS-MP2 Energies <==================
	-----------------------------------------------------------
	 SCS Same-Spin Scale       =       0.3333333333333333 [-]
	 SCS Opposite-Spin Scale   =       1.2000000000000000 [-]
	 SCS Same-Spin Energy      =      -0.1257230196728004 [Eh]
	 SCS Opposite-Spin Energy  =      -1.4967568258435389 [Eh]
	 SCS Correlation Energy    =      -1.6224798455163394 [Eh]
	 SCS Total Energy          =    -364.6950764375902168 [Eh]
	-----------------------------------------------------------

  Dipole Moment: [D]
     X:    -0.7834      Y:    -3.8112      Z:     0.3422     Total:     3.9059

*** Psi4 exiting successfully. Buy a developer a beer!
