                               Psi4 1.3.2 release

  ==> Input File <==

--------------------------------------------------------------------------
#psi4
#
memory 32 gb

molecule  {
0 1
  O        0.0635356     2.0372291    -0.1426105
  N        0.2351990    -0.2177110    -0.3583720
  C       -0.4908340    -1.4342940    -0.0290780
  C       -1.9502640    -0.9583450    -0.0482810
  C       -1.8489090     0.4999680     0.4010950
  C       -0.4582930     0.9265630    -0.0509830
  C        1.6617300    -0.1844710    -0.6214880
  C        2.4978900    -0.3314020     0.6460640
  H       -0.2060500    -1.8213230     0.9608810
  H       -0.2853850    -2.2161620    -0.7686800
  H       -2.5951790    -1.5710950     0.5868370
  H       -2.3326610    -1.0086390    -1.0720610
  H       -1.8916900     0.5931740     1.4933710
  H       -2.6106570     1.1621840    -0.0164710
  H        1.8952280    -0.9774960    -1.3410860
  H        1.8622980     0.7788290    -1.0968800
  H        2.2724650     0.4877290     1.3331980
  H        2.2931660    -1.2799200     1.1504100
  H        3.5653110    -0.2984830     0.4074420
units angstrom
no_reorient  #important for SAPT in psi4, default
symmetry c1  #important for SAPT in psi4, default
}

set PROPERTIES_ORIGIN ["COM"]
properties('MP2/aug-cc-pvtz', properties = ['dipole'])
--------------------------------------------------------------------------

    Molecular point group: c1
  Charge       = 0
  Multiplicity = 1
  Basis Set: AUG-CC-PVTZ
    Blend: AUG-CC-PVTZ
  Basis Set: (AUG-CC-PVTZ AUX)
    Blend: AUG-CC-PVTZ-JKFIT

    Orbital Energies [Eh]
    ---------------------

    Doubly Occupied:

       1A    -20.510424     2A    -15.577219     3A    -11.341331
       4A    -11.273543     5A    -11.258124     6A    -11.244361
       7A    -11.243646     8A    -11.216908     9A     -1.368325
      10A     -1.254524    11A     -1.088196    12A     -0.999280
      13A     -0.972303    14A     -0.868873    15A     -0.829527
      16A     -0.725052    17A     -0.692985    18A     -0.667665
      19A     -0.639562    20A     -0.603834    21A     -0.589217
      22A     -0.570869    23A     -0.562705    24A     -0.554787
      25A     -0.521994    26A     -0.511476    27A     -0.509632
      28A     -0.488684    29A     -0.478255    30A     -0.410794
      31A     -0.366563

  @DF-RHF Final Energy:  -363.07439689484977

   => Energetics <=

    Nuclear Repulsion Energy =            394.8478264888948956
    One-Electron Energy =               -1275.9631271866328461
    Two-Electron Energy =                 518.0409038028881241
    Total Energy =                       -363.0743968948497695
  Basis Set: (AUG-CC-PVTZ AUX)
    Blend: AUG-CC-PVTZ-RI
    Molecular point group: c1

    Geometry (in Angstrom), charge = 0, multiplicity = 1:

       Center              X                  Y                   Z               Mass
    ------------   -----------------  -----------------  -----------------  -----------------
         O            0.070363864208     1.988118953785    -0.124202653106    15.994914619570
         N            0.242027264208    -0.266821146215    -0.339964153106    14.003074004430
         C           -0.484005735792    -1.483404146215    -0.010670153106    12.000000000000
         C           -1.943435735792    -1.007455146215    -0.029873153106    12.000000000000
         C           -1.842080735792     0.450857853785     0.419502846894    12.000000000000
         C           -0.451464735792     0.877452853785    -0.032575153106    12.000000000000
         C            1.668558264208    -0.233581146215    -0.603080153106    12.000000000000
         C            2.504718264208    -0.380512146215     0.664471846894    12.000000000000
         H           -0.199221735792    -1.870433146215     0.979288846894     1.007825032230
         H           -0.278556735792    -2.265272146215    -0.750272153106     1.007825032230
         H           -2.588350735792    -1.620205146215     0.605244846894     1.007825032230
         H           -2.325832735792    -1.057749146215    -1.053653153106     1.007825032230
         H           -1.884861735792     0.544063853785     1.511778846894     1.007825032230
         H           -2.603828735792     1.113073853785     0.001936846894     1.007825032230
         H            1.902056264208    -1.026606146215    -1.322678153106     1.007825032230
         H            1.869126264208     0.729718853785    -1.078472153106     1.007825032230
         H            2.279293264208     0.438618853785     1.351605846894     1.007825032230
         H            2.299994264208    -1.329030146215     1.168817846894     1.007825032230
         H            3.572139264208    -0.347593146215     0.425849846894     1.007825032230

  Basis Set: AUG-CC-PVTZ
    Blend: AUG-CC-PVTZ
  Basis Set: (AUG-CC-PVTZ AUX)
    Blend: AUG-CC-PVTZ-JKFIT
	 Reference Energy          =    -363.0743968948497695 [Eh]
	 Singles Energy            =      -0.0000000000000000 [Eh]
	 Same-Spin Energy          =      -0.3770095901652097 [Eh]
	 Opposite-Spin Energy      =      -1.2471198785768414 [Eh]
	 Correlation Energy        =      -1.6241294687420511 [Eh]
	 Total Energy              =    -364.6985263635918386 [Eh]

	 ================> DF-SCS-MP2 Energies <==================
	-----------------------------------------------------------
	 SCS Same-Spin Scale       =       0.3333333333333333 [-]
	 SCS Opposite-Spin Scale   =       1.2000000000000000 [-]
	 SCS Same-Spin Energy      =      -0.1256698633884032 [Eh]
	 SCS Opposite-Spin Energy  =      -1.4965438542922096 [Eh]
	 SCS Correlation Energy    =      -1.6222137176806128 [Eh]
	 SCS Total Energy          =    -364.6966106125303781 [Eh]
	-----------------------------------------------------------

  Dipole Moment: [D]
     X:    -0.6768      Y:    -3.8612      Z:     0.3163     Total:     3.9328

*** Psi4 exiting successfully. Buy a developer a beer!
