                               Psi4 1.3.2 release

  ==> Input File <==

--------------------------------------------------------------------------
#psi4
#
memory 32 gb

molecule  {
0 1
  O       -0.0860069     2.0989599    -0.0851643
  N        0.2351990    -0.2177110    -0.3583720
  C       -0.4908340    -1.4342940    -0.0290780
  C       -1.9502640    -0.9583450    -0.0482810
  C       -1.8489090     0.4999680     0.4010950
  C       -0.4582930     0.9265630    -0.0509830
  C        1.6617300    -0.1844710    -0.6214880
  C        2.4978900    -0.3314020     0.6460640
  H       -0.2060500    -1.8213230     0.9608810
  H       -0.2853850    -2.2161620    -0.7686800
  H       -2.5951790    -1.5710950     0.5868370
  H       -2.3326610    -1.0086390    -1.0720610
  H       -1.8916900     0.5931740     1.4933710
  H       -2.6106570     1.1621840    -0.0164710
  H        1.8952280    -0.9774960    -1.3410860
  H        1.8622980     0.7788290    -1.0968800
  H        2.2724650     0.4877290     1.3331980
  H        2.2931660    -1.2799200     1.1504100
  H        3.5653110    -0.2984830     0.4074420
units angstrom
no_reorient  #important for SAPT in psi4, default
symmetry c1  #important for SAPT in psi4, default
}

set PROPERTIES_ORIGIN ["COM"]
properties('MP2/aug-cc-pvtz', properties = ['dipole'])
--------------------------------------------------------------------------

    Molecular point group: c1
  Charge       = 0
  Multiplicity = 1
  Basis Set: AUG-CC-PVTZ
    Blend: AUG-CC-PVTZ
  Basis Set: (AUG-CC-PVTZ AUX)
    Blend: AUG-CC-PVTZ-JKFIT

    Orbital Energies [Eh]
    ---------------------

    Doubly Occupied:

       1A    -20.512522     2A    -15.584598     3A    -11.341455
       4A    -11.276045     5A    -11.263502     6A    -11.240821
       7A    -11.235723     8A    -11.220345     9A     -1.365865
      10A     -1.262140    11A     -1.087432    12A     -1.001627
      13A     -0.971581    14A     -0.871582    15A     -0.829196
      16A     -0.727583    17A     -0.693538    18A     -0.667688
      19A     -0.639514    20A     -0.605486    21A     -0.589444
      22A     -0.573195    23A     -0.563626    24A     -0.554456
      25A     -0.523771    26A     -0.514654    27A     -0.509438
      28A     -0.491475    29A     -0.476169    30A     -0.406986
      31A     -0.372243

  @DF-RHF Final Energy:  -363.07493540078588

   => Energetics <=

    Nuclear Repulsion Energy =            393.8299496868786491
    One-Electron Energy =               -1273.8623698997259908
    Two-Electron Energy =                 516.9574848120614661
    Total Energy =                       -363.0749354007858756
  Basis Set: (AUG-CC-PVTZ AUX)
    Blend: AUG-CC-PVTZ-RI
    Molecular point group: c1

    Geometry (in Angstrom), charge = 0, multiplicity = 1:

       Center              X                  Y                   Z               Mass
    ------------   -----------------  -----------------  -----------------  -----------------
         O           -0.058026941775     2.041118383151    -0.074881798375    15.994914619570
         N            0.263178958225    -0.275552516849    -0.348089498375    14.003074004430
         C           -0.462854041775    -1.492135516849    -0.018795498375    12.000000000000
         C           -1.922284041775    -1.016186516849    -0.037998498375    12.000000000000
         C           -1.820929041775     0.442126483151     0.411377501625    12.000000000000
         C           -0.430313041775     0.868721483151    -0.040700498375    12.000000000000
         C            1.689709958225    -0.242312516849    -0.611205498375    12.000000000000
         C            2.525869958225    -0.389243516849     0.656346501625    12.000000000000
         H           -0.178070041775    -1.879164516849     0.971163501625     1.007825032230
         H           -0.257405041775    -2.274003516849    -0.758397498375     1.007825032230
         H           -2.567199041775    -1.628936516849     0.597119501625     1.007825032230
         H           -2.304681041775    -1.066480516849    -1.061778498375     1.007825032230
         H           -1.863710041775     0.535332483151     1.503653501625     1.007825032230
         H           -2.582677041775     1.104342483151    -0.006188498375     1.007825032230
         H            1.923207958225    -1.035337516849    -1.330803498375     1.007825032230
         H            1.890277958225     0.720987483151    -1.086597498375     1.007825032230
         H            2.300444958225     0.429887483151     1.343480501625     1.007825032230
         H            2.321145958225    -1.337761516849     1.160692501625     1.007825032230
         H            3.593290958225    -0.356324516849     0.417724501625     1.007825032230

  Basis Set: AUG-CC-PVTZ
    Blend: AUG-CC-PVTZ
  Basis Set: (AUG-CC-PVTZ AUX)
    Blend: AUG-CC-PVTZ-JKFIT
	 Reference Energy          =    -363.0749354007858756 [Eh]
	 Singles Energy            =      -0.0000000000000000 [Eh]
	 Same-Spin Energy          =      -0.3766744755953897 [Eh]
	 Opposite-Spin Energy      =      -1.2469266892626085 [Eh]
	 Correlation Energy        =      -1.6236011648579982 [Eh]
	 Total Energy              =    -364.6985365656438489 [Eh]

	 ================> DF-SCS-MP2 Energies <==================
	-----------------------------------------------------------
	 SCS Same-Spin Scale       =       0.3333333333333333 [-]
	 SCS Opposite-Spin Scale   =       1.2000000000000000 [-]
	 SCS Same-Spin Energy      =      -0.1255581585317966 [Eh]
	 SCS Opposite-Spin Energy  =      -1.4963120271151302 [Eh]
	 SCS Correlation Energy    =      -1.6218701856469269 [Eh]
	 SCS Total Energy          =    -364.6968055864327880 [Eh]
	-----------------------------------------------------------

  Dipole Moment: [D]
     X:    -0.2441      Y:    -4.0139      Z:     0.1898     Total:     4.0258

*** Psi4 exiting successfully. Buy a developer a beer!
