                               Psi4 1.3.2 release

  ==> Input File <==

--------------------------------------------------------------------------
#psi4
#
memory 32 gb

molecule  {
0 1
  O       -0.0101440     2.0708820    -0.1140410
  N        0.2351990    -0.2177110    -0.3583720
  C       -0.4908340    -1.4342940    -0.0290780
  C       -1.9545249    -0.9723473     0.0032672
  C       -1.8489090     0.4999680     0.4010950
  C       -0.4582930     0.9265630    -0.0509830
  C        1.6617300    -0.1844710    -0.6214880
  C        2.4978900    -0.3314020     0.6460640
  H       -0.2060500    -1.8213230     0.9608810
  H       -0.2853850    -2.2161620    -0.7686800
  H       -2.5951790    -1.5710950     0.5868370
  H       -2.3326610    -1.0086390    -1.0720610
  H       -1.8916900     0.5931740     1.4933710
  H       -2.6106570     1.1621840    -0.0164710
  H        1.8952280    -0.9774960    -1.3410860
  H        1.8622980     0.7788290    -1.0968800
  H        2.2724650     0.4877290     1.3331980
  H        2.2931660    -1.2799200     1.1504100
  H        3.5653110    -0.2984830     0.4074420
units angstrom
no_reorient  #important for SAPT in psi4, default
symmetry c1  #important for SAPT in psi4, default
}

set PROPERTIES_ORIGIN ["COM"]
properties('MP2/aug-cc-pvtz', properties = ['dipole'])
--------------------------------------------------------------------------

    Molecular point group: c1
  Charge       = 0
  Multiplicity = 1
  Basis Set: AUG-CC-PVTZ
    Blend: AUG-CC-PVTZ
  Basis Set: (AUG-CC-PVTZ AUX)
    Blend: AUG-CC-PVTZ-JKFIT

    Orbital Energies [Eh]
    ---------------------

    Doubly Occupied:

       1A    -20.512060     2A    -15.581596     3A    -11.342135
       4A    -11.275309     5A    -11.261337     6A    -11.243363
       7A    -11.240440     8A    -11.218717     9A     -1.367208
      10A     -1.258459    11A     -1.088054    12A     -1.001072
      13A     -0.972404    14A     -0.870834    15A     -0.829433
      16A     -0.727290    17A     -0.692968    18A     -0.666972
      19A     -0.641084    20A     -0.604906    21A     -0.588218
      22A     -0.571921    23A     -0.564118    24A     -0.560257
      25A     -0.523284    26A     -0.511749    27A     -0.509680
      28A     -0.491347    29A     -0.470195    30A     -0.410762
      31A     -0.369555

  @DF-RHF Final Energy:  -363.07279329732455

   => Energetics <=

    Nuclear Repulsion Energy =            394.1355217403166193
    One-Electron Energy =               -1274.4831775647471659
    Two-Electron Energy =                 517.2748625271060519
    Total Energy =                       -363.0727932973245515
  Basis Set: (AUG-CC-PVTZ AUX)
    Blend: AUG-CC-PVTZ-RI
    Molecular point group: c1

    Geometry (in Angstrom), charge = 0, multiplicity = 1:

       Center              X                  Y                   Z               Mass
    ------------   -----------------  -----------------  -----------------  -----------------
         O            0.007557853890     2.018497761494    -0.105144175927    15.994914619570
         N            0.252900853890    -0.270095238506    -0.349475175927    14.003074004430
         C           -0.473132146110    -1.486678238506    -0.020181175927    12.000000000000
         C           -1.936823046110    -1.024731538506     0.012164024073    12.000000000000
         C           -1.831207146110     0.447583761494     0.409991824073    12.000000000000
         C           -0.440591146110     0.874178761494    -0.042086175927    12.000000000000
         C            1.679431853890    -0.236855238506    -0.612591175927    12.000000000000
         C            2.515591853890    -0.383786238506     0.654960824073    12.000000000000
         H           -0.188348146110    -1.873707238506     0.969777824073     1.007825032230
         H           -0.267683146110    -2.268546238506    -0.759783175927     1.007825032230
         H           -2.577477146110    -1.623479238506     0.595733824073     1.007825032230
         H           -2.314959146110    -1.061023238506    -1.063164175927     1.007825032230
         H           -1.873988146110     0.540789761494     1.502267824073     1.007825032230
         H           -2.592955146110     1.109799761494    -0.007574175927     1.007825032230
         H            1.912929853890    -1.029880238506    -1.332189175927     1.007825032230
         H            1.879999853890     0.726444761494    -1.087983175927     1.007825032230
         H            2.290166853890     0.435344761494     1.342094824073     1.007825032230
         H            2.310867853890    -1.332304238506     1.159306824073     1.007825032230
         H            3.583012853890    -0.350867238506     0.416338824073     1.007825032230

  Basis Set: AUG-CC-PVTZ
    Blend: AUG-CC-PVTZ
  Basis Set: (AUG-CC-PVTZ AUX)
    Blend: AUG-CC-PVTZ-JKFIT
	 Reference Energy          =    -363.0727932973245515 [Eh]
	 Singles Energy            =      -0.0000000000000000 [Eh]
	 Same-Spin Energy          =      -0.3768032426408100 [Eh]
	 Opposite-Spin Energy      =      -1.2470585168202426 [Eh]
	 Correlation Energy        =      -1.6238617594610525 [Eh]
	 Total Energy              =    -364.6966550567856302 [Eh]

	 ================> DF-SCS-MP2 Energies <==================
	-----------------------------------------------------------
	 SCS Same-Spin Scale       =       0.3333333333333333 [-]
	 SCS Opposite-Spin Scale   =       1.2000000000000000 [-]
	 SCS Same-Spin Energy      =      -0.1256010808802700 [Eh]
	 SCS Opposite-Spin Energy  =      -1.4964702201842910 [Eh]
	 SCS Correlation Energy    =      -1.6220713010645609 [Eh]
	 SCS Total Energy          =    -364.6948645983891311 [Eh]
	-----------------------------------------------------------

  Dipole Moment: [D]
     X:    -0.4589      Y:    -3.9529      Z:     0.2893     Total:     3.9899

*** Psi4 exiting successfully. Buy a developer a beer!
