                               Psi4 1.4a3.dev225

  ==> Input File <==

--------------------------------------------------------------------------
#psi4
#
memory 32 gb

molecule  {
0 1
  O       -0.0101440     2.0708820    -0.1140410
  N        0.2351990    -0.2177110    -0.3583720
  C       -0.4908340    -1.4342940    -0.0290780
  C       -1.9502640    -0.9583450    -0.0482810
  C       -1.8489090     0.4999680     0.4010950
  C       -0.4582930     0.9265630    -0.0509830
  C        1.6125723    -0.1856164    -0.6124211
  C        2.4978900    -0.3314020     0.6460640
  H       -0.2060500    -1.8213230     0.9608810
  H       -0.2853850    -2.2161620    -0.7686800
  H       -2.5951790    -1.5710950     0.5868370
  H       -2.3326610    -1.0086390    -1.0720610
  H       -1.8916900     0.5931740     1.4933710
  H       -2.6106570     1.1621840    -0.0164710
  H        1.8952280    -0.9774960    -1.3410860
  H        1.8622980     0.7788290    -1.0968800
  H        2.2724650     0.4877290     1.3331980
  H        2.2931660    -1.2799200     1.1504100
  H        3.5653110    -0.2984830     0.4074420
units angstrom
no_reorient  #important for SAPT in psi4, default
symmetry c1  #important for SAPT in psi4, default
}

set PROPERTIES_ORIGIN ["COM"]
properties('MP2/aug-cc-pvtz', properties = ['dipole'])
--------------------------------------------------------------------------

    Molecular point group: c1
  Charge       = 0
  Multiplicity = 1
  Basis Set: AUG-CC-PVTZ
    Blend: AUG-CC-PVTZ
  Basis Set: (AUG-CC-PVTZ AUX)
    Blend: AUG-CC-PVTZ-JKFIT

    Orbital Energies [Eh]
    ---------------------

    Doubly Occupied:

       1A    -20.513917     2A    -15.582647     3A    -11.343441
       4A    -11.276576     5A    -11.259799     6A    -11.243752
       7A    -11.241390     8A    -11.217358     9A     -1.370355
      10A     -1.267292    11A     -1.092093    12A     -0.995543
      13A     -0.974364    14A     -0.873496    15A     -0.831809
      16A     -0.728795    17A     -0.696552    18A     -0.670307
      19A     -0.640272    20A     -0.604057    21A     -0.589623
      22A     -0.571950    23A     -0.566676    24A     -0.555364
      25A     -0.526942    26A     -0.510638    27A     -0.507912
      28A     -0.485267    29A     -0.477124    30A     -0.411811
      31A     -0.368746

  @DF-RHF Final Energy:  -363.07340015483675

   => Energetics <=

    Nuclear Repulsion Energy =            395.1120301427546337
    One-Electron Energy =               -1276.3791270889239513
    Two-Electron Energy =                 518.1936967913326271
    Total Energy =                       -363.0734001548366905
  Basis Set: (AUG-CC-PVTZ AUX)
    Blend: AUG-CC-PVTZ-RI
    Molecular point group: c1

    Geometry (in Angstrom), charge = 0, multiplicity = 1:

       Center              X                  Y                   Z               Mass
    ------------   -----------------  -----------------  -----------------  -----------------
         O            0.012322111390     2.017133441937    -0.100636241015    15.994914619570
         N            0.257665111390    -0.271459558063    -0.344967241015    14.003074004430
         C           -0.468367888610    -1.488042558063    -0.015673241015    12.000000000000
         C           -1.927797888610    -1.012093558063    -0.034876241015    12.000000000000
         C           -1.826442888610     0.446219441937     0.414499758985    12.000000000000
         C           -0.435826888610     0.872814441937    -0.037578241015    12.000000000000
         C            1.635038411390    -0.239364958063    -0.599016341015    12.000000000000
         C            2.520356111390    -0.385150558063     0.659468758985    12.000000000000
         H           -0.183583888610    -1.875071558063     0.974285758985     1.007825032230
         H           -0.262918888610    -2.269910558063    -0.755275241015     1.007825032230
         H           -2.572712888610    -1.624843558063     0.600241758985     1.007825032230
         H           -2.310194888610    -1.062387558063    -1.058656241015     1.007825032230
         H           -1.869223888610     0.539425441937     1.506775758985     1.007825032230
         H           -2.588190888610     1.108435441937    -0.003066241015     1.007825032230
         H            1.917694111390    -1.031244558063    -1.327681241015     1.007825032230
         H            1.884764111390     0.725080441937    -1.083475241015     1.007825032230
         H            2.294931111390     0.433980441937     1.346602758985     1.007825032230
         H            2.315632111390    -1.333668558063     1.163814758985     1.007825032230
         H            3.587777111390    -0.352231558063     0.420846758985     1.007825032230

  Basis Set: AUG-CC-PVTZ
    Blend: AUG-CC-PVTZ
  Basis Set: (AUG-CC-PVTZ AUX)
    Blend: AUG-CC-PVTZ-JKFIT
	 Reference Energy          =    -363.0734001548367473 [Eh]
	 Singles Energy            =      -0.0000000000000000 [Eh]
	 Same-Spin Energy          =      -0.3770993825851386 [Eh]
	 Opposite-Spin Energy      =      -1.2470966836647914 [Eh]
	 Correlation Energy        =      -1.6241960662499300 [Eh]
	 Total Energy              =    -364.6975962210866555 [Eh]

	 ================> DF-SCS-MP2 Energies <==================
	-----------------------------------------------------------
	 SCS Same-Spin Scale       =       0.3333333333333333 [-]
	 SCS Opposite-Spin Scale   =       1.2000000000000000 [-]
	 SCS Same-Spin Energy      =      -0.1256997941950462 [Eh]
	 SCS Opposite-Spin Energy  =      -1.4965160203977497 [Eh]
	 SCS Correlation Energy    =      -1.6222158145927958 [Eh]
	 SCS Total Energy          =    -364.6956159694295252 [Eh]
	-----------------------------------------------------------

  Dipole Moment: [D]
     X:    -0.6303      Y:    -3.9099      Z:     0.2660     Total:     3.9693

*** Psi4 exiting successfully. Buy a developer a beer!
