                               Psi4 1.3.2 release

  ==> Input File <==

--------------------------------------------------------------------------
#psi4
#
memory 32 gb

molecule  {
0 1
  O       -0.0101440     2.0708820    -0.1140410
  N        0.3461654    -0.1325743    -0.3913609
  C       -0.4908340    -1.4342940    -0.0290780
  C       -1.9502640    -0.9583450    -0.0482810
  C       -1.8489090     0.4999680     0.4010950
  C       -0.4582930     0.9265630    -0.0509830
  C        1.6617300    -0.1844710    -0.6214880
  C        2.4978900    -0.3314020     0.6460640
  H       -0.2060500    -1.8213230     0.9608810
  H       -0.2853850    -2.2161620    -0.7686800
  H       -2.5951790    -1.5710950     0.5868370
  H       -2.3326610    -1.0086390    -1.0720610
  H       -1.8916900     0.5931740     1.4933710
  H       -2.6106570     1.1621840    -0.0164710
  H        1.8952280    -0.9774960    -1.3410860
  H        1.8622980     0.7788290    -1.0968800
  H        2.2724650     0.4877290     1.3331980
  H        2.2931660    -1.2799200     1.1504100
  H        3.5653110    -0.2984830     0.4074420
units angstrom
no_reorient  #important for SAPT in psi4, default
symmetry c1  #important for SAPT in psi4, default
}

set PROPERTIES_ORIGIN ["COM"]
properties('MP2/aug-cc-pvtz', properties = ['dipole'])
--------------------------------------------------------------------------

    Molecular point group: c1
  Charge       = 0
  Multiplicity = 1
  Basis Set: AUG-CC-PVTZ
    Blend: AUG-CC-PVTZ
  Basis Set: (AUG-CC-PVTZ AUX)
    Blend: AUG-CC-PVTZ-JKFIT

    Orbital Energies [Eh]
    ---------------------

    Doubly Occupied:

       1A    -20.505917     2A    -15.578852     3A    -11.341817
       4A    -11.283566     5A    -11.249690     6A    -11.248052
       7A    -11.247439     8A    -11.213104     9A     -1.367753
      10A     -1.252347    11A     -1.102158    12A     -0.996157
      13A     -0.965028    14A     -0.883388    15A     -0.829810
      16A     -0.724718    17A     -0.689915    18A     -0.662162
      19A     -0.643887    20A     -0.614087    21A     -0.591779
      22A     -0.580600    23A     -0.555711    24A     -0.550123
      25A     -0.525909    26A     -0.515310    27A     -0.508776
      28A     -0.482114    29A     -0.471907    30A     -0.406984
      31A     -0.362270

  @DF-RHF Final Energy:  -363.05050840148414

   => Energetics <=

    Nuclear Repulsion Energy =            394.0642843008496357
    One-Electron Energy =               -1274.3269202840976959
    Two-Electron Energy =                 517.2121275817638661
    Total Energy =                       -363.0505084014841941
  Basis Set: (AUG-CC-PVTZ AUX)
    Blend: AUG-CC-PVTZ-RI
    Molecular point group: c1

    Geometry (in Angstrom), charge = 0, multiplicity = 1:

       Center              X                  Y                   Z               Mass
    ------------   -----------------  -----------------  -----------------  -----------------
         O           -0.006635140726     2.006469513987    -0.095589121307    15.994914619570
         N            0.349674259274    -0.196986786013    -0.372909021307    14.003074004430
         C           -0.487325140726    -1.498706486013    -0.010626121307    12.000000000000
         C           -1.946755140726    -1.022757486013    -0.029829121307    12.000000000000
         C           -1.845400140726     0.435555513987     0.419546878693    12.000000000000
         C           -0.454784140726     0.862150513987    -0.032531121307    12.000000000000
         C            1.665238859274    -0.248883486013    -0.603036121307    12.000000000000
         C            2.501398859274    -0.395814486013     0.664515878693    12.000000000000
         H           -0.202541140726    -1.885735486013     0.979332878693     1.007825032230
         H           -0.281876140726    -2.280574486013    -0.750228121307     1.007825032230
         H           -2.591670140726    -1.635507486013     0.605288878693     1.007825032230
         H           -2.329152140726    -1.073051486013    -1.053609121307     1.007825032230
         H           -1.888181140726     0.528761513987     1.511822878693     1.007825032230
         H           -2.607148140726     1.097771513987     0.001980878693     1.007825032230
         H            1.898736859274    -1.041908486013    -1.322634121307     1.007825032230
         H            1.865806859274     0.714416513987    -1.078428121307     1.007825032230
         H            2.275973859274     0.423316513987     1.351649878693     1.007825032230
         H            2.296674859274    -1.344332486013     1.168861878693     1.007825032230
         H            3.568819859274    -0.362895486013     0.425893878693     1.007825032230

  Basis Set: AUG-CC-PVTZ
    Blend: AUG-CC-PVTZ
  Basis Set: (AUG-CC-PVTZ AUX)
    Blend: AUG-CC-PVTZ-JKFIT
	 Reference Energy          =    -363.0505084014841373 [Eh]
	 Singles Energy            =      -0.0000000000000000 [Eh]
	 Same-Spin Energy          =      -0.3776475795237871 [Eh]
	 Opposite-Spin Energy      =      -1.2488606279152117 [Eh]
	 Correlation Energy        =      -1.6265082074389987 [Eh]
	 Total Energy              =    -364.6770166089231111 [Eh]

	 ================> DF-SCS-MP2 Energies <==================
	-----------------------------------------------------------
	 SCS Same-Spin Scale       =       0.3333333333333333 [-]
	 SCS Opposite-Spin Scale   =       1.2000000000000000 [-]
	 SCS Same-Spin Energy      =      -0.1258825265079290 [Eh]
	 SCS Opposite-Spin Energy  =      -1.4986327534982540 [Eh]
	 SCS Correlation Energy    =      -1.6245152800061831 [Eh]
	 SCS Total Energy          =    -364.6750236814903019 [Eh]
	-----------------------------------------------------------

  Dipole Moment: [D]
     X:    -0.8895      Y:    -4.1074      Z:     0.3429     Total:     4.2166

*** Psi4 exiting successfully. Buy a developer a beer!
