                               Psi4 1.3.2 release

  ==> Input File <==

--------------------------------------------------------------------------
#psi4
#
memory 32 gb

molecule  {
0 1
  O       -0.0101440     2.0708820    -0.1140410
  N        0.2351990    -0.2177110    -0.3583720
  C       -0.4908340    -1.4342940    -0.0290780
  C       -1.9502640    -0.9583450    -0.0482810
  C       -1.8489090     0.4999680     0.4010950
  C       -0.4582930     0.9265630    -0.0509830
  C        1.6617300    -0.1844710    -0.6214880
  C        2.4978900    -0.3314020     0.6460640
  H       -0.2060500    -1.8213230     0.9608810
  H       -0.2853850    -2.2161620    -0.7686800
  H       -2.6162035    -1.5795836     0.5561526
  H       -2.3326610    -1.0086390    -1.0720610
  H       -1.8916900     0.5931740     1.4933710
  H       -2.6106570     1.1621840    -0.0164710
  H        1.8952280    -0.9774960    -1.3410860
  H        1.8622980     0.7788290    -1.0968800
  H        2.2724650     0.4877290     1.3331980
  H        2.2931660    -1.2799200     1.1504100
  H        3.5653110    -0.2984830     0.4074420
units angstrom
no_reorient  #important for SAPT in psi4, default
symmetry c1  #important for SAPT in psi4, default
}

set PROPERTIES_ORIGIN ["COM"]
properties('MP2/aug-cc-pvtz', properties = ['dipole'])
--------------------------------------------------------------------------

    Molecular point group: c1
  Charge       = 0
  Multiplicity = 1
  Basis Set: AUG-CC-PVTZ
    Blend: AUG-CC-PVTZ
  Basis Set: (AUG-CC-PVTZ AUX)
    Blend: AUG-CC-PVTZ-JKFIT

    Orbital Energies [Eh]
    ---------------------

    Doubly Occupied:

       1A    -20.511737     2A    -15.581083     3A    -11.341551
       4A    -11.275124     5A    -11.260999     6A    -11.242415
       7A    -11.240201     8A    -11.218681     9A     -1.366979
      10A     -1.258577    11A     -1.087736    12A     -1.000499
      13A     -0.972109    14A     -0.870431    15A     -0.830030
      16A     -0.726491    17A     -0.692517    18A     -0.667958
      19A     -0.639563    20A     -0.604140    21A     -0.589312
      22A     -0.572141    23A     -0.562986    24A     -0.556203
      25A     -0.522270    26A     -0.513355    27A     -0.509504
      28A     -0.490388    29A     -0.476690    30A     -0.409643
      31A     -0.369602

  @DF-RHF Final Energy:  -363.07581604198498

   => Energetics <=

    Nuclear Repulsion Energy =            394.2522833658100581
    One-Electron Energy =               -1274.7343685775736049
    Two-Electron Energy =                 517.4062691697786249
    Total Energy =                       -363.0758160419849219
  Basis Set: (AUG-CC-PVTZ AUX)
    Blend: AUG-CC-PVTZ-RI
    Molecular point group: c1

    Geometry (in Angstrom), charge = 0, multiplicity = 1:

       Center              X                  Y                   Z               Mass
    ------------   -----------------  -----------------  -----------------  -----------------
         O            0.007293079336     2.017087548853    -0.099400635382    15.994914619570
         N            0.252636079336    -0.271505451147    -0.343731635382    14.003074004430
         C           -0.473396920664    -1.488088451147    -0.014437635382    12.000000000000
         C           -1.932826920664    -1.012139451147    -0.033640635382    12.000000000000
         C           -1.831471920664     0.446173548853     0.415735364618    12.000000000000
         C           -0.440855920664     0.872768548853    -0.036342635382    12.000000000000
         C            1.679167079336    -0.238265451147    -0.606847635382    12.000000000000
         C            2.515327079336    -0.385196451147     0.660704364618    12.000000000000
         H           -0.188612920664    -1.875117451147     0.975521364618     1.007825032230
         H           -0.267947920664    -2.269956451147    -0.754039635382     1.007825032230
         H           -2.598766420664    -1.633378051147     0.570792964618     1.007825032230
         H           -2.315223920664    -1.062433451147    -1.057420635382     1.007825032230
         H           -1.874252920664     0.539379548853     1.508011364618     1.007825032230
         H           -2.593219920664     1.108389548853    -0.001830635382     1.007825032230
         H            1.912665079336    -1.031290451147    -1.326445635382     1.007825032230
         H            1.879735079336     0.725034548853    -1.082239635382     1.007825032230
         H            2.289902079336     0.433934548853     1.347838364618     1.007825032230
         H            2.310603079336    -1.333714451147     1.165050364618     1.007825032230
         H            3.582748079336    -0.352277451147     0.422082364618     1.007825032230

  Basis Set: AUG-CC-PVTZ
    Blend: AUG-CC-PVTZ
  Basis Set: (AUG-CC-PVTZ AUX)
    Blend: AUG-CC-PVTZ-JKFIT
	 Reference Energy          =    -363.0758160419849787 [Eh]
	 Singles Energy            =      -0.0000000000000000 [Eh]
	 Same-Spin Energy          =      -0.3767764881168330 [Eh]
	 Opposite-Spin Energy      =      -1.2468783872154949 [Eh]
	 Correlation Energy        =      -1.6236548753323279 [Eh]
	 Total Energy              =    -364.6994709173172851 [Eh]

	 ================> DF-SCS-MP2 Energies <==================
	-----------------------------------------------------------
	 SCS Same-Spin Scale       =       0.3333333333333333 [-]
	 SCS Opposite-Spin Scale   =       1.2000000000000000 [-]
	 SCS Same-Spin Energy      =      -0.1255921627056110 [Eh]
	 SCS Opposite-Spin Energy  =      -1.4962540646585938 [Eh]
	 SCS Correlation Energy    =      -1.6218462273642047 [Eh]
	 SCS Total Energy          =    -364.6976622693491663 [Eh]
	-----------------------------------------------------------

  Dipole Moment: [D]
     X:    -0.4677      Y:    -3.9490      Z:     0.2458     Total:     3.9842

*** Psi4 exiting successfully. Buy a developer a beer!
