                               Psi4 1.3.2 release

  ==> Input File <==

--------------------------------------------------------------------------
#psi4
#
memory 32 gb

molecule  {
0 1
  O       -0.0101440     2.0708820    -0.1140410
  N        0.2351990    -0.2177110    -0.3583720
  C       -0.4908340    -1.4342940    -0.0290780
  C       -1.9502640    -0.9583450    -0.0482810
  C       -1.8489090     0.4999680     0.4010950
  C       -0.4582930     0.9265630    -0.0509830
  C        1.6617300    -0.1844710    -0.6214880
  C        2.4978900    -0.3314020     0.6460640
  H       -0.2060500    -1.8213230     0.9608810
  H       -0.2853850    -2.2161620    -0.7686800
  H       -2.5951790    -1.5710950     0.5868370
  H       -2.3326610    -1.0086390    -1.0720610
  H       -1.8994891     0.6101657     1.6924952
  H       -2.6106570     1.1621840    -0.0164710
  H        1.8952280    -0.9774960    -1.3410860
  H        1.8622980     0.7788290    -1.0968800
  H        2.2724650     0.4877290     1.3331980
  H        2.2931660    -1.2799200     1.1504100
  H        3.5653110    -0.2984830     0.4074420
units angstrom
no_reorient  #important for SAPT in psi4, default
symmetry c1  #important for SAPT in psi4, default
}

set PROPERTIES_ORIGIN ["COM"]
properties('MP2/aug-cc-pvtz', properties = ['dipole'])
--------------------------------------------------------------------------

    Molecular point group: c1
  Charge       = 0
  Multiplicity = 1
  Basis Set: AUG-CC-PVTZ
    Blend: AUG-CC-PVTZ
  Basis Set: (AUG-CC-PVTZ AUX)
    Blend: AUG-CC-PVTZ-JKFIT

    Orbital Energies [Eh]
    ---------------------

    Doubly Occupied:

       1A    -20.512047     2A    -15.582037     3A    -11.343053
       4A    -11.275667     5A    -11.261978     6A    -11.261511
       7A    -11.244672     8A    -11.218897     9A     -1.367400
      10A     -1.259279    11A     -1.086149    12A     -0.999416
      13A     -0.968790    14A     -0.870873    15A     -0.823317
      16A     -0.726074    17A     -0.688000    18A     -0.668515
      19A     -0.639642    20A     -0.602064    21A     -0.579788
      22A     -0.570568    23A     -0.560273    24A     -0.553986
      25A     -0.523848    26A     -0.513582    27A     -0.509519
      28A     -0.490576    29A     -0.463773    30A     -0.410360
      31A     -0.370024

  @DF-RHF Final Energy:  -363.05593278998668

   => Energetics <=

    Nuclear Repulsion Energy =            393.4024081957268208
    One-Electron Energy =               -1273.0253219446683488
    Two-Electron Energy =                 516.5669809589549004
    Total Energy =                       -363.0559327899866275
  Basis Set: (AUG-CC-PVTZ AUX)
    Blend: AUG-CC-PVTZ-RI
    Molecular point group: c1

    Geometry (in Angstrom), charge = 0, multiplicity = 1:

       Center              X                  Y                   Z               Mass
    ------------   -----------------  -----------------  -----------------  -----------------
         O            0.007175212249     2.016860463946    -0.101448729973    15.994914619570
         N            0.252518212249    -0.271732536054    -0.345779729973    14.003074004430
         C           -0.473514787751    -1.488315536054    -0.016485729973    12.000000000000
         C           -1.932944787751    -1.012366536054    -0.035688729973    12.000000000000
         C           -1.831589787751     0.445946463946     0.413687270027    12.000000000000
         C           -0.440973787751     0.872541463946    -0.038390729973    12.000000000000
         C            1.679049212249    -0.238492536054    -0.608895729973    12.000000000000
         C            2.515209212249    -0.385423536054     0.658656270027    12.000000000000
         H           -0.188730787751    -1.875344536054     0.973473270027     1.007825032230
         H           -0.268065787751    -2.270183536054    -0.756087729973     1.007825032230
         H           -2.577859787751    -1.625116536054     0.599429270027     1.007825032230
         H           -2.315341787751    -1.062660536054    -1.059468729973     1.007825032230
         H           -1.882169887751     0.556144163946     1.705087470027     1.007825032230
         H           -2.593337787751     1.108162463946    -0.003878729973     1.007825032230
         H            1.912547212249    -1.031517536054    -1.328493729973     1.007825032230
         H            1.879617212249     0.724807463946    -1.084287729973     1.007825032230
         H            2.289784212249     0.433707463946     1.345790270027     1.007825032230
         H            2.310485212249    -1.333941536054     1.163002270027     1.007825032230
         H            3.582630212249    -0.352504536054     0.420034270027     1.007825032230

  Basis Set: AUG-CC-PVTZ
    Blend: AUG-CC-PVTZ
  Basis Set: (AUG-CC-PVTZ AUX)
    Blend: AUG-CC-PVTZ-JKFIT
	 Reference Energy          =    -363.0559327899866844 [Eh]
	 Singles Energy            =      -0.0000000000000000 [Eh]
	 Same-Spin Energy          =      -0.3769422992484368 [Eh]
	 Opposite-Spin Energy      =      -1.2486107878738861 [Eh]
	 Correlation Energy        =      -1.6255530871223229 [Eh]
	 Total Energy              =    -364.6814858771090258 [Eh]

	 ================> DF-SCS-MP2 Energies <==================
	-----------------------------------------------------------
	 SCS Same-Spin Scale       =       0.3333333333333333 [-]
	 SCS Opposite-Spin Scale   =       1.2000000000000000 [-]
	 SCS Same-Spin Energy      =      -0.1256474330828123 [Eh]
	 SCS Opposite-Spin Energy  =      -1.4983329454486634 [Eh]
	 SCS Correlation Energy    =      -1.6239803785314757 [Eh]
	 SCS Total Energy          =    -364.6799131685181692 [Eh]
	-----------------------------------------------------------

  Dipole Moment: [D]
     X:    -0.4345      Y:    -3.9880      Z:     0.1531     Total:     4.0146

*** Psi4 exiting successfully. Buy a developer a beer!
