                               Psi4 1.3.2 release

  ==> Input File <==

--------------------------------------------------------------------------
#psi4
#
memory 32 gb

molecule  {
0 1
  O       -0.0101440     2.0708820    -0.1140410
  N        0.2351990    -0.2177110    -0.3583720
  C       -0.4908340    -1.4342940    -0.0290780
  C       -1.9502640    -0.9583450    -0.0482810
  C       -1.8489090     0.4999680     0.4010950
  C       -0.4982837     0.9003904    -0.0475108
  C        1.6617300    -0.1844710    -0.6214880
  C        2.4978900    -0.3314020     0.6460640
  H       -0.2060500    -1.8213230     0.9608810
  H       -0.2853850    -2.2161620    -0.7686800
  H       -2.5951790    -1.5710950     0.5868370
  H       -2.3326610    -1.0086390    -1.0720610
  H       -1.8916900     0.5931740     1.4933710
  H       -2.6106570     1.1621840    -0.0164710
  H        1.8952280    -0.9774960    -1.3410860
  H        1.8622980     0.7788290    -1.0968800
  H        2.2724650     0.4877290     1.3331980
  H        2.2931660    -1.2799200     1.1504100
  H        3.5653110    -0.2984830     0.4074420
units angstrom
no_reorient  #important for SAPT in psi4, default
symmetry c1  #important for SAPT in psi4, default
}

set PROPERTIES_ORIGIN ["COM"]
properties('MP2/aug-cc-pvtz', properties = ['dipole'])
--------------------------------------------------------------------------

    Molecular point group: c1
  Charge       = 0
  Multiplicity = 1
  Basis Set: AUG-CC-PVTZ
    Blend: AUG-CC-PVTZ
  Basis Set: (AUG-CC-PVTZ AUX)
    Blend: AUG-CC-PVTZ-JKFIT

    Orbital Energies [Eh]
    ---------------------

    Doubly Occupied:

       1A    -20.505581     2A    -15.584210     3A    -11.343613
       4A    -11.275571     5A    -11.262237     6A    -11.245064
       7A    -11.242307     8A    -11.218912     9A     -1.347403
      10A     -1.252855    11A     -1.094107    12A     -1.002786
      13A     -0.977241    14A     -0.872247    15A     -0.833108
      16A     -0.728914    17A     -0.695109    18A     -0.667919
      19A     -0.636533    20A     -0.606583    21A     -0.591311
      22A     -0.567686    23A     -0.563821    24A     -0.548172
      25A     -0.523369    26A     -0.513367    27A     -0.512390
      28A     -0.489871    29A     -0.470581    30A     -0.409715
      31A     -0.367281

  @DF-RHF Final Energy:  -363.06911713226805

   => Energetics <=

    Nuclear Repulsion Energy =            394.2035660076977592
    One-Electron Energy =               -1274.6456419714995718
    Two-Electron Energy =                 517.3729588315337651
    Total Energy =                       -363.0691171322680475
  Basis Set: (AUG-CC-PVTZ AUX)
    Blend: AUG-CC-PVTZ-RI
    Molecular point group: c1

    Geometry (in Angstrom), charge = 0, multiplicity = 1:

       Center              X                  Y                   Z               Mass
    ------------   -----------------  -----------------  -----------------  -----------------
         O            0.011349348331     2.019789221978    -0.100042555242    15.994914619570
         N            0.256692348331    -0.268803778022    -0.344373555242    14.003074004430
         C           -0.469340651669    -1.485386778022    -0.015079555242    12.000000000000
         C           -1.928770651669    -1.009437778022    -0.034282555242    12.000000000000
         C           -1.827415651669     0.448875221978     0.415093444758    12.000000000000
         C           -0.476790351669     0.849297621978    -0.033512355242    12.000000000000
         C            1.683223348331    -0.235563778022    -0.607489555242    12.000000000000
         C            2.519383348331    -0.382494778022     0.660062444758    12.000000000000
         H           -0.184556651669    -1.872415778022     0.974879444758     1.007825032230
         H           -0.263891651669    -2.267254778022    -0.754681555242     1.007825032230
         H           -2.573685651669    -1.622187778022     0.600835444758     1.007825032230
         H           -2.311167651669    -1.059731778022    -1.058062555242     1.007825032230
         H           -1.870196651669     0.542081221978     1.507369444758     1.007825032230
         H           -2.589163651669     1.111091221978    -0.002472555242     1.007825032230
         H            1.916721348331    -1.028588778022    -1.327087555242     1.007825032230
         H            1.883791348331     0.727736221978    -1.082881555242     1.007825032230
         H            2.293958348331     0.436636221978     1.347196444758     1.007825032230
         H            2.314659348331    -1.331012778022     1.164408444758     1.007825032230
         H            3.586804348331    -0.349575778022     0.421440444758     1.007825032230

  Basis Set: AUG-CC-PVTZ
    Blend: AUG-CC-PVTZ
  Basis Set: (AUG-CC-PVTZ AUX)
    Blend: AUG-CC-PVTZ-JKFIT
	 Reference Energy          =    -363.0691171322680475 [Eh]
	 Singles Energy            =      -0.0000000000000000 [Eh]
	 Same-Spin Energy          =      -0.3778558068400880 [Eh]
	 Opposite-Spin Energy      =      -1.2489090748510665 [Eh]
	 Correlation Energy        =      -1.6267648816911544 [Eh]
	 Total Energy              =    -364.6958820139591921 [Eh]

	 ================> DF-SCS-MP2 Energies <==================
	-----------------------------------------------------------
	 SCS Same-Spin Scale       =       0.3333333333333333 [-]
	 SCS Opposite-Spin Scale   =       1.2000000000000000 [-]
	 SCS Same-Spin Energy      =      -0.1259519356133627 [Eh]
	 SCS Opposite-Spin Energy  =      -1.4986908898212798 [Eh]
	 SCS Correlation Energy    =      -1.6246428254346426 [Eh]
	 SCS Total Energy          =    -364.6937599577026958 [Eh]
	-----------------------------------------------------------

  Dipole Moment: [D]
     X:    -0.5902      Y:    -4.1609      Z:     0.2874     Total:     4.2124

*** Psi4 exiting successfully. Buy a developer a beer!
