                               Psi4 1.3.2 release

  ==> Input File <==

--------------------------------------------------------------------------
#psi4
#
memory 32 gb

molecule  {
0 1
  O       -0.0101440     2.0708820    -0.1140410
  N        0.2351990    -0.2177110    -0.3583720
  C       -0.4908340    -1.4342940    -0.0290780
  C       -1.9502640    -0.9583450    -0.0482810
  C       -1.8621637     0.3092569     0.3423278
  C       -0.4582930     0.9265630    -0.0509830
  C        1.6617300    -0.1844710    -0.6214880
  C        2.4978900    -0.3314020     0.6460640
  H       -0.2060500    -1.8213230     0.9608810
  H       -0.2853850    -2.2161620    -0.7686800
  H       -2.5951790    -1.5710950     0.5868370
  H       -2.3326610    -1.0086390    -1.0720610
  H       -1.8916900     0.5931740     1.4933710
  H       -2.6106570     1.1621840    -0.0164710
  H        1.8952280    -0.9774960    -1.3410860
  H        1.8622980     0.7788290    -1.0968800
  H        2.2724650     0.4877290     1.3331980
  H        2.2931660    -1.2799200     1.1504100
  H        3.5653110    -0.2984830     0.4074420
units angstrom
no_reorient  #important for SAPT in psi4, default
symmetry c1  #important for SAPT in psi4, default
}

set PROPERTIES_ORIGIN ["COM"]
properties('MP2/aug-cc-pvtz', properties = ['dipole'])
--------------------------------------------------------------------------

    Molecular point group: c1
  Charge       = 0
  Multiplicity = 1
  Basis Set: AUG-CC-PVTZ
    Blend: AUG-CC-PVTZ
  Basis Set: (AUG-CC-PVTZ AUX)
    Blend: AUG-CC-PVTZ-JKFIT

    Orbital Energies [Eh]
    ---------------------

    Doubly Occupied:

       1A    -20.517477     2A    -15.579716     3A    -11.345878
       4A    -11.277462     5A    -11.260460     6A    -11.249994
       7A    -11.233004     8A    -11.218606     9A     -1.368719
      10A     -1.265050    11A     -1.117645    12A     -1.009931
      13A     -0.964337    14A     -0.876760    15A     -0.815766
      16A     -0.729642    17A     -0.698904    18A     -0.677667
      19A     -0.633338    20A     -0.606079    21A     -0.595991
      22A     -0.584330    23A     -0.567539    24A     -0.554621
      25A     -0.523065    26A     -0.515746    27A     -0.511941
      28A     -0.488354    29A     -0.450454    30A     -0.402938
      31A     -0.370402

  @DF-RHF Final Energy:  -363.02367704276924

   => Energetics <=

    Nuclear Repulsion Energy =            395.9546727366998766
    One-Electron Energy =               -1277.9330665906604736
    Two-Electron Energy =                 518.9547168111913606
    Total Energy =                       -363.0236770427692363
  Basis Set: (AUG-CC-PVTZ AUX)
    Blend: AUG-CC-PVTZ-RI
    Molecular point group: c1

    Geometry (in Angstrom), charge = 0, multiplicity = 1:

       Center              X                  Y                   Z               Mass
    ------------   -----------------  -----------------  -----------------  -----------------
         O            0.008512237701     2.037249347928    -0.093437974775    15.994914619570
         N            0.253855237701    -0.251343652072    -0.337768974775    14.003074004430
         C           -0.472177762299    -1.467926652072    -0.008474974775    12.000000000000
         C           -1.931607762299    -0.991977652072    -0.027677974775    12.000000000000
         C           -1.843507462299     0.275624247928     0.362930825225    12.000000000000
         C           -0.439636762299     0.892930347928    -0.030379974775    12.000000000000
         C            1.680386237701    -0.218103652072    -0.600884974775    12.000000000000
         C            2.516546237701    -0.365034652072     0.666667025225    12.000000000000
         H           -0.187393762299    -1.854955652072     0.981484025225     1.007825032230
         H           -0.266728762299    -2.249794652072    -0.748076974775     1.007825032230
         H           -2.576522762299    -1.604727652072     0.607440025225     1.007825032230
         H           -2.314004762299    -1.042271652072    -1.051457974775     1.007825032230
         H           -1.873033762299     0.559541347928     1.513974025225     1.007825032230
         H           -2.592000762299     1.128551347928     0.004132025225     1.007825032230
         H            1.913884237701    -1.011128652072    -1.320482974775     1.007825032230
         H            1.880954237701     0.745196347928    -1.076276974775     1.007825032230
         H            2.291121237701     0.454096347928     1.353801025225     1.007825032230
         H            2.311822237701    -1.313552652072     1.171013025225     1.007825032230
         H            3.583967237701    -0.332115652072     0.428045025225     1.007825032230

  Basis Set: AUG-CC-PVTZ
    Blend: AUG-CC-PVTZ
  Basis Set: (AUG-CC-PVTZ AUX)
    Blend: AUG-CC-PVTZ-JKFIT
	 Reference Energy          =    -363.0236770427692363 [Eh]
	 Singles Energy            =      -0.0000000000000000 [Eh]
	 Same-Spin Energy          =      -0.3803015052577696 [Eh]
	 Opposite-Spin Energy      =      -1.2513234312037462 [Eh]
	 Correlation Energy        =      -1.6316249364615159 [Eh]
	 Total Energy              =    -364.6553019792307282 [Eh]

	 ================> DF-SCS-MP2 Energies <==================
	-----------------------------------------------------------
	 SCS Same-Spin Scale       =       0.3333333333333333 [-]
	 SCS Opposite-Spin Scale   =       1.2000000000000000 [-]
	 SCS Same-Spin Energy      =      -0.1267671684192565 [Eh]
	 SCS Opposite-Spin Energy  =      -1.5015881174444954 [Eh]
	 SCS Correlation Energy    =      -1.6283552858637518 [Eh]
	 SCS Total Energy          =    -364.6520323286329699 [Eh]
	-----------------------------------------------------------

  Dipole Moment: [D]
     X:    -0.3596      Y:    -4.0047      Z:     0.1688     Total:     4.0243

*** Psi4 exiting successfully. Buy a developer a beer!
