                               Psi4 1.4a3.dev225

  ==> Input File <==

--------------------------------------------------------------------------
#psi4
#
memory 32 gb

molecule  {
0 1
  O       -0.0101440     2.0708820    -0.1140410
  N        0.2351990    -0.2177110    -0.3583720
  C       -0.4908340    -1.4342940    -0.0290780
  C       -1.9502640    -0.9583450    -0.0482810
  C       -1.8522227     0.4522902     0.3864032
  C       -0.4582930     0.9265630    -0.0509830
  C        1.6617300    -0.1844710    -0.6214880
  C        2.4978900    -0.3314020     0.6460640
  H       -0.2060500    -1.8213230     0.9608810
  H       -0.2853850    -2.2161620    -0.7686800
  H       -2.5951790    -1.5710950     0.5868370
  H       -2.3326610    -1.0086390    -1.0720610
  H       -1.8916900     0.5931740     1.4933710
  H       -2.6106570     1.1621840    -0.0164710
  H        1.8952280    -0.9774960    -1.3410860
  H        1.8622980     0.7788290    -1.0968800
  H        2.2724650     0.4877290     1.3331980
  H        2.2931660    -1.2799200     1.1504100
  H        3.5653110    -0.2984830     0.4074420
units angstrom
no_reorient  #important for SAPT in psi4, default
symmetry c1  #important for SAPT in psi4, default
}

set PROPERTIES_ORIGIN ["COM"]
properties('MP2/aug-cc-pvtz', properties = ['dipole'])
--------------------------------------------------------------------------

    Molecular point group: c1
  Charge       = 0
  Multiplicity = 1
  Basis Set: AUG-CC-PVTZ
    Blend: AUG-CC-PVTZ
  Basis Set: (AUG-CC-PVTZ AUX)
    Blend: AUG-CC-PVTZ-JKFIT

    Orbital Energies [Eh]
    ---------------------

    Doubly Occupied:

       1A    -20.512930     2A    -15.580535     3A    -11.342208
       4A    -11.275268     5A    -11.260724     6A    -11.241912
       7A    -11.240326     8A    -11.218598     9A     -1.367140
      10A     -1.259734    11A     -1.093414    12A     -1.002516
      13A     -0.970220    14A     -0.871624    15A     -0.826704
      16A     -0.726630    17A     -0.694106    18A     -0.669506
      19A     -0.637371    20A     -0.604272    21A     -0.586812
      22A     -0.572666    23A     -0.563927    24A     -0.558083
      25A     -0.523192    26A     -0.514528    27A     -0.512230
      28A     -0.489400    29A     -0.473450    30A     -0.409090
      31A     -0.369726

  @DF-RHF Final Energy:  -363.07249585636612

   => Energetics <=

    Nuclear Repulsion Energy =            394.6758805014248424
    One-Electron Energy =               -1275.5590716362539752
    Two-Electron Energy =                 517.8106952784629584
    Total Energy =                       -363.0724958563661176
  Basis Set: (AUG-CC-PVTZ AUX)
    Blend: AUG-CC-PVTZ-RI
    Molecular point group: c1

    Geometry (in Angstrom), charge = 0, multiplicity = 1:

       Center              X                  Y                   Z               Mass
    ------------   -----------------  -----------------  -----------------  -----------------
         O            0.007457341053     2.022071262355    -0.098115068801    15.994914619570
         N            0.252800341053    -0.266521737645    -0.342446068801    14.003074004430
         C           -0.473232658947    -1.483104737645    -0.013152068801    12.000000000000
         C           -1.932662658947    -1.007155737645    -0.032355068801    12.000000000000
         C           -1.834621358947     0.403479462355     0.402329131199    12.000000000000
         C           -0.440691658947     0.877752262355    -0.035057068801    12.000000000000
         C            1.679331341053    -0.233281737645    -0.605562068801    12.000000000000
         C            2.515491341053    -0.380212737645     0.661989931199    12.000000000000
         H           -0.188448658947    -1.870133737645     0.976806931199     1.007825032230
         H           -0.267783658947    -2.264972737645    -0.752754068801     1.007825032230
         H           -2.577577658947    -1.619905737645     0.602762931199     1.007825032230
         H           -2.315059658947    -1.057449737645    -1.056135068801     1.007825032230
         H           -1.874088658947     0.544363262355     1.509296931199     1.007825032230
         H           -2.593055658947     1.113373262355    -0.000545068801     1.007825032230
         H            1.912829341053    -1.026306737645    -1.325160068801     1.007825032230
         H            1.879899341053     0.730018262355    -1.080954068801     1.007825032230
         H            2.290066341053     0.438918262355     1.349123931199     1.007825032230
         H            2.310767341053    -1.328730737645     1.166335931199     1.007825032230
         H            3.582912341053    -0.347293737645     0.423367931199     1.007825032230

  Basis Set: AUG-CC-PVTZ
    Blend: AUG-CC-PVTZ
  Basis Set: (AUG-CC-PVTZ AUX)
    Blend: AUG-CC-PVTZ-JKFIT
	 Reference Energy          =    -363.0724958563661176 [Eh]
	 Singles Energy            =      -0.0000000000000000 [Eh]
	 Same-Spin Energy          =      -0.3773107437937365 [Eh]
	 Opposite-Spin Energy      =      -1.2474318932921897 [Eh]
	 Correlation Energy        =      -1.6247426370859261 [Eh]
	 Total Energy              =    -364.6972384934520619 [Eh]

	 ================> DF-SCS-MP2 Energies <==================
	-----------------------------------------------------------
	 SCS Same-Spin Scale       =       0.3333333333333333 [-]
	 SCS Opposite-Spin Scale   =       1.2000000000000000 [-]
	 SCS Same-Spin Energy      =      -0.1257702479312455 [Eh]
	 SCS Opposite-Spin Energy  =      -1.4969182719506275 [Eh]
	 SCS Correlation Energy    =      -1.6226885198818730 [Eh]
	 SCS Total Energy          =    -364.6951843762479939 [Eh]
	-----------------------------------------------------------

  Dipole Moment: [D]
     X:    -0.4476      Y:    -3.9561      Z:     0.2380     Total:     3.9885

*** Psi4 exiting successfully. Buy a developer a beer!
