                               Psi4 1.3.2 release

  ==> Input File <==

--------------------------------------------------------------------------
#psi4
#
memory 32 gb

molecule  {
0 1
  O       -0.0101440     2.0708820    -0.1140410
  N        0.2351990    -0.2177110    -0.3583720
  C       -0.4908340    -1.4342940    -0.0290780
  C       -1.9502640    -0.9583450    -0.0482810
  C       -1.8489090     0.4999680     0.4010950
  C       -0.4582930     0.9265630    -0.0509830
  C        1.6617300    -0.1844710    -0.6214880
  C        2.4978900    -0.3314020     0.6460640
  H       -0.2060500    -1.8213230     0.9608810
  H       -0.2853850    -2.2161620    -0.7686800
  H       -2.5507993    -1.5518895     0.6458480
  H       -2.3326610    -1.0086390    -1.0720610
  H       -1.8916900     0.5931740     1.4933710
  H       -2.6106570     1.1621840    -0.0164710
  H        1.8952280    -0.9774960    -1.3410860
  H        1.8622980     0.7788290    -1.0968800
  H        2.2724650     0.4877290     1.3331980
  H        2.2931660    -1.2799200     1.1504100
  H        3.5653110    -0.2984830     0.4074420
units angstrom
no_reorient  #important for SAPT in psi4, default
symmetry c1  #important for SAPT in psi4, default
}

set PROPERTIES_ORIGIN ["COM"]
properties('MP2/aug-cc-pvtz', properties = ['dipole'])
--------------------------------------------------------------------------

    Molecular point group: c1
  Charge       = 0
  Multiplicity = 1
  Basis Set: AUG-CC-PVTZ
    Blend: AUG-CC-PVTZ
  Basis Set: (AUG-CC-PVTZ AUX)
    Blend: AUG-CC-PVTZ-JKFIT

    Orbital Energies [Eh]
    ---------------------

    Doubly Occupied:

       1A    -20.511335     2A    -15.580708     3A    -11.340937
       4A    -11.274458     5A    -11.260730     6A    -11.242497
       7A    -11.239501     8A    -11.218597     9A     -1.366620
      10A     -1.258316    11A     -1.088168    12A     -1.000534
      13A     -0.972002    14A     -0.869899    15A     -0.828372
      16A     -0.726163    17A     -0.694929    18A     -0.667328
      19A     -0.639102    20A     -0.605544    21A     -0.589395
      22A     -0.572448    23A     -0.563962    24A     -0.551049
      25A     -0.524146    26A     -0.512439    27A     -0.509661
      28A     -0.489546    29A     -0.478746    30A     -0.408822
      31A     -0.369323

  @DF-RHF Final Energy:  -363.07534261669491

   => Energetics <=

    Nuclear Repulsion Energy =            394.3636232558267807
    One-Electron Energy =               -1274.9673766975288345
    Two-Electron Energy =                 517.5284108250071995
    Total Energy =                       -363.0753426166949112
  Basis Set: (AUG-CC-PVTZ AUX)
    Blend: AUG-CC-PVTZ-RI
    Molecular point group: c1

    Geometry (in Angstrom), charge = 0, multiplicity = 1:

       Center              X                  Y                   Z               Mass
    ------------   -----------------  -----------------  -----------------  -----------------
         O            0.006710185622     2.016840734172    -0.100200016535    15.994914619570
         N            0.252053185622    -0.271752265828    -0.344531016535    14.003074004430
         C           -0.473979814378    -1.488335265828    -0.015237016535    12.000000000000
         C           -1.933409814378    -1.012386265828    -0.034440016535    12.000000000000
         C           -1.832054814378     0.445926734172     0.414935983465    12.000000000000
         C           -0.441438814378     0.872521734172    -0.037142016535    12.000000000000
         C            1.678584185622    -0.238512265828    -0.607647016535    12.000000000000
         C            2.514744185622    -0.385443265828     0.659904983465    12.000000000000
         H           -0.189195814378    -1.875364265828     0.974721983465     1.007825032230
         H           -0.268530814378    -2.270203265828    -0.754839016535     1.007825032230
         H           -2.533945114378    -1.605930765828     0.659688983465     1.007825032230
         H           -2.315806814378    -1.062680265828    -1.058220016535     1.007825032230
         H           -1.874835814378     0.539132734172     1.507211983465     1.007825032230
         H           -2.593802814378     1.108142734172    -0.002630016535     1.007825032230
         H            1.912082185622    -1.031537265828    -1.327245016535     1.007825032230
         H            1.879152185622     0.724787734172    -1.083039016535     1.007825032230
         H            2.289319185622     0.433687734172     1.347038983465     1.007825032230
         H            2.310020185622    -1.333961265828     1.164250983465     1.007825032230
         H            3.582165185622    -0.352524265828     0.421282983465     1.007825032230

  Basis Set: AUG-CC-PVTZ
    Blend: AUG-CC-PVTZ
  Basis Set: (AUG-CC-PVTZ AUX)
    Blend: AUG-CC-PVTZ-JKFIT
	 Reference Energy          =    -363.0753426166949112 [Eh]
	 Singles Energy            =      -0.0000000000000000 [Eh]
	 Same-Spin Energy          =      -0.3768433834399239 [Eh]
	 Opposite-Spin Energy      =      -1.2470679902016637 [Eh]
	 Correlation Energy        =      -1.6239113736415876 [Eh]
	 Total Energy              =    -364.6992539903365014 [Eh]

	 ================> DF-SCS-MP2 Energies <==================
	-----------------------------------------------------------
	 SCS Same-Spin Scale       =       0.3333333333333333 [-]
	 SCS Opposite-Spin Scale   =       1.2000000000000000 [-]
	 SCS Same-Spin Energy      =      -0.1256144611466413 [Eh]
	 SCS Opposite-Spin Energy  =      -1.4964815882419964 [Eh]
	 SCS Correlation Energy    =      -1.6220960493886376 [Eh]
	 SCS Total Energy          =    -364.6974386660835421 [Eh]
	-----------------------------------------------------------

  Dipole Moment: [D]
     X:    -0.4529      Y:    -3.9407      Z:     0.2657     Total:     3.9755

*** Psi4 exiting successfully. Buy a developer a beer!
