                               Psi4 1.3.2 release

  ==> Input File <==

--------------------------------------------------------------------------
#psi4
#
memory 32 gb

molecule  {
0 1
  O       -0.0101440     2.0708820    -0.1140410
  N        0.2351990    -0.2177110    -0.3583720
  C       -0.4908340    -1.4342940    -0.0290780
  C       -1.9502640    -0.9583450    -0.0482810
  C       -1.8489090     0.4999680     0.4010950
  C       -0.4478563     0.9064571    -0.0370700
  C        1.6617300    -0.1844710    -0.6214880
  C        2.4978900    -0.3314020     0.6460640
  H       -0.2060500    -1.8213230     0.9608810
  H       -0.2853850    -2.2161620    -0.7686800
  H       -2.5951790    -1.5710950     0.5868370
  H       -2.3326610    -1.0086390    -1.0720610
  H       -1.8916900     0.5931740     1.4933710
  H       -2.6106570     1.1621840    -0.0164710
  H        1.8952280    -0.9774960    -1.3410860
  H        1.8622980     0.7788290    -1.0968800
  H        2.2724650     0.4877290     1.3331980
  H        2.2931660    -1.2799200     1.1504100
  H        3.5653110    -0.2984830     0.4074420
units angstrom
no_reorient  #important for SAPT in psi4, default
symmetry c1  #important for SAPT in psi4, default
}

set PROPERTIES_ORIGIN ["COM"]
properties('MP2/aug-cc-pvtz', properties = ['dipole'])
--------------------------------------------------------------------------

    Molecular point group: c1
  Charge       = 0
  Multiplicity = 1
  Basis Set: AUG-CC-PVTZ
    Blend: AUG-CC-PVTZ
  Basis Set: (AUG-CC-PVTZ AUX)
    Blend: AUG-CC-PVTZ-JKFIT

    Orbital Energies [Eh]
    ---------------------

    Doubly Occupied:

       1A    -20.507059     2A    -15.584655     3A    -11.340287
       4A    -11.276591     5A    -11.262684     6A    -11.242857
       7A    -11.239843     8A    -11.219974     9A     -1.358780
      10A     -1.260677    11A     -1.089396    12A     -1.003083
      13A     -0.973587    14A     -0.872674    15A     -0.831826
      16A     -0.727370    17A     -0.695233    18A     -0.667763
      19A     -0.638603    20A     -0.605429    21A     -0.590003
      22A     -0.570457    23A     -0.563877    24A     -0.550954
      25A     -0.523508    26A     -0.514117    27A     -0.510372
      28A     -0.491354    29A     -0.474855    30A     -0.407091
      31A     -0.371128

  @DF-RHF Final Energy:  -363.07457051482083

   => Energetics <=

    Nuclear Repulsion Energy =            394.4664938854226079
    One-Electron Energy =               -1275.1499513084700084
    Two-Electron Energy =                 517.6088869082266228
    Total Energy =                       -363.0745705148208344
  Basis Set: (AUG-CC-PVTZ AUX)
    Blend: AUG-CC-PVTZ-RI
    Molecular point group: c1

    Geometry (in Angstrom), charge = 0, multiplicity = 1:

       Center              X                  Y                   Z               Mass
    ------------   -----------------  -----------------  -----------------  -----------------
         O            0.005998207076     2.019145449571    -0.101150488540    15.994914619570
         N            0.251341207076    -0.269447550429    -0.345481488540    14.003074004430
         C           -0.474691792924    -1.486030550429    -0.016187488540    12.000000000000
         C           -1.934121792924    -1.010081550429    -0.035390488540    12.000000000000
         C           -1.832766792924     0.448231449571     0.413985511460    12.000000000000
         C           -0.431714092924     0.854720549571    -0.024179488540    12.000000000000
         C            1.677872207076    -0.236207550429    -0.608597488540    12.000000000000
         C            2.514032207076    -0.383138550429     0.658954511460    12.000000000000
         H           -0.189907792924    -1.873059550429     0.973771511460     1.007825032230
         H           -0.269242792924    -2.267898550429    -0.755789488540     1.007825032230
         H           -2.579036792924    -1.622831550429     0.599727511460     1.007825032230
         H           -2.316518792924    -1.060375550429    -1.059170488540     1.007825032230
         H           -1.875547792924     0.541437449571     1.506261511460     1.007825032230
         H           -2.594514792924     1.110447449571    -0.003580488540     1.007825032230
         H            1.911370207076    -1.029232550429    -1.328195488540     1.007825032230
         H            1.878440207076     0.727092449571    -1.083989488540     1.007825032230
         H            2.288607207076     0.435992449571     1.346088511460     1.007825032230
         H            2.309308207076    -1.331656550429     1.163300511460     1.007825032230
         H            3.581453207076    -0.350219550429     0.420332511460     1.007825032230

  Basis Set: AUG-CC-PVTZ
    Blend: AUG-CC-PVTZ
  Basis Set: (AUG-CC-PVTZ AUX)
    Blend: AUG-CC-PVTZ-JKFIT
	 Reference Energy          =    -363.0745705148208344 [Eh]
	 Singles Energy            =      -0.0000000000000000 [Eh]
	 Same-Spin Energy          =      -0.3769999776497241 [Eh]
	 Opposite-Spin Energy      =      -1.2473616244950285 [Eh]
	 Correlation Energy        =      -1.6243616021447527 [Eh]
	 Total Energy              =    -364.6989321169655796 [Eh]

	 ================> DF-SCS-MP2 Energies <==================
	-----------------------------------------------------------
	 SCS Same-Spin Scale       =       0.3333333333333333 [-]
	 SCS Opposite-Spin Scale   =       1.2000000000000000 [-]
	 SCS Same-Spin Energy      =      -0.1256666592165747 [Eh]
	 SCS Opposite-Spin Energy  =      -1.4968339493940341 [Eh]
	 SCS Correlation Energy    =      -1.6225006086106089 [Eh]
	 SCS Total Energy          =    -364.6970711234314422 [Eh]
	-----------------------------------------------------------

  Dipole Moment: [D]
     X:    -0.4138      Y:    -4.1225      Z:     0.2463     Total:     4.1505

*** Psi4 exiting successfully. Buy a developer a beer!
