                               Psi4 1.3.2 release

  ==> Input File <==

--------------------------------------------------------------------------
#psi4
#
memory 32 gb

molecule  {
0 1
  O       -0.0101440     2.0708820    -0.1140410
  N        0.2351990    -0.2177110    -0.3583720
  C       -0.4908340    -1.4342940    -0.0290780
  C       -1.9502640    -0.9583450    -0.0482810
  C       -1.8489090     0.4999680     0.4010950
  C       -0.4582930     0.9265630    -0.0509830
  C        1.6617300    -0.1844710    -0.6214880
  C        2.4978900    -0.3314020     0.6460640
  H       -0.2060500    -1.8213230     0.9608810
  H       -0.2853850    -2.2161620    -0.7686800
  H       -2.5274982    -1.5411959     0.6741028
  H       -2.3326610    -1.0086390    -1.0720610
  H       -1.8916900     0.5931740     1.4933710
  H       -2.6106570     1.1621840    -0.0164710
  H        1.8952280    -0.9774960    -1.3410860
  H        1.8622980     0.7788290    -1.0968800
  H        2.2724650     0.4877290     1.3331980
  H        2.2931660    -1.2799200     1.1504100
  H        3.5653110    -0.2984830     0.4074420
units angstrom
no_reorient  #important for SAPT in psi4, default
symmetry c1  #important for SAPT in psi4, default
}

set PROPERTIES_ORIGIN ["COM"]
properties('MP2/aug-cc-pvtz', properties = ['dipole'])
--------------------------------------------------------------------------

    Molecular point group: c1
  Charge       = 0
  Multiplicity = 1
  Basis Set: AUG-CC-PVTZ
    Blend: AUG-CC-PVTZ
  Basis Set: (AUG-CC-PVTZ AUX)
    Blend: AUG-CC-PVTZ-JKFIT

    Orbital Energies [Eh]
    ---------------------

    Doubly Occupied:

       1A    -20.511202     2A    -15.580578     3A    -11.340728
       4A    -11.274257     5A    -11.260639     6A    -11.242519
       7A    -11.239287     8A    -11.218569     9A     -1.366500
      10A     -1.258232    11A     -1.088354    12A     -1.000563
      13A     -0.971983    14A     -0.869741    15A     -0.827859
      16A     -0.726064    17A     -0.695838    18A     -0.667194
      19A     -0.638934    20A     -0.606028    21A     -0.589429
      22A     -0.572608    23A     -0.564376    24A     -0.549193
      25A     -0.524673    26A     -0.512018    27A     -0.509687
      28A     -0.489211    29A     -0.479292    30A     -0.408512
      31A     -0.369231

  @DF-RHF Final Energy:  -363.07458255087181

   => Energetics <=

    Nuclear Repulsion Energy =            394.4053443726938326
    One-Electron Energy =               -1275.0532526113727272
    Two-Electron Energy =                 517.5733256878070279
    Total Energy =                       -363.0745825508718099
  Basis Set: (AUG-CC-PVTZ AUX)
    Blend: AUG-CC-PVTZ-RI
    Molecular point group: c1

    Geometry (in Angstrom), charge = 0, multiplicity = 1:

       Center              X                  Y                   Z               Mass
    ------------   -----------------  -----------------  -----------------  -----------------
         O            0.006502522128     2.016745430931    -0.100451828273    15.994914619570
         N            0.251845522128    -0.271847569069    -0.344782828273    14.003074004430
         C           -0.474187477872    -1.488430569069    -0.015488828273    12.000000000000
         C           -1.933617477872    -1.012481569069    -0.034691828273    12.000000000000
         C           -1.832262477872     0.445831430931     0.414684171727    12.000000000000
         C           -0.441646477872     0.872426430931    -0.037393828273    12.000000000000
         C            1.678376522128    -0.238607569069    -0.607898828273    12.000000000000
         C            2.514536522128    -0.385538569069     0.659653171727    12.000000000000
         H           -0.189403477872    -1.875459569069     0.974470171727     1.007825032230
         H           -0.268738477872    -2.270298569069    -0.755090828273     1.007825032230
         H           -2.510851677872    -1.595332469069     0.687691971727     1.007825032230
         H           -2.316014477872    -1.062775569069    -1.058471828273     1.007825032230
         H           -1.875043477872     0.539037430931     1.506960171727     1.007825032230
         H           -2.594010477872     1.108047430931    -0.002881828273     1.007825032230
         H            1.911874522128    -1.031632569069    -1.327496828273     1.007825032230
         H            1.878944522128     0.724692430931    -1.083290828273     1.007825032230
         H            2.289111522128     0.433592430931     1.346787171727     1.007825032230
         H            2.309812522128    -1.334056569069     1.163999171727     1.007825032230
         H            3.581957522128    -0.352619569069     0.421031171727     1.007825032230

  Basis Set: AUG-CC-PVTZ
    Blend: AUG-CC-PVTZ
  Basis Set: (AUG-CC-PVTZ AUX)
    Blend: AUG-CC-PVTZ-JKFIT
	 Reference Energy          =    -363.0745825508718099 [Eh]
	 Singles Energy            =      -0.0000000000000000 [Eh]
	 Same-Spin Energy          =      -0.3768937436114056 [Eh]
	 Opposite-Spin Energy      =      -1.2471707219230526 [Eh]
	 Correlation Energy        =      -1.6240644655344583 [Eh]
	 Total Energy              =    -364.6986470164062553 [Eh]

	 ================> DF-SCS-MP2 Energies <==================
	-----------------------------------------------------------
	 SCS Same-Spin Scale       =       0.3333333333333333 [-]
	 SCS Opposite-Spin Scale   =       1.2000000000000000 [-]
	 SCS Same-Spin Energy      =      -0.1256312478704685 [Eh]
	 SCS Opposite-Spin Energy  =      -1.4966048663076630 [Eh]
	 SCS Correlation Energy    =      -1.6222361141781314 [Eh]
	 SCS Total Energy          =    -364.6968186650499320 [Eh]
	-----------------------------------------------------------

  Dipole Moment: [D]
     X:    -0.4476      Y:    -3.9372      Z:     0.2702     Total:     3.9718

*** Psi4 exiting successfully. Buy a developer a beer!
