                               Psi4 1.4a3.dev225

  ==> Input File <==

--------------------------------------------------------------------------
#psi4
#
memory 32 gb

molecule  {
0 1
  O       -0.0101440     2.0708820    -0.1140410
  N        0.2351990    -0.2177110    -0.3583720
  C       -0.4908340    -1.4342940    -0.0290780
  C       -1.9502640    -0.9583450    -0.0482810
  C       -1.8489090     0.4999680     0.4010950
  C       -0.4582930     0.9265630    -0.0509830
  C        1.6617300    -0.1844710    -0.6214880
  C        2.4978900    -0.3314020     0.6460640
  H       -0.1931101    -1.8389086     1.0058622
  H       -0.2853850    -2.2161620    -0.7686800
  H       -2.5951790    -1.5710950     0.5868370
  H       -2.3326610    -1.0086390    -1.0720610
  H       -1.8916900     0.5931740     1.4933710
  H       -2.6106570     1.1621840    -0.0164710
  H        1.8952280    -0.9774960    -1.3410860
  H        1.8622980     0.7788290    -1.0968800
  H        2.2724650     0.4877290     1.3331980
  H        2.2931660    -1.2799200     1.1504100
  H        3.5653110    -0.2984830     0.4074420
units angstrom
no_reorient  #important for SAPT in psi4, default
symmetry c1  #important for SAPT in psi4, default
}

set PROPERTIES_ORIGIN ["COM"]
properties('MP2/aug-cc-pvtz', properties = ['dipole'])
--------------------------------------------------------------------------

    Molecular point group: c1
  Charge       = 0
  Multiplicity = 1
  Basis Set: AUG-CC-PVTZ
    Blend: AUG-CC-PVTZ
  Basis Set: (AUG-CC-PVTZ AUX)
    Blend: AUG-CC-PVTZ-JKFIT

    Orbital Energies [Eh]
    ---------------------

    Doubly Occupied:

       1A    -20.512144     2A    -15.581865     3A    -11.341821
       4A    -11.280925     5A    -11.261140     6A    -11.242992
       7A    -11.240233     8A    -11.218561     9A     -1.367339
      10A     -1.258768    11A     -1.087948    12A     -1.000674
      13A     -0.969852    14A     -0.870070    15A     -0.828366
      16A     -0.725825    17A     -0.689683    18A     -0.668213
      19A     -0.639743    20A     -0.604728    21A     -0.585888
      22A     -0.572143    23A     -0.563252    24A     -0.554658
      25A     -0.521993    26A     -0.513074    27A     -0.509989
      28A     -0.490416    29A     -0.476603    30A     -0.409772
      31A     -0.369143

  @DF-RHF Final Energy:  -363.07380037239028

   => Energetics <=

    Nuclear Repulsion Energy =            394.0503008010903727
    One-Electron Energy =               -1274.3325563202754438
    Two-Electron Energy =                 517.2084551467949041
    Total Energy =                       -363.0738003723902239
  Basis Set: (AUG-CC-PVTZ AUX)
    Blend: AUG-CC-PVTZ-RI
    Molecular point group: c1

    Geometry (in Angstrom), charge = 0, multiplicity = 1:

       Center              X                  Y                   Z               Mass
    ------------   -----------------  -----------------  -----------------  -----------------
         O            0.006990382640     2.017168622915    -0.100074980494    15.994914619570
         N            0.252333382640    -0.271424377085    -0.344405980494    14.003074004430
         C           -0.473699617360    -1.488007377085    -0.015111980494    12.000000000000
         C           -1.933129617360    -1.012058377085    -0.034314980494    12.000000000000
         C           -1.831774617360     0.446254622915     0.415061019506    12.000000000000
         C           -0.441158617360     0.872849622915    -0.037016980494    12.000000000000
         C            1.678864382640    -0.238184377085    -0.607521980494    12.000000000000
         C            2.515024382640    -0.385115377085     0.660030019506    12.000000000000
         H           -0.175975717360    -1.892621977085     1.019828219506     1.007825032230
         H           -0.268250617360    -2.269875377085    -0.754713980494     1.007825032230
         H           -2.578044617360    -1.624808377085     0.600803019506     1.007825032230
         H           -2.315526617360    -1.062352377085    -1.058094980494     1.007825032230
         H           -1.874555617360     0.539460622915     1.507337019506     1.007825032230
         H           -2.593522617360     1.108470622915    -0.002504980494     1.007825032230
         H            1.912362382640    -1.031209377085    -1.327119980494     1.007825032230
         H            1.879432382640     0.725115622915    -1.082913980494     1.007825032230
         H            2.289599382640     0.434015622915     1.347164019506     1.007825032230
         H            2.310300382640    -1.333633377085     1.164376019506     1.007825032230
         H            3.582445382640    -0.352196377085     0.421408019506     1.007825032230

  Basis Set: AUG-CC-PVTZ
    Blend: AUG-CC-PVTZ
  Basis Set: (AUG-CC-PVTZ AUX)
    Blend: AUG-CC-PVTZ-JKFIT
	 Reference Energy          =    -363.0738003723902807 [Eh]
	 Singles Energy            =      -0.0000000000000000 [Eh]
	 Same-Spin Energy          =      -0.3768505099601878 [Eh]
	 Opposite-Spin Energy      =      -1.2473064906956073 [Eh]
	 Correlation Energy        =      -1.6241570006557950 [Eh]
	 Total Energy              =    -364.6979573730460515 [Eh]

	 ================> DF-SCS-MP2 Energies <==================
	-----------------------------------------------------------
	 SCS Same-Spin Scale       =       0.3333333333333333 [-]
	 SCS Opposite-Spin Scale   =       1.2000000000000000 [-]
	 SCS Same-Spin Energy      =      -0.1256168366533959 [Eh]
	 SCS Opposite-Spin Energy  =      -1.4967677888347286 [Eh]
	 SCS Correlation Energy    =      -1.6223846254881245 [Eh]
	 SCS Total Energy          =    -364.6961849978783903 [Eh]
	-----------------------------------------------------------

  Dipole Moment: [D]
     X:    -0.4704      Y:    -3.9082      Z:     0.2189     Total:     3.9425

*** Psi4 exiting successfully. Buy a developer a beer!
