                               Psi4 1.3.2 release

  ==> Input File <==

--------------------------------------------------------------------------
#psi4
#
memory 32 gb

molecule  {
0 1
  O       -0.0101440     2.0708820    -0.1140410
  N        0.2786331    -0.2437848    -0.3550239
  C       -0.4908340    -1.4342940    -0.0290780
  C       -1.9502640    -0.9583450    -0.0482810
  C       -1.8489090     0.4999680     0.4010950
  C       -0.4582930     0.9265630    -0.0509830
  C        1.6617300    -0.1844710    -0.6214880
  C        2.4978900    -0.3314020     0.6460640
  H       -0.2060500    -1.8213230     0.9608810
  H       -0.2853850    -2.2161620    -0.7686800
  H       -2.5951790    -1.5710950     0.5868370
  H       -2.3326610    -1.0086390    -1.0720610
  H       -1.8916900     0.5931740     1.4933710
  H       -2.6106570     1.1621840    -0.0164710
  H        1.8952280    -0.9774960    -1.3410860
  H        1.8622980     0.7788290    -1.0968800
  H        2.2724650     0.4877290     1.3331980
  H        2.2931660    -1.2799200     1.1504100
  H        3.5653110    -0.2984830     0.4074420
units angstrom
no_reorient  #important for SAPT in psi4, default
symmetry c1  #important for SAPT in psi4, default
}

set PROPERTIES_ORIGIN ["COM"]
properties('MP2/aug-cc-pvtz', properties = ['dipole'])
--------------------------------------------------------------------------

    Molecular point group: c1
  Charge       = 0
  Multiplicity = 1
  Basis Set: AUG-CC-PVTZ
    Blend: AUG-CC-PVTZ
  Basis Set: (AUG-CC-PVTZ AUX)
    Blend: AUG-CC-PVTZ-JKFIT

    Orbital Energies [Eh]
    ---------------------

    Doubly Occupied:

       1A    -20.518352     2A    -15.577445     3A    -11.347635
       4A    -11.273992     5A    -11.255931     6A    -11.244146
       7A    -11.243323     8A    -11.215153     9A     -1.368000
      10A     -1.257066    11A     -1.092609    12A     -0.997151
      13A     -0.967824    14A     -0.872368    15A     -0.825942
      16A     -0.728134    17A     -0.691792    18A     -0.667695
      19A     -0.641053    20A     -0.605136    21A     -0.588484
      22A     -0.572088    23A     -0.565272    24A     -0.555638
      25A     -0.522900    26A     -0.514394    27A     -0.509599
      28A     -0.489869    29A     -0.478017    30A     -0.411680
      31A     -0.363585

  @DF-RHF Final Energy:  -363.07134889661950

   => Energetics <=

    Nuclear Repulsion Energy =            393.9821459230582832
    One-Electron Energy =               -1274.1824455284047417
    Two-Electron Energy =                 517.1289507087269612
    Total Energy =                       -363.0713488966194973
  Basis Set: (AUG-CC-PVTZ AUX)
    Blend: AUG-CC-PVTZ-RI
    Molecular point group: c1

    Geometry (in Angstrom), charge = 0, multiplicity = 1:

       Center              X                  Y                   Z               Mass
    ------------   -----------------  -----------------  -----------------  -----------------
         O            0.001727308953     2.020240586645    -0.100088691646    15.994914619570
         N            0.290504408953    -0.294426213355    -0.341071591646    14.003074004430
         C           -0.478962691047    -1.484935413355    -0.015125691646    12.000000000000
         C           -1.938392691047    -1.008986413355    -0.034328691646    12.000000000000
         C           -1.837037691047     0.449326586645     0.415047308354    12.000000000000
         C           -0.446421691047     0.875921586645    -0.037030691646    12.000000000000
         C            1.673601308953    -0.235112413355    -0.607535691646    12.000000000000
         C            2.509761308953    -0.382043413355     0.660016308354    12.000000000000
         H           -0.194178691047    -1.871964413355     0.974833308354     1.007825032230
         H           -0.273513691047    -2.266803413355    -0.754727691646     1.007825032230
         H           -2.583307691047    -1.621736413355     0.600789308354     1.007825032230
         H           -2.320789691047    -1.059280413355    -1.058108691646     1.007825032230
         H           -1.879818691047     0.542532586645     1.507323308354     1.007825032230
         H           -2.598785691047     1.111542586645    -0.002518691646     1.007825032230
         H            1.907099308953    -1.028137413355    -1.327133691646     1.007825032230
         H            1.874169308953     0.728187586645    -1.082927691646     1.007825032230
         H            2.284336308953     0.437087586645     1.347150308354     1.007825032230
         H            2.305037308953    -1.330561413355     1.164362308354     1.007825032230
         H            3.577182308953    -0.349124413355     0.421394308354     1.007825032230

  Basis Set: AUG-CC-PVTZ
    Blend: AUG-CC-PVTZ
  Basis Set: (AUG-CC-PVTZ AUX)
    Blend: AUG-CC-PVTZ-JKFIT
	 Reference Energy          =    -363.0713488966194973 [Eh]
	 Singles Energy            =      -0.0000000000000000 [Eh]
	 Same-Spin Energy          =      -0.3773119473479430 [Eh]
	 Opposite-Spin Energy      =      -1.2478055141096616 [Eh]
	 Correlation Energy        =      -1.6251174614576045 [Eh]
	 Total Energy              =    -364.6964663580770889 [Eh]

	 ================> DF-SCS-MP2 Energies <==================
	-----------------------------------------------------------
	 SCS Same-Spin Scale       =       0.3333333333333333 [-]
	 SCS Opposite-Spin Scale   =       1.2000000000000000 [-]
	 SCS Same-Spin Energy      =      -0.1257706491159810 [Eh]
	 SCS Opposite-Spin Energy  =      -1.4973666169315938 [Eh]
	 SCS Correlation Energy    =      -1.6231372660475749 [Eh]
	 SCS Total Energy          =    -364.6944861626670900 [Eh]
	-----------------------------------------------------------

  Dipole Moment: [D]
     X:    -0.6722      Y:    -3.7458      Z:     0.2702     Total:     3.8152

*** Psi4 exiting successfully. Buy a developer a beer!
