                               Psi4 1.4a3.dev225

  ==> Input File <==

--------------------------------------------------------------------------
#psi4
#
memory 32 gb

molecule  {
0 1
  O       -0.0101440     2.0708820    -0.1140410
  N        0.2351990    -0.2177110    -0.3583720
  C       -0.4908340    -1.4342940    -0.0290780
  C       -1.9502640    -0.9583450    -0.0482810
  C       -1.8489090     0.4999680     0.4010950
  C       -0.4582930     0.9265630    -0.0509830
  C        1.6617300    -0.1844710    -0.6214880
  C        2.4978900    -0.3314020     0.6460640
  H       -0.2060500    -1.8213230     0.9608810
  H       -0.2853850    -2.2161620    -0.7686800
  H       -2.5951790    -1.5710950     0.5868370
  H       -2.3326610    -1.0086390    -1.0720610
  H       -1.8909101     0.5914748     1.4734586
  H       -2.6106570     1.1621840    -0.0164710
  H        1.8952280    -0.9774960    -1.3410860
  H        1.8622980     0.7788290    -1.0968800
  H        2.2724650     0.4877290     1.3331980
  H        2.2931660    -1.2799200     1.1504100
  H        3.5653110    -0.2984830     0.4074420
units angstrom
no_reorient  #important for SAPT in psi4, default
symmetry c1  #important for SAPT in psi4, default
}

set PROPERTIES_ORIGIN ["COM"]
properties('MP2/aug-cc-pvtz', properties = ['dipole'])
--------------------------------------------------------------------------

    Molecular point group: c1
  Charge       = 0
  Multiplicity = 1
  Basis Set: AUG-CC-PVTZ
    Blend: AUG-CC-PVTZ
  Basis Set: (AUG-CC-PVTZ AUX)
    Blend: AUG-CC-PVTZ-JKFIT

    Orbital Energies [Eh]
    ---------------------

    Doubly Occupied:

       1A    -20.511601     2A    -15.580891     3A    -11.341225
       4A    -11.274840     5A    -11.260871     6A    -11.242251
       7A    -11.237603     8A    -11.218641     9A     -1.366846
      10A     -1.258448    11A     -1.088231    12A     -1.000762
      13A     -0.972587    14A     -0.870214    15A     -0.830393
      16A     -0.726530    17A     -0.694005    18A     -0.667669
      19A     -0.639477    20A     -0.605301    21A     -0.590457
      22A     -0.572343    23A     -0.563319    24A     -0.554601
      25A     -0.522868    26A     -0.513079    27A     -0.509623
      28A     -0.490116    29A     -0.478421    30A     -0.409326
      31A     -0.369480

  @DF-RHF Final Energy:  -363.07602095069564

   => Energetics <=

    Nuclear Repulsion Energy =            394.3858770529623712
    One-Electron Energy =               -1274.9997626572830995
    Two-Electron Energy =                 517.5378646536250926
    Total Energy =                       -363.0760209506956926
  Basis Set: (AUG-CC-PVTZ AUX)
    Blend: AUG-CC-PVTZ-RI
    Molecular point group: c1

    Geometry (in Angstrom), charge = 0, multiplicity = 1:

       Center              X                  Y                   Z               Mass
    ------------   -----------------  -----------------  -----------------  -----------------
         O            0.007098754695     2.017027040529    -0.099496637338    15.994914619570
         N            0.252441754695    -0.271565959471    -0.343827637338    14.003074004430
         C           -0.473591245305    -1.488148959471    -0.014533637338    12.000000000000
         C           -1.933021245305    -1.012199959471    -0.033736637338    12.000000000000
         C           -1.831666245305     0.446113040529     0.415639362662    12.000000000000
         C           -0.441050245305     0.872708040529    -0.036438637338    12.000000000000
         C            1.678972754695    -0.238325959471    -0.606943637338    12.000000000000
         C            2.515132754695    -0.385256959471     0.660608362662    12.000000000000
         H           -0.188807245305    -1.875177959471     0.975425362662     1.007825032230
         H           -0.268142245305    -2.270016959471    -0.754135637338     1.007825032230
         H           -2.577936245305    -1.624949959471     0.601381362662     1.007825032230
         H           -2.315418245305    -1.062493959471    -1.057516637338     1.007825032230
         H           -1.873667345305     0.537619840529     1.488002962662     1.007825032230
         H           -2.593414245305     1.108329040529    -0.001926637338     1.007825032230
         H            1.912470754695    -1.031350959471    -1.326541637338     1.007825032230
         H            1.879540754695     0.724974040529    -1.082335637338     1.007825032230
         H            2.289707754695     0.433874040529     1.347742362662     1.007825032230
         H            2.310408754695    -1.333774959471     1.164954362662     1.007825032230
         H            3.582553754695    -0.352337959471     0.421986362662     1.007825032230

  Basis Set: AUG-CC-PVTZ
    Blend: AUG-CC-PVTZ
  Basis Set: (AUG-CC-PVTZ AUX)
    Blend: AUG-CC-PVTZ-JKFIT
	 Reference Energy          =    -363.0760209506956357 [Eh]
	 Singles Energy            =      -0.0000000000000000 [Eh]
	 Same-Spin Energy          =      -0.3767738039498932 [Eh]
	 Opposite-Spin Energy      =      -1.2467964817424646 [Eh]
	 Correlation Energy        =      -1.6235702856923577 [Eh]
	 Total Energy              =    -364.6995912363880166 [Eh]

	 ================> DF-SCS-MP2 Energies <==================
	-----------------------------------------------------------
	 SCS Same-Spin Scale       =       0.3333333333333333 [-]
	 SCS Opposite-Spin Scale   =       1.2000000000000000 [-]
	 SCS Same-Spin Energy      =      -0.1255912679832977 [Eh]
	 SCS Opposite-Spin Energy  =      -1.4961557780909576 [Eh]
	 SCS Correlation Energy    =      -1.6217470460742553 [Eh]
	 SCS Total Energy          =    -364.6977679967698691 [Eh]
	-----------------------------------------------------------

  Dipole Moment: [D]
     X:    -0.4645      Y:    -3.9433      Z:     0.2603     Total:     3.9791

*** Psi4 exiting successfully. Buy a developer a beer!
