                               Psi4 1.3.2 release

  ==> Input File <==

--------------------------------------------------------------------------
#psi4
#
memory 32 gb

molecule  {
0 1
  O       -0.0101440     2.0708820    -0.1140410
  N        0.2351990    -0.2177110    -0.3583720
  C       -0.6158688    -1.3478463    -0.0205696
  C       -1.9502640    -0.9583450    -0.0482810
  C       -1.8489090     0.4999680     0.4010950
  C       -0.4582930     0.9265630    -0.0509830
  C        1.6617300    -0.1844710    -0.6214880
  C        2.4978900    -0.3314020     0.6460640
  H       -0.2060500    -1.8213230     0.9608810
  H       -0.2853850    -2.2161620    -0.7686800
  H       -2.5951790    -1.5710950     0.5868370
  H       -2.3326610    -1.0086390    -1.0720610
  H       -1.8916900     0.5931740     1.4933710
  H       -2.6106570     1.1621840    -0.0164710
  H        1.8952280    -0.9774960    -1.3410860
  H        1.8622980     0.7788290    -1.0968800
  H        2.2724650     0.4877290     1.3331980
  H        2.2931660    -1.2799200     1.1504100
  H        3.5653110    -0.2984830     0.4074420
units angstrom
no_reorient  #important for SAPT in psi4, default
symmetry c1  #important for SAPT in psi4, default
}

set PROPERTIES_ORIGIN ["COM"]
properties('MP2/aug-cc-pvtz', properties = ['dipole'])
--------------------------------------------------------------------------

    Molecular point group: c1
  Charge       = 0
  Multiplicity = 1
  Basis Set: AUG-CC-PVTZ
    Blend: AUG-CC-PVTZ
  Basis Set: (AUG-CC-PVTZ AUX)
    Blend: AUG-CC-PVTZ-JKFIT

    Orbital Energies [Eh]
    ---------------------

    Doubly Occupied:

       1A    -20.510438     2A    -15.581266     3A    -11.339629
       4A    -11.282885     5A    -11.265140     6A    -11.242308
       7A    -11.236841     8A    -11.219600     9A     -1.367416
      10A     -1.264801    11A     -1.108050    12A     -1.006501
      13A     -0.973415    14A     -0.873171    15A     -0.824311
      16A     -0.728162    17A     -0.696832    18A     -0.668970
      19A     -0.635599    20A     -0.606884    21A     -0.586534
      22A     -0.575922    23A     -0.567123    24A     -0.563214
      25A     -0.527187    26A     -0.520320    27A     -0.501684
      28A     -0.496320    29A     -0.466205    30A     -0.407379
      31A     -0.362463

  @DF-RHF Final Energy:  -363.04726647760572

   => Energetics <=

    Nuclear Repulsion Energy =            395.8998136051682195
    One-Electron Energy =               -1277.8810178824378454
    Two-Electron Energy =                 518.9339377996639087
    Total Energy =                       -363.0472664776057172
  Basis Set: (AUG-CC-PVTZ AUX)
    Blend: AUG-CC-PVTZ-RI
    Molecular point group: c1

    Geometry (in Angstrom), charge = 0, multiplicity = 1:

       Center              X                  Y                   Z               Mass
    ------------   -----------------  -----------------  -----------------  -----------------
         O            0.020373866589     2.007838434639    -0.100576975370    15.994914619570
         N            0.265716866589    -0.280754565361    -0.344907975370    14.003074004430
         C           -0.585350933411    -1.410889865361    -0.007105575370    12.000000000000
         C           -1.919746133411    -1.021388565361    -0.034816975370    12.000000000000
         C           -1.818391133411     0.436924434639     0.414559024630    12.000000000000
         C           -0.427775133411     0.863519434639    -0.037518975370    12.000000000000
         C            1.692247866589    -0.247514565361    -0.608023975370    12.000000000000
         C            2.528407866589    -0.394445565361     0.659528024630    12.000000000000
         H           -0.175532133411    -1.884366565361     0.974345024630     1.007825032230
         H           -0.254867133411    -2.279205565361    -0.755215975370     1.007825032230
         H           -2.564661133411    -1.634138565361     0.600301024630     1.007825032230
         H           -2.302143133411    -1.071682565361    -1.058596975370     1.007825032230
         H           -1.861172133411     0.530130434639     1.506835024630     1.007825032230
         H           -2.580139133411     1.099140434639    -0.003006975370     1.007825032230
         H            1.925745866589    -1.040539565361    -1.327621975370     1.007825032230
         H            1.892815866589     0.715785434639    -1.083415975370     1.007825032230
         H            2.302982866589     0.424685434639     1.346662024630     1.007825032230
         H            2.323683866589    -1.342963565361     1.163874024630     1.007825032230
         H            3.595828866589    -0.361526565361     0.420906024630     1.007825032230

  Basis Set: AUG-CC-PVTZ
    Blend: AUG-CC-PVTZ
  Basis Set: (AUG-CC-PVTZ AUX)
    Blend: AUG-CC-PVTZ-JKFIT
	 Reference Energy          =    -363.0472664776057172 [Eh]
	 Singles Energy            =      -0.0000000000000000 [Eh]
	 Same-Spin Energy          =      -0.3785179788332889 [Eh]
	 Opposite-Spin Energy      =      -1.2490559381209518 [Eh]
	 Correlation Energy        =      -1.6275739169542407 [Eh]
	 Total Energy              =    -364.6748403945599648 [Eh]

	 ================> DF-SCS-MP2 Energies <==================
	-----------------------------------------------------------
	 SCS Same-Spin Scale       =       0.3333333333333333 [-]
	 SCS Opposite-Spin Scale   =       1.2000000000000000 [-]
	 SCS Same-Spin Energy      =      -0.1261726596110963 [Eh]
	 SCS Opposite-Spin Energy  =      -1.4988671257451422 [Eh]
	 SCS Correlation Energy    =      -1.6250397853562386 [Eh]
	 SCS Total Energy          =    -364.6723062629619676 [Eh]
	-----------------------------------------------------------

  Dipole Moment: [D]
     X:    -0.5333      Y:    -3.8267      Z:     0.2494     Total:     3.8717

*** Psi4 exiting successfully. Buy a developer a beer!
