                               Psi4 1.3.2 release

  ==> Input File <==

--------------------------------------------------------------------------
#psi4
#
memory 32 gb

molecule  {
0 1
  O        0.0642130     2.0370744    -0.1406023
  N        0.2351990    -0.2177110    -0.3583720
  C       -0.4908340    -1.4342940    -0.0290780
  C       -1.9502640    -0.9583450    -0.0482810
  C       -1.8489090     0.4999680     0.4010950
  C       -0.4582930     0.9265630    -0.0509830
  C        1.6617300    -0.1844710    -0.6214880
  C        2.4978900    -0.3314020     0.6460640
  H       -0.2060500    -1.8213230     0.9608810
  H       -0.2853850    -2.2161620    -0.7686800
  H       -2.5951790    -1.5710950     0.5868370
  H       -2.3326610    -1.0086390    -1.0720610
  H       -1.8916900     0.5931740     1.4933710
  H       -2.6106570     1.1621840    -0.0164710
  H        1.8952280    -0.9774960    -1.3410860
  H        1.8622980     0.7788290    -1.0968800
  H        2.2724650     0.4877290     1.3331980
  H        2.2931660    -1.2799200     1.1504100
  H        3.5653110    -0.2984830     0.4074420
units angstrom
no_reorient  #important for SAPT in psi4, default
symmetry c1  #important for SAPT in psi4, default
}

set PROPERTIES_ORIGIN ["COM"]
properties('MP2/aug-cc-pvtz', properties = ['dipole'])
--------------------------------------------------------------------------

    Molecular point group: c1
  Charge       = 0
  Multiplicity = 1
  Basis Set: AUG-CC-PVTZ
    Blend: AUG-CC-PVTZ
  Basis Set: (AUG-CC-PVTZ AUX)
    Blend: AUG-CC-PVTZ-JKFIT

    Orbital Energies [Eh]
    ---------------------

    Doubly Occupied:

       1A    -20.510425     2A    -15.577219     3A    -11.341332
       4A    -11.273545     5A    -11.258123     6A    -11.244364
       7A    -11.243646     8A    -11.216890     9A     -1.368329
      10A     -1.254521    11A     -1.088195    12A     -0.999272
      13A     -0.972303    14A     -0.868866    15A     -0.829528
      16A     -0.725053    17A     -0.692984    18A     -0.667663
      19A     -0.639568    20A     -0.603816    21A     -0.589221
      22A     -0.570854    23A     -0.562721    24A     -0.554780
      25A     -0.521984    26A     -0.511470    27A     -0.509631
      28A     -0.488688    29A     -0.478243    30A     -0.410799
      31A     -0.366562

  @DF-RHF Final Energy:  -363.07439529451858

   => Energetics <=

    Nuclear Repulsion Energy =            394.8514773311675299
    One-Electron Energy =               -1275.9705536956585092
    Two-Electron Energy =                 518.0446810699723983
    Total Energy =                       -363.0743952945185811
  Basis Set: (AUG-CC-PVTZ AUX)
    Blend: AUG-CC-PVTZ-RI
    Molecular point group: c1

    Geometry (in Angstrom), charge = 0, multiplicity = 1:

       Center              X                  Y                   Z               Mass
    ------------   -----------------  -----------------  -----------------  -----------------
         O            0.070945450928     1.987986134970    -0.122478498323    15.994914619570
         N            0.241931450928    -0.266799265030    -0.340248198323    14.003074004430
         C           -0.484101549072    -1.483382265030    -0.010954198323    12.000000000000
         C           -1.943531549072    -1.007433265030    -0.030157198323    12.000000000000
         C           -1.842176549072     0.450879734970     0.419218801677    12.000000000000
         C           -0.451560549072     0.877474734970    -0.032859198323    12.000000000000
         C            1.668462450928    -0.233559265030    -0.603364198323    12.000000000000
         C            2.504622450928    -0.380490265030     0.664187801677    12.000000000000
         H           -0.199317549072    -1.870411265030     0.979004801677     1.007825032230
         H           -0.278652549072    -2.265250265030    -0.750556198323     1.007825032230
         H           -2.588446549072    -1.620183265030     0.604960801677     1.007825032230
         H           -2.325928549072    -1.057727265030    -1.053937198323     1.007825032230
         H           -1.884957549072     0.544085734970     1.511494801677     1.007825032230
         H           -2.603924549072     1.113095734970     0.001652801677     1.007825032230
         H            1.901960450928    -1.026584265030    -1.322962198323     1.007825032230
         H            1.869030450928     0.729740734970    -1.078756198323     1.007825032230
         H            2.279197450928     0.438640734970     1.351321801677     1.007825032230
         H            2.299898450928    -1.329008265030     1.168533801677     1.007825032230
         H            3.572043450928    -0.347571265030     0.425565801677     1.007825032230

  Basis Set: AUG-CC-PVTZ
    Blend: AUG-CC-PVTZ
  Basis Set: (AUG-CC-PVTZ AUX)
    Blend: AUG-CC-PVTZ-JKFIT
	 Reference Energy          =    -363.0743952945185811 [Eh]
	 Singles Energy            =      -0.0000000000000000 [Eh]
	 Same-Spin Energy          =      -0.3770104373316878 [Eh]
	 Opposite-Spin Energy      =      -1.2471204313823634 [Eh]
	 Correlation Energy        =      -1.6241308687140512 [Eh]
	 Total Energy              =    -364.6985261632326569 [Eh]

	 ================> DF-SCS-MP2 Energies <==================
	-----------------------------------------------------------
	 SCS Same-Spin Scale       =       0.3333333333333333 [-]
	 SCS Opposite-Spin Scale   =       1.2000000000000000 [-]
	 SCS Same-Spin Energy      =      -0.1256701457772292 [Eh]
	 SCS Opposite-Spin Energy  =      -1.4965445176588361 [Eh]
	 SCS Correlation Energy    =      -1.6222146634360652 [Eh]
	 SCS Total Energy          =    -364.6966099579546494 [Eh]
	-----------------------------------------------------------

  Dipole Moment: [D]
     X:    -0.6781      Y:    -3.8608      Z:     0.3130     Total:     3.9324

*** Psi4 exiting successfully. Buy a developer a beer!
