                               Psi4 1.3.2 release

  ==> Input File <==

--------------------------------------------------------------------------
#psi4
#
memory 32 gb

molecule  {
0 1
  O       -0.0101440     2.0708820    -0.1140410
  N        0.2351990    -0.2177110    -0.3583720
  C       -0.4908340    -1.4342940    -0.0290780
  C       -1.9502640    -0.9583450    -0.0482810
  C       -1.8489090     0.4999680     0.4010950
  C       -0.4582930     0.9265630    -0.0509830
  C        1.6617300    -0.1844710    -0.6214880
  C        2.4978900    -0.3314020     0.6460640
  H       -0.2060500    -1.8213230     0.9608810
  H       -0.2853850    -2.2161620    -0.7686800
  H       -2.5951790    -1.5710950     0.5868370
  H       -2.3326610    -1.0086390    -1.0720610
  H       -1.8061536     0.5166529     1.4972145
  H       -2.6106570     1.1621840    -0.0164710
  H        1.8952280    -0.9774960    -1.3410860
  H        1.8622980     0.7788290    -1.0968800
  H        2.2724650     0.4877290     1.3331980
  H        2.2931660    -1.2799200     1.1504100
  H        3.5653110    -0.2984830     0.4074420
units angstrom
no_reorient  #important for SAPT in psi4, default
symmetry c1  #important for SAPT in psi4, default
}

set PROPERTIES_ORIGIN ["COM"]
properties('MP2/aug-cc-pvtz', properties = ['dipole'])
--------------------------------------------------------------------------

    Molecular point group: c1
  Charge       = 0
  Multiplicity = 1
  Basis Set: AUG-CC-PVTZ
    Blend: AUG-CC-PVTZ
  Basis Set: (AUG-CC-PVTZ AUX)
    Blend: AUG-CC-PVTZ-JKFIT

    Orbital Energies [Eh]
    ---------------------

    Doubly Occupied:

       1A    -20.511632     2A    -15.580713     3A    -11.340954
       4A    -11.274984     5A    -11.260808     6A    -11.242053
       7A    -11.240662     8A    -11.218663     9A     -1.366930
      10A     -1.258518    11A     -1.088671    12A     -1.000620
      13A     -0.972244    14A     -0.870180    15A     -0.828332
      16A     -0.725608    17A     -0.694185    18A     -0.668801
      19A     -0.638753    20A     -0.604335    21A     -0.592876
      22A     -0.572966    23A     -0.561974    24A     -0.555149
      25A     -0.523033    26A     -0.513062    27A     -0.507347
      28A     -0.490921    29A     -0.477573    30A     -0.408973
      31A     -0.369616

  @DF-RHF Final Energy:  -363.07478371431807

   => Energetics <=

    Nuclear Repulsion Energy =            394.4694093403067541
    One-Electron Energy =               -1275.1661157401717901
    Two-Electron Energy =                 517.6219226855469060
    Total Energy =                       -363.0747837143180732
  Basis Set: (AUG-CC-PVTZ AUX)
    Blend: AUG-CC-PVTZ-RI
    Molecular point group: c1

    Geometry (in Angstrom), charge = 0, multiplicity = 1:

       Center              X                  Y                   Z               Mass
    ------------   -----------------  -----------------  -----------------  -----------------
         O            0.006343389886     2.017693866438    -0.099708354089    15.994914619570
         N            0.251686389886    -0.270899133562    -0.344039354089    14.003074004430
         C           -0.474346610114    -1.487482133562    -0.014745354089    12.000000000000
         C           -1.933776610114    -1.011533133562    -0.033948354089    12.000000000000
         C           -1.832421610114     0.446779866438     0.415427645911    12.000000000000
         C           -0.441805610114     0.873374866438    -0.036650354089    12.000000000000
         C            1.678217389886    -0.237659133562    -0.607155354089    12.000000000000
         C            2.514377389886    -0.384590133562     0.660396645911    12.000000000000
         H           -0.189562610114    -1.874511133562     0.975213645911     1.007825032230
         H           -0.268897610114    -2.269350133562    -0.754347354089     1.007825032230
         H           -2.578691610114    -1.624283133562     0.601169645911     1.007825032230
         H           -2.316173610114    -1.061827133562    -1.057728354089     1.007825032230
         H           -1.789666210114     0.463464766438     1.511547145911     1.007825032230
         H           -2.594169610114     1.108995866438    -0.002138354089     1.007825032230
         H            1.911715389886    -1.030684133562    -1.326753354089     1.007825032230
         H            1.878785389886     0.725640866438    -1.082547354089     1.007825032230
         H            2.288952389886     0.434540866438     1.347530645911     1.007825032230
         H            2.309653389886    -1.333108133562     1.164742645911     1.007825032230
         H            3.581798389886    -0.351671133562     0.421774645911     1.007825032230

  Basis Set: AUG-CC-PVTZ
    Blend: AUG-CC-PVTZ
  Basis Set: (AUG-CC-PVTZ AUX)
    Blend: AUG-CC-PVTZ-JKFIT
	 Reference Energy          =    -363.0747837143180732 [Eh]
	 Singles Energy            =      -0.0000000000000000 [Eh]
	 Same-Spin Energy          =      -0.3768867117203381 [Eh]
	 Opposite-Spin Energy      =      -1.2470792624952569 [Eh]
	 Correlation Energy        =      -1.6239659742155950 [Eh]
	 Total Energy              =    -364.6987496885336668 [Eh]

	 ================> DF-SCS-MP2 Energies <==================
	-----------------------------------------------------------
	 SCS Same-Spin Scale       =       0.3333333333333333 [-]
	 SCS Opposite-Spin Scale   =       1.2000000000000000 [-]
	 SCS Same-Spin Energy      =      -0.1256289039067793 [Eh]
	 SCS Opposite-Spin Energy  =      -1.4964951149943082 [Eh]
	 SCS Correlation Energy    =      -1.6221240189010875 [Eh]
	 SCS Total Energy          =    -364.6969077332191773 [Eh]
	-----------------------------------------------------------

  Dipole Moment: [D]
     X:    -0.4431      Y:    -3.9622      Z:     0.2375     Total:     3.9940

*** Psi4 exiting successfully. Buy a developer a beer!
