                               Psi4 1.3.2 release

  ==> Input File <==

--------------------------------------------------------------------------
#psi4
#
memory 32 gb

molecule  {
0 1
  O        0.0273303     2.0546654    -0.1273682
  N        0.2351990    -0.2177110    -0.3583720
  C       -0.4908340    -1.4342940    -0.0290780
  C       -1.9502640    -0.9583450    -0.0482810
  C       -1.8489090     0.4999680     0.4010950
  C       -0.4582930     0.9265630    -0.0509830
  C        1.6617300    -0.1844710    -0.6214880
  C        2.4978900    -0.3314020     0.6460640
  H       -0.2060500    -1.8213230     0.9608810
  H       -0.2853850    -2.2161620    -0.7686800
  H       -2.5951790    -1.5710950     0.5868370
  H       -2.3326610    -1.0086390    -1.0720610
  H       -1.8916900     0.5931740     1.4933710
  H       -2.6106570     1.1621840    -0.0164710
  H        1.8952280    -0.9774960    -1.3410860
  H        1.8622980     0.7788290    -1.0968800
  H        2.2724650     0.4877290     1.3331980
  H        2.2931660    -1.2799200     1.1504100
  H        3.5653110    -0.2984830     0.4074420
units angstrom
no_reorient  #important for SAPT in psi4, default
symmetry c1  #important for SAPT in psi4, default
}

set PROPERTIES_ORIGIN ["COM"]
properties('MP2/aug-cc-pvtz', properties = ['dipole'])
--------------------------------------------------------------------------

    Molecular point group: c1
  Charge       = 0
  Multiplicity = 1
  Basis Set: AUG-CC-PVTZ
    Blend: AUG-CC-PVTZ
  Basis Set: (AUG-CC-PVTZ AUX)
    Blend: AUG-CC-PVTZ-JKFIT

    Orbital Energies [Eh]
    ---------------------

    Doubly Occupied:

       1A    -20.511049     2A    -15.579103     3A    -11.341329
       4A    -11.274244     5A    -11.259541     6A    -11.243219
       7A    -11.242020     8A    -11.217778     9A     -1.367533
      10A     -1.256545    11A     -1.088039    12A     -0.999898
      13A     -0.972215    14A     -0.869557    15A     -0.829516
      16A     -0.725730    17A     -0.693129    18A     -0.667694
      19A     -0.639459    20A     -0.604189    21A     -0.589279
      22A     -0.571582    23A     -0.562968    24A     -0.554709
      25A     -0.522469    26A     -0.512292    27A     -0.509623
      28A     -0.489405    29A     -0.477922    30A     -0.410223
      31A     -0.368062

  @DF-RHF Final Energy:  -363.07550785916277

   => Energetics <=

    Nuclear Repulsion Energy =            394.5561548087400183
    One-Electron Energy =               -1275.3626840743827415
    Two-Electron Energy =                 517.7310214064799538
    Total Energy =                       -363.0755078591627125
  Basis Set: (AUG-CC-PVTZ AUX)
    Blend: AUG-CC-PVTZ-RI
    Molecular point group: c1

    Geometry (in Angstrom), charge = 0, multiplicity = 1:

       Center              X                  Y                   Z               Mass
    ------------   -----------------  -----------------  -----------------  -----------------
         O            0.039279539365     2.003089016546    -0.111116265075    15.994914619570
         N            0.247148239365    -0.269287383454    -0.342120065075    14.003074004430
         C           -0.478884760635    -1.485870383454    -0.012826065075    12.000000000000
         C           -1.938314760635    -1.009921383454    -0.032029065075    12.000000000000
         C           -1.836959760635     0.448391616546     0.417346934925    12.000000000000
         C           -0.446343760635     0.874986616546    -0.034731065075    12.000000000000
         C            1.673679239365    -0.236047383454    -0.605236065075    12.000000000000
         C            2.509839239365    -0.382978383454     0.662315934925    12.000000000000
         H           -0.194100760635    -1.872899383454     0.977132934925     1.007825032230
         H           -0.273435760635    -2.267738383454    -0.752428065075     1.007825032230
         H           -2.583229760635    -1.622671383454     0.603088934925     1.007825032230
         H           -2.320711760635    -1.060215383454    -1.055809065075     1.007825032230
         H           -1.879740760635     0.541597616546     1.509622934925     1.007825032230
         H           -2.598707760635     1.110607616546    -0.000219065075     1.007825032230
         H            1.907177239365    -1.029072383454    -1.324834065075     1.007825032230
         H            1.874247239365     0.727252616546    -1.080628065075     1.007825032230
         H            2.284414239365     0.436152616546     1.349449934925     1.007825032230
         H            2.305115239365    -1.331496383454     1.166661934925     1.007825032230
         H            3.577260239365    -0.350059383454     0.423693934925     1.007825032230

  Basis Set: AUG-CC-PVTZ
    Blend: AUG-CC-PVTZ
  Basis Set: (AUG-CC-PVTZ AUX)
    Blend: AUG-CC-PVTZ-JKFIT
	 Reference Energy          =    -363.0755078591627694 [Eh]
	 Singles Energy            =      -0.0000000000000000 [Eh]
	 Same-Spin Energy          =      -0.3768827371900708 [Eh]
	 Opposite-Spin Energy      =      -1.2469952327672231 [Eh]
	 Correlation Energy        =      -1.6238779699572938 [Eh]
	 Total Energy              =    -364.6993858291200468 [Eh]

	 ================> DF-SCS-MP2 Energies <==================
	-----------------------------------------------------------
	 SCS Same-Spin Scale       =       0.3333333333333333 [-]
	 SCS Opposite-Spin Scale   =       1.2000000000000000 [-]
	 SCS Same-Spin Energy      =      -0.1256275790633569 [Eh]
	 SCS Opposite-Spin Energy  =      -1.4963942793206677 [Eh]
	 SCS Correlation Energy    =      -1.6220218583840247 [Eh]
	 SCS Total Energy          =    -364.6975297175467858 [Eh]
	-----------------------------------------------------------

  Dipole Moment: [D]
     X:    -0.5712      Y:    -3.9059      Z:     0.2834     Total:     3.9576

*** Psi4 exiting successfully. Buy a developer a beer!
