                               Psi4 1.3.2 release

  ==> Input File <==

--------------------------------------------------------------------------
#psi4
#
memory 32 gb

molecule  {
0 1
  O       -0.0101440     2.0708820    -0.1140410
  N        0.2351990    -0.2177110    -0.3583720
  C       -0.4908340    -1.4342940    -0.0290780
  C       -1.9502640    -0.9583450    -0.0482810
  C       -1.8489090     0.4999680     0.4010950
  C       -0.4077791     0.8432142    -0.0733732
  C        1.6617300    -0.1844710    -0.6214880
  C        2.4978900    -0.3314020     0.6460640
  H       -0.2060500    -1.8213230     0.9608810
  H       -0.2853850    -2.2161620    -0.7686800
  H       -2.5951790    -1.5710950     0.5868370
  H       -2.3326610    -1.0086390    -1.0720610
  H       -1.8916900     0.5931740     1.4933710
  H       -2.6106570     1.1621840    -0.0164710
  H        1.8952280    -0.9774960    -1.3410860
  H        1.8622980     0.7788290    -1.0968800
  H        2.2724650     0.4877290     1.3331980
  H        2.2931660    -1.2799200     1.1504100
  H        3.5653110    -0.2984830     0.4074420
units angstrom
no_reorient  #important for SAPT in psi4, default
symmetry c1  #important for SAPT in psi4, default
}

set PROPERTIES_ORIGIN ["COM"]
properties('MP2/aug-cc-pvtz', properties = ['dipole'])
--------------------------------------------------------------------------

    Molecular point group: c1
  Charge       = 0
  Multiplicity = 1
  Basis Set: AUG-CC-PVTZ
    Blend: AUG-CC-PVTZ
  Basis Set: (AUG-CC-PVTZ AUX)
    Blend: AUG-CC-PVTZ-JKFIT

    Orbital Energies [Eh]
    ---------------------

    Doubly Occupied:

       1A    -20.490737     2A    -15.597679     3A    -11.333517
       4A    -11.283669     5A    -11.269775     6A    -11.243091
       7A    -11.238442     8A    -11.225154     9A     -1.353997
      10A     -1.259366    11A     -1.092932    12A     -1.015677
      13A     -0.975665    14A     -0.881914    15A     -0.838230
      16A     -0.730959    17A     -0.704659    18A     -0.671645
      19A     -0.635112    20A     -0.612369    21A     -0.589944
      22A     -0.571367    23A     -0.566682    24A     -0.533606
      25A     -0.524022    26A     -0.516452    27A     -0.511734
      28A     -0.496914    29A     -0.471187    30A     -0.393010
      31A     -0.374679

  @DF-RHF Final Energy:  -363.06056992372061

   => Energetics <=

    Nuclear Repulsion Energy =            395.2470782066021684
    One-Electron Energy =               -1276.6069271116668915
    Two-Electron Energy =                 518.2992789813440595
    Total Energy =                       -363.0605699237206636
  Basis Set: (AUG-CC-PVTZ AUX)
    Blend: AUG-CC-PVTZ-RI
    Molecular point group: c1

    Geometry (in Angstrom), charge = 0, multiplicity = 1:

       Center              X                  Y                   Z               Mass
    ------------   -----------------  -----------------  -----------------  -----------------
         O            0.001745385033     2.025856517190    -0.097298147329    15.994914619570
         N            0.247088385033    -0.262736482810    -0.341629147329    14.003074004430
         C           -0.478944614967    -1.479319482810    -0.012335147329    12.000000000000
         C           -1.938374614967    -1.003370482810    -0.031538147329    12.000000000000
         C           -1.837019614967     0.454942517190     0.417837852671    12.000000000000
         C           -0.395889714967     0.798188717190    -0.056630347329    12.000000000000
         C            1.673619385033    -0.229496482810    -0.604745147329    12.000000000000
         C            2.509779385033    -0.376427482810     0.662806852671    12.000000000000
         H           -0.194160614967    -1.866348482810     0.977623852671     1.007825032230
         H           -0.273495614967    -2.261187482810    -0.751937147329     1.007825032230
         H           -2.583289614967    -1.616120482810     0.603579852671     1.007825032230
         H           -2.320771614967    -1.053664482810    -1.055318147329     1.007825032230
         H           -1.879800614967     0.548148517190     1.510113852671     1.007825032230
         H           -2.598767614967     1.117158517190     0.000271852671     1.007825032230
         H            1.907117385033    -1.022521482810    -1.324343147329     1.007825032230
         H            1.874187385033     0.733803517190    -1.080137147329     1.007825032230
         H            2.284354385033     0.442703517190     1.349940852671     1.007825032230
         H            2.305055385033    -1.324945482810     1.167152852671     1.007825032230
         H            3.577200385033    -0.343508482810     0.424184852671     1.007825032230

  Basis Set: AUG-CC-PVTZ
    Blend: AUG-CC-PVTZ
  Basis Set: (AUG-CC-PVTZ AUX)
    Blend: AUG-CC-PVTZ-JKFIT
	 Reference Energy          =    -363.0605699237206068 [Eh]
	 Singles Energy            =      -0.0000000000000000 [Eh]
	 Same-Spin Energy          =      -0.3773882216815976 [Eh]
	 Opposite-Spin Energy      =      -1.2482368561527637 [Eh]
	 Correlation Energy        =      -1.6256250778343613 [Eh]
	 Total Energy              =    -364.6861950015549496 [Eh]

	 ================> DF-SCS-MP2 Energies <==================
	-----------------------------------------------------------
	 SCS Same-Spin Scale       =       0.3333333333333333 [-]
	 SCS Opposite-Spin Scale   =       1.2000000000000000 [-]
	 SCS Same-Spin Energy      =      -0.1257960738938659 [Eh]
	 SCS Opposite-Spin Energy  =      -1.4978842273833164 [Eh]
	 SCS Correlation Energy    =      -1.6236803012771823 [Eh]
	 SCS Total Energy          =    -364.6842502249978111 [Eh]
	-----------------------------------------------------------

  Dipole Moment: [D]
     X:    -0.1511      Y:    -4.7352      Z:     0.1632     Total:     4.7404

*** Psi4 exiting successfully. Buy a developer a beer!
