                               Psi4 1.4a3.dev225

  ==> Input File <==

--------------------------------------------------------------------------
#psi4
#
memory 32 gb

molecule  {
0 1
  O       -0.0101440     2.0708820    -0.1140410
  N        0.2351990    -0.2177110    -0.3583720
  C       -0.4908340    -1.4342940    -0.0290780
  C       -1.9502640    -0.9583450    -0.0482810
  C       -1.8489090     0.4999680     0.4010950
  C       -0.4582930     0.9265630    -0.0509830
  C        1.6617300    -0.1844710    -0.6214880
  C        2.4978900    -0.3314020     0.6460640
  H       -0.2060500    -1.8213230     0.9608810
  H       -0.2853850    -2.2161620    -0.7686800
  H       -2.6069793    -1.5823068     0.5984581
  H       -2.3326610    -1.0086390    -1.0720610
  H       -1.8916900     0.5931740     1.4933710
  H       -2.6106570     1.1621840    -0.0164710
  H        1.8952280    -0.9774960    -1.3410860
  H        1.8622980     0.7788290    -1.0968800
  H        2.2724650     0.4877290     1.3331980
  H        2.2931660    -1.2799200     1.1504100
  H        3.5653110    -0.2984830     0.4074420
units angstrom
no_reorient  #important for SAPT in psi4, default
symmetry c1  #important for SAPT in psi4, default
}

set PROPERTIES_ORIGIN ["COM"]
properties('MP2/aug-cc-pvtz', properties = ['dipole'])
--------------------------------------------------------------------------

    Molecular point group: c1
  Charge       = 0
  Multiplicity = 1
  Basis Set: AUG-CC-PVTZ
    Blend: AUG-CC-PVTZ
  Basis Set: (AUG-CC-PVTZ AUX)
    Blend: AUG-CC-PVTZ-JKFIT

    Orbital Energies [Eh]
    ---------------------

    Doubly Occupied:

       1A    -20.511746     2A    -15.581123     3A    -11.341514
       4A    -11.275074     5A    -11.261024     6A    -11.244842
       7A    -11.240167     8A    -11.218729     9A     -1.367003
      10A     -1.258640    11A     -1.087583    12A     -1.000299
      13A     -0.972012    14A     -0.869855    15A     -0.828471
      16A     -0.726418    17A     -0.692786    18A     -0.667847
      19A     -0.639114    20A     -0.604318    21A     -0.589398
      22A     -0.572282    23A     -0.563293    24A     -0.553192
      25A     -0.522222    26A     -0.513185    27A     -0.509714
      28A     -0.490167    29A     -0.477320    30A     -0.409403
      31A     -0.369641

  @DF-RHF Final Energy:  -363.07539937749584

   => Energetics <=

    Nuclear Repulsion Energy =            394.1883012656056167
    One-Electron Energy =               -1274.6106399136028813
    Two-Electron Energy =                 517.3469392705014798
    Total Energy =                       -363.0753993774958417
  Basis Set: (AUG-CC-PVTZ AUX)
    Blend: AUG-CC-PVTZ-RI
    Molecular point group: c1

    Geometry (in Angstrom), charge = 0, multiplicity = 1:

       Center              X                  Y                   Z               Mass
    ------------   -----------------  -----------------  -----------------  -----------------
         O            0.007210871646     2.017111818490    -0.099777669426    15.994914619570
         N            0.252553871646    -0.271481181510    -0.344108669426    14.003074004430
         C           -0.473479128354    -1.488064181510    -0.014814669426    12.000000000000
         C           -1.932909128354    -1.012115181510    -0.034017669426    12.000000000000
         C           -1.831554128354     0.446197818490     0.415358330574    12.000000000000
         C           -0.440938128354     0.872792818490    -0.036719669426    12.000000000000
         C            1.679084871646    -0.238241181510    -0.607224669426    12.000000000000
         C            2.515244871646    -0.385172181510     0.660327330574    12.000000000000
         H           -0.188695128354    -1.875093181510     0.975144330574     1.007825032230
         H           -0.268030128354    -2.269932181510    -0.754416669426     1.007825032230
         H           -2.589624428354    -1.636076981510     0.612721430574     1.007825032230
         H           -2.315306128354    -1.062409181510    -1.057797669426     1.007825032230
         H           -1.874335128354     0.539403818490     1.507634330574     1.007825032230
         H           -2.593302128354     1.108413818490    -0.002207669426     1.007825032230
         H            1.912582871646    -1.031266181510    -1.326822669426     1.007825032230
         H            1.879652871646     0.725058818490    -1.082616669426     1.007825032230
         H            2.289819871646     0.433958818490     1.347461330574     1.007825032230
         H            2.310520871646    -1.333690181510     1.164673330574     1.007825032230
         H            3.582665871646    -0.352253181510     0.421705330574     1.007825032230

  Basis Set: AUG-CC-PVTZ
    Blend: AUG-CC-PVTZ
  Basis Set: (AUG-CC-PVTZ AUX)
    Blend: AUG-CC-PVTZ-JKFIT
	 Reference Energy          =    -363.0753993774958417 [Eh]
	 Singles Energy            =      -0.0000000000000000 [Eh]
	 Same-Spin Energy          =      -0.3767891072163437 [Eh]
	 Opposite-Spin Energy      =      -1.2470626560345703 [Eh]
	 Correlation Energy        =      -1.6238517632509142 [Eh]
	 Total Energy              =    -364.6992511407467532 [Eh]

	 ================> DF-SCS-MP2 Energies <==================
	-----------------------------------------------------------
	 SCS Same-Spin Scale       =       0.3333333333333333 [-]
	 SCS Opposite-Spin Scale   =       1.2000000000000000 [-]
	 SCS Same-Spin Energy      =      -0.1255963690721146 [Eh]
	 SCS Opposite-Spin Energy  =      -1.4964751872414843 [Eh]
	 SCS Correlation Energy    =      -1.6220715563135988 [Eh]
	 SCS Total Energy          =    -364.6974709338094272 [Eh]
	-----------------------------------------------------------

  Dipole Moment: [D]
     X:    -0.4519      Y:    -3.9377      Z:     0.2498     Total:     3.9714

*** Psi4 exiting successfully. Buy a developer a beer!
