                               Psi4 1.3.2 release

  ==> Input File <==

--------------------------------------------------------------------------
#psi4
#
memory 32 gb

molecule  {
0 1
  O       -0.0101440     2.0708820    -0.1140410
  N        0.2351990    -0.2177110    -0.3583720
  C       -0.4908340    -1.4342940    -0.0290780
  C       -1.9502640    -0.9583450    -0.0482810
  C       -1.8489090     0.4999680     0.4010950
  C       -0.4582930     0.9265630    -0.0509830
  C        1.6617300    -0.1844710    -0.6214880
  C        2.4978900    -0.3314020     0.6460640
  H       -0.2060500    -1.8213230     0.9608810
  H       -0.2853850    -2.2161620    -0.7686800
  H       -2.5361774    -1.5150361     0.5287317
  H       -2.3326610    -1.0086390    -1.0720610
  H       -1.8916900     0.5931740     1.4933710
  H       -2.6106570     1.1621840    -0.0164710
  H        1.8952280    -0.9774960    -1.3410860
  H        1.8622980     0.7788290    -1.0968800
  H        2.2724650     0.4877290     1.3331980
  H        2.2931660    -1.2799200     1.1504100
  H        3.5653110    -0.2984830     0.4074420
units angstrom
no_reorient  #important for SAPT in psi4, default
symmetry c1  #important for SAPT in psi4, default
}

set PROPERTIES_ORIGIN ["COM"]
properties('MP2/aug-cc-pvtz', properties = ['dipole'])
--------------------------------------------------------------------------

    Molecular point group: c1
  Charge       = 0
  Multiplicity = 1
  Basis Set: AUG-CC-PVTZ
    Blend: AUG-CC-PVTZ
  Basis Set: (AUG-CC-PVTZ AUX)
    Blend: AUG-CC-PVTZ-JKFIT

    Orbital Energies [Eh]
    ---------------------

    Doubly Occupied:

       1A    -20.511015     2A    -15.580280     3A    -11.340667
       4A    -11.274138     5A    -11.260431     6A    -11.239222
       7A    -11.230014     8A    -11.218339     9A     -1.366265
      10A     -1.257886    11A     -1.090015    12A     -1.002076
      13A     -0.972625    14A     -0.873247    15A     -0.835020
      16A     -0.726384    17A     -0.696175    18A     -0.667174
      19A     -0.641416    20A     -0.606381    21A     -0.589205
      22A     -0.572259    23A     -0.563960    24A     -0.560637
      25A     -0.525486    26A     -0.512744    27A     -0.508895
      28A     -0.489982    29A     -0.477895    30A     -0.409345
      31A     -0.368957

  @DF-RHF Final Energy:  -363.07010110629977

   => Energetics <=

    Nuclear Repulsion Energy =            394.8183339432807202
    One-Electron Energy =               -1275.8405956101478296
    Two-Electron Energy =                 517.9521605605672221
    Total Energy =                       -363.0701011062998305
  Basis Set: (AUG-CC-PVTZ AUX)
    Blend: AUG-CC-PVTZ-RI
    Molecular point group: c1

    Geometry (in Angstrom), charge = 0, multiplicity = 1:

       Center              X                  Y                   Z               Mass
    ------------   -----------------  -----------------  -----------------  -----------------
         O            0.006579872682     2.016512290201    -0.099156255507    15.994914619570
         N            0.251922872682    -0.272080709799    -0.343487255507    14.003074004430
         C           -0.474110127318    -1.488663709799    -0.014193255507    12.000000000000
         C           -1.933540127318    -1.012714709799    -0.033396255507    12.000000000000
         C           -1.832185127318     0.445598290201     0.415979744493    12.000000000000
         C           -0.441569127318     0.872193290201    -0.036098255507    12.000000000000
         C            1.678453872682    -0.238840709799    -0.606603255507    12.000000000000
         C            2.514613872682    -0.385771709799     0.660948744493    12.000000000000
         H           -0.189326127318    -1.875692709799     0.975765744493     1.007825032230
         H           -0.268661127318    -2.270531709799    -0.753795255507     1.007825032230
         H           -2.519453527318    -1.569405809799     0.543616444493     1.007825032230
         H           -2.315937127318    -1.063008709799    -1.057176255507     1.007825032230
         H           -1.874966127318     0.538804290201     1.508255744493     1.007825032230
         H           -2.593933127318     1.107814290201    -0.001586255507     1.007825032230
         H            1.911951872682    -1.031865709799    -1.326201255507     1.007825032230
         H            1.879021872682     0.724459290201    -1.081995255507     1.007825032230
         H            2.289188872682     0.433359290201     1.348082744493     1.007825032230
         H            2.309889872682    -1.334289709799     1.165294744493     1.007825032230
         H            3.582034872682    -0.352852709799     0.422326744493     1.007825032230

  Basis Set: AUG-CC-PVTZ
    Blend: AUG-CC-PVTZ
  Basis Set: (AUG-CC-PVTZ AUX)
    Blend: AUG-CC-PVTZ-JKFIT
	 Reference Energy          =    -363.0701011062997736 [Eh]
	 Singles Energy            =      -0.0000000000000000 [Eh]
	 Same-Spin Energy          =      -0.3767852966054796 [Eh]
	 Opposite-Spin Energy      =      -1.2463799356626275 [Eh]
	 Correlation Energy        =      -1.6231652322681072 [Eh]
	 Total Energy              =    -364.6932663385678666 [Eh]

	 ================> DF-SCS-MP2 Energies <==================
	-----------------------------------------------------------
	 SCS Same-Spin Scale       =       0.3333333333333333 [-]
	 SCS Opposite-Spin Scale   =       1.2000000000000000 [-]
	 SCS Same-Spin Energy      =      -0.1255950988684932 [Eh]
	 SCS Opposite-Spin Energy  =      -1.4956559227951529 [Eh]
	 SCS Correlation Energy    =      -1.6212510216636460 [Eh]
	 SCS Total Energy          =    -364.6913521279633983 [Eh]
	-----------------------------------------------------------

  Dipole Moment: [D]
     X:    -0.5088      Y:    -3.9834      Z:     0.2677     Total:     4.0247

*** Psi4 exiting successfully. Buy a developer a beer!
