                               Psi4 1.3.2 release

  ==> Input File <==

--------------------------------------------------------------------------
#psi4
#
memory 32 gb

molecule  {
0 1
  O       -0.0101440     2.0708820    -0.1140410
  N        0.2105750    -0.2160846    -0.4027408
  C       -0.4908340    -1.4342940    -0.0290780
  C       -1.9502640    -0.9583450    -0.0482810
  C       -1.8489090     0.4999680     0.4010950
  C       -0.4582930     0.9265630    -0.0509830
  C        1.6617300    -0.1844710    -0.6214880
  C        2.4978900    -0.3314020     0.6460640
  H       -0.2060500    -1.8213230     0.9608810
  H       -0.2853850    -2.2161620    -0.7686800
  H       -2.5951790    -1.5710950     0.5868370
  H       -2.3326610    -1.0086390    -1.0720610
  H       -1.8916900     0.5931740     1.4933710
  H       -2.6106570     1.1621840    -0.0164710
  H        1.8952280    -0.9774960    -1.3410860
  H        1.8622980     0.7788290    -1.0968800
  H        2.2724650     0.4877290     1.3331980
  H        2.2931660    -1.2799200     1.1504100
  H        3.5653110    -0.2984830     0.4074420
units angstrom
no_reorient  #important for SAPT in psi4, default
symmetry c1  #important for SAPT in psi4, default
}

set PROPERTIES_ORIGIN ["COM"]
properties('MP2/aug-cc-pvtz', properties = ['dipole'])
--------------------------------------------------------------------------

    Molecular point group: c1
  Charge       = 0
  Multiplicity = 1
  Basis Set: AUG-CC-PVTZ
    Blend: AUG-CC-PVTZ
  Basis Set: (AUG-CC-PVTZ AUX)
    Blend: AUG-CC-PVTZ-JKFIT

    Orbital Energies [Eh]
    ---------------------

    Doubly Occupied:

       1A    -20.512497     2A    -15.581954     3A    -11.341110
       4A    -11.274458     5A    -11.261874     6A    -11.241591
       7A    -11.239295     8A    -11.220374     9A     -1.367268
      10A     -1.257894    11A     -1.085518    12A     -1.001375
      13A     -0.972401    14A     -0.869237    15A     -0.829152
      16A     -0.724955    17A     -0.693536    18A     -0.666970
      19A     -0.638638    20A     -0.603728    21A     -0.591347
      22A     -0.571031    23A     -0.562540    24A     -0.554358
      25A     -0.524773    26A     -0.509716    27A     -0.509400
      28A     -0.489387    29A     -0.477851    30A     -0.410082
      31A     -0.372689

  @DF-RHF Final Energy:  -363.07499409886873

   => Energetics <=

    Nuclear Repulsion Energy =            394.0477390760231629
    One-Electron Energy =               -1274.3314700384796652
    Two-Electron Energy =                 517.2087368635877738
    Total Energy =                       -363.0749940988687285
  Basis Set: (AUG-CC-PVTZ AUX)
    Blend: AUG-CC-PVTZ-RI
    Molecular point group: c1

    Geometry (in Angstrom), charge = 0, multiplicity = 1:

       Center              X                  Y                   Z               Mass
    ------------   -----------------  -----------------  -----------------  -----------------
         O            0.010154867863     2.016810501655    -0.094179960933    15.994914619570
         N            0.230873867863    -0.270156098345    -0.382879760933    14.003074004430
         C           -0.470535132137    -1.488365498345    -0.009216960933    12.000000000000
         C           -1.929965132137    -1.012416498345    -0.028419960933    12.000000000000
         C           -1.828610132137     0.445896501655     0.420956039067    12.000000000000
         C           -0.437994132137     0.872491501655    -0.031121960933    12.000000000000
         C            1.682028867863    -0.238542498345    -0.601626960933    12.000000000000
         C            2.518188867863    -0.385473498345     0.665925039067    12.000000000000
         H           -0.185751132137    -1.875394498345     0.980742039067     1.007825032230
         H           -0.265086132137    -2.270233498345    -0.748818960933     1.007825032230
         H           -2.574880132137    -1.625166498345     0.606698039067     1.007825032230
         H           -2.312362132137    -1.062710498345    -1.052199960933     1.007825032230
         H           -1.871391132137     0.539102501655     1.513232039067     1.007825032230
         H           -2.590358132137     1.108112501655     0.003390039067     1.007825032230
         H            1.915526867863    -1.031567498345    -1.321224960933     1.007825032230
         H            1.882596867863     0.724757501655    -1.077018960933     1.007825032230
         H            2.292763867863     0.433657501655     1.353059039067     1.007825032230
         H            2.313464867863    -1.333991498345     1.170271039067     1.007825032230
         H            3.585609867863    -0.352554498345     0.427303039067     1.007825032230

  Basis Set: AUG-CC-PVTZ
    Blend: AUG-CC-PVTZ
  Basis Set: (AUG-CC-PVTZ AUX)
    Blend: AUG-CC-PVTZ-JKFIT
	 Reference Energy          =    -363.0749940988687285 [Eh]
	 Singles Energy            =      -0.0000000000000000 [Eh]
	 Same-Spin Energy          =      -0.3767200075094701 [Eh]
	 Opposite-Spin Energy      =      -1.2470016937970869 [Eh]
	 Correlation Energy        =      -1.6237217013065570 [Eh]
	 Total Energy              =    -364.6987158001753073 [Eh]

	 ================> DF-SCS-MP2 Energies <==================
	-----------------------------------------------------------
	 SCS Same-Spin Scale       =       0.3333333333333333 [-]
	 SCS Opposite-Spin Scale   =       1.2000000000000000 [-]
	 SCS Same-Spin Energy      =      -0.1255733358364900 [Eh]
	 SCS Opposite-Spin Energy  =      -1.4964020325565042 [Eh]
	 SCS Correlation Energy    =      -1.6219753683929943 [Eh]
	 SCS Total Energy          =    -364.6969694672617379 [Eh]
	-----------------------------------------------------------

  Dipole Moment: [D]
     X:    -0.4007      Y:    -3.9200      Z:     0.3262     Total:     3.9539

*** Psi4 exiting successfully. Buy a developer a beer!
