                               Psi4 1.4a3.dev225

  ==> Input File <==

--------------------------------------------------------------------------
#psi4
#
memory 32 gb

molecule  {
0 1
  O       -0.0101440     2.0708820    -0.1140410
  N        0.2351990    -0.2177110    -0.3583720
  C       -0.4908340    -1.4342940    -0.0290780
  C       -1.9502640    -0.9583450    -0.0482810
  C       -1.8489090     0.4999680     0.4010950
  C       -0.4582930     0.9265630    -0.0509830
  C        1.6617300    -0.1844710    -0.6214880
  C        2.4978900    -0.3314020     0.6460640
  H       -0.2112259    -1.8142888     0.9428885
  H       -0.2853850    -2.2161620    -0.7686800
  H       -2.5951790    -1.5710950     0.5868370
  H       -2.3326610    -1.0086390    -1.0720610
  H       -1.8916900     0.5931740     1.4933710
  H       -2.6106570     1.1621840    -0.0164710
  H        1.8952280    -0.9774960    -1.3410860
  H        1.8622980     0.7788290    -1.0968800
  H        2.2724650     0.4877290     1.3331980
  H        2.2931660    -1.2799200     1.1504100
  H        3.5653110    -0.2984830     0.4074420
units angstrom
no_reorient  #important for SAPT in psi4, default
symmetry c1  #important for SAPT in psi4, default
}

set PROPERTIES_ORIGIN ["COM"]
properties('MP2/aug-cc-pvtz', properties = ['dipole'])
--------------------------------------------------------------------------

    Molecular point group: c1
  Charge       = 0
  Multiplicity = 1
  Basis Set: AUG-CC-PVTZ
    Blend: AUG-CC-PVTZ
  Basis Set: (AUG-CC-PVTZ AUX)
    Blend: AUG-CC-PVTZ-JKFIT

    Orbital Energies [Eh]
    ---------------------

    Doubly Occupied:

       1A    -20.511408     2A    -15.580633     3A    -11.341179
       4A    -11.272431     5A    -11.260829     6A    -11.242245
       7A    -11.239862     8A    -11.218689     9A     -1.366689
      10A     -1.258417    11A     -1.087857    12A     -1.000441
      13A     -0.973120    14A     -0.870343    15A     -0.829979
      16A     -0.726709    17A     -0.694766    18A     -0.667530
      19A     -0.639300    20A     -0.604560    21A     -0.590777
      22A     -0.572223    23A     -0.563175    24A     -0.554609
      25A     -0.523281    26A     -0.513112    27A     -0.509422
      28A     -0.490028    29A     -0.477751    30A     -0.409250
      31A     -0.369648

  @DF-RHF Final Energy:  -363.07605289263910

   => Energetics <=

    Nuclear Repulsion Energy =            394.3854237953688653
    One-Electron Energy =               -1275.0024302086796979
    Two-Electron Energy =                 517.5409535206716782
    Total Energy =                       -363.0760528926391544
  Basis Set: (AUG-CC-PVTZ AUX)
    Blend: AUG-CC-PVTZ-RI
    Molecular point group: c1

    Geometry (in Angstrom), charge = 0, multiplicity = 1:

       Center              X                  Y                   Z               Mass
    ------------   -----------------  -----------------  -----------------  -----------------
         O            0.007151833830     2.016949206934    -0.099513747824    15.994914619570
         N            0.252494833830    -0.271643793066    -0.343844747824    14.003074004430
         C           -0.473538166170    -1.488226793066    -0.014550747824    12.000000000000
         C           -1.932968166170    -1.012277793066    -0.033753747824    12.000000000000
         C           -1.831613166170     0.446035206934     0.415622252176    12.000000000000
         C           -0.440997166170     0.872630206934    -0.036455747824    12.000000000000
         C            1.679025833830    -0.238403793066    -0.606960747824    12.000000000000
         C            2.515185833830    -0.385334793066     0.660591252176    12.000000000000
         H           -0.193930066170    -1.868221593066     0.957415752176     1.007825032230
         H           -0.268089166170    -2.270094793066    -0.754152747824     1.007825032230
         H           -2.577883166170    -1.625027793066     0.601364252176     1.007825032230
         H           -2.315365166170    -1.062571793066    -1.057533747824     1.007825032230
         H           -1.874394166170     0.539241206934     1.507898252176     1.007825032230
         H           -2.593361166170     1.108251206934    -0.001943747824     1.007825032230
         H            1.912523833830    -1.031428793066    -1.326558747824     1.007825032230
         H            1.879593833830     0.724896206934    -1.082352747824     1.007825032230
         H            2.289760833830     0.433796206934     1.347725252176     1.007825032230
         H            2.310461833830    -1.333852793066     1.164937252176     1.007825032230
         H            3.582606833830    -0.352415793066     0.421969252176     1.007825032230

  Basis Set: AUG-CC-PVTZ
    Blend: AUG-CC-PVTZ
  Basis Set: (AUG-CC-PVTZ AUX)
    Blend: AUG-CC-PVTZ-JKFIT
	 Reference Energy          =    -363.0760528926390975 [Eh]
	 Singles Energy            =      -0.0000000000000000 [Eh]
	 Same-Spin Energy          =      -0.3767611506487305 [Eh]
	 Opposite-Spin Energy      =      -1.2467822030540225 [Eh]
	 Correlation Energy        =      -1.6235433537027530 [Eh]
	 Total Energy              =    -364.6995962463418550 [Eh]

	 ================> DF-SCS-MP2 Energies <==================
	-----------------------------------------------------------
	 SCS Same-Spin Scale       =       0.3333333333333333 [-]
	 SCS Opposite-Spin Scale   =       1.2000000000000000 [-]
	 SCS Same-Spin Energy      =      -0.1255870502162435 [Eh]
	 SCS Opposite-Spin Energy  =      -1.4961386436648270 [Eh]
	 SCS Correlation Energy    =      -1.6217256938810705 [Eh]
	 SCS Total Energy          =    -364.6977785865201440 [Eh]
	-----------------------------------------------------------

  Dipole Moment: [D]
     X:    -0.4603      Y:    -3.9605      Z:     0.2659     Total:     3.9960

*** Psi4 exiting successfully. Buy a developer a beer!
