                               Psi4 1.3.2 release

  ==> Input File <==

--------------------------------------------------------------------------
#psi4
#
memory 32 gb

molecule  {
0 1
  O       -0.0101440     2.0708820    -0.1140410
  N        0.2351990    -0.2177110    -0.3583720
  C       -0.5334657    -1.4069152    -0.0258356
  C       -1.9502640    -0.9583450    -0.0482810
  C       -1.8489090     0.4999680     0.4010950
  C       -0.4582930     0.9265630    -0.0509830
  C        1.6617300    -0.1844710    -0.6214880
  C        2.4978900    -0.3314020     0.6460640
  H       -0.2060500    -1.8213230     0.9608810
  H       -0.2853850    -2.2161620    -0.7686800
  H       -2.5951790    -1.5710950     0.5868370
  H       -2.3326610    -1.0086390    -1.0720610
  H       -1.8916900     0.5931740     1.4933710
  H       -2.6106570     1.1621840    -0.0164710
  H        1.8952280    -0.9774960    -1.3410860
  H        1.8622980     0.7788290    -1.0968800
  H        2.2724650     0.4877290     1.3331980
  H        2.2931660    -1.2799200     1.1504100
  H        3.5653110    -0.2984830     0.4074420
units angstrom
no_reorient  #important for SAPT in psi4, default
symmetry c1  #important for SAPT in psi4, default
}

set PROPERTIES_ORIGIN ["COM"]
properties('MP2/aug-cc-pvtz', properties = ['dipole'])
--------------------------------------------------------------------------

    Molecular point group: c1
  Charge       = 0
  Multiplicity = 1
  Basis Set: AUG-CC-PVTZ
    Blend: AUG-CC-PVTZ
  Basis Set: (AUG-CC-PVTZ AUX)
    Blend: AUG-CC-PVTZ-JKFIT

    Orbital Energies [Eh]
    ---------------------

    Doubly Occupied:

       1A    -20.511093     2A    -15.580833     3A    -11.340616
       4A    -11.276966     5A    -11.262235     6A    -11.240893
       7A    -11.240263     8A    -11.218942     9A     -1.366858
      10A     -1.260151    11A     -1.093499    12A     -1.002043
      13A     -0.972276    14A     -0.871114    15A     -0.828064
      16A     -0.726177    17A     -0.694094    18A     -0.667720
      19A     -0.637983    20A     -0.604892    21A     -0.586720
      22A     -0.569936    23A     -0.565838    24A     -0.558314
      25A     -0.522146    26A     -0.518056    27A     -0.508248
      28A     -0.493880    29A     -0.475026    30A     -0.408673
      31A     -0.367659

  @DF-RHF Final Energy:  -363.07280972400605

   => Energetics <=

    Nuclear Repulsion Energy =            394.7829835867628390
    One-Electron Energy =               -1275.7691663489592884
    Two-Electron Energy =                 517.9133730381904570
    Total Energy =                       -363.0728097240059924
  Basis Set: (AUG-CC-PVTZ AUX)
    Blend: AUG-CC-PVTZ-RI
    Molecular point group: c1

    Geometry (in Angstrom), charge = 0, multiplicity = 1:

       Center              X                  Y                   Z               Mass
    ------------   -----------------  -----------------  -----------------  -----------------
         O            0.011629600021     2.014106575127    -0.100018169843    15.994914619570
         N            0.256972600021    -0.274486424873    -0.344349169843    14.003074004430
         C           -0.511692099979    -1.463690624873    -0.011812769843    12.000000000000
         C           -1.928490399979    -1.015120424873    -0.034258169843    12.000000000000
         C           -1.827135399979     0.443192575127     0.415117830157    12.000000000000
         C           -0.436519399979     0.869787575127    -0.036960169843    12.000000000000
         C            1.683503600021    -0.241246424873    -0.607465169843    12.000000000000
         C            2.519663600021    -0.388177424873     0.660086830157    12.000000000000
         H           -0.184276399979    -1.878098424873     0.974903830157     1.007825032230
         H           -0.263611399979    -2.272937424873    -0.754657169843     1.007825032230
         H           -2.573405399979    -1.627870424873     0.600859830157     1.007825032230
         H           -2.310887399979    -1.065414424873    -1.058038169843     1.007825032230
         H           -1.869916399979     0.536398575127     1.507393830157     1.007825032230
         H           -2.588883399979     1.105408575127    -0.002448169843     1.007825032230
         H            1.917001600021    -1.034271424873    -1.327063169843     1.007825032230
         H            1.884071600021     0.722053575127    -1.082857169843     1.007825032230
         H            2.294238600021     0.430953575127     1.347220830157     1.007825032230
         H            2.314939600021    -1.336695424873     1.164432830157     1.007825032230
         H            3.587084600021    -0.355258424873     0.421464830157     1.007825032230

  Basis Set: AUG-CC-PVTZ
    Blend: AUG-CC-PVTZ
  Basis Set: (AUG-CC-PVTZ AUX)
    Blend: AUG-CC-PVTZ-JKFIT
	 Reference Energy          =    -363.0728097240060492 [Eh]
	 Singles Energy            =      -0.0000000000000000 [Eh]
	 Same-Spin Energy          =      -0.3771183870599559 [Eh]
	 Opposite-Spin Energy      =      -1.2472014672862670 [Eh]
	 Correlation Energy        =      -1.6243198543462229 [Eh]
	 Total Energy              =    -364.6971295783522464 [Eh]

	 ================> DF-SCS-MP2 Energies <==================
	-----------------------------------------------------------
	 SCS Same-Spin Scale       =       0.3333333333333333 [-]
	 SCS Opposite-Spin Scale   =       1.2000000000000000 [-]
	 SCS Same-Spin Energy      =      -0.1257061290199853 [Eh]
	 SCS Opposite-Spin Energy  =      -1.4966417607435203 [Eh]
	 SCS Correlation Energy    =      -1.6223478897635055 [Eh]
	 SCS Total Energy          =    -364.6951576137695383 [Eh]
	-----------------------------------------------------------

  Dipole Moment: [D]
     X:    -0.4795      Y:    -3.9206      Z:     0.2508     Total:     3.9578

*** Psi4 exiting successfully. Buy a developer a beer!
