                               Psi4 1.3.2 release

  ==> Input File <==

--------------------------------------------------------------------------
#psi4
#
memory 32 gb

molecule  {
0 1
  O       -0.1256571     2.1110961    -0.0736639
  N        0.2351990    -0.2177110    -0.3583720
  C       -0.4908340    -1.4342940    -0.0290780
  C       -1.9502640    -0.9583450    -0.0482810
  C       -1.8489090     0.4999680     0.4010950
  C       -0.4582930     0.9265630    -0.0509830
  C        1.6617300    -0.1844710    -0.6214880
  C        2.4978900    -0.3314020     0.6460640
  H       -0.2060500    -1.8213230     0.9608810
  H       -0.2853850    -2.2161620    -0.7686800
  H       -2.5951790    -1.5710950     0.5868370
  H       -2.3326610    -1.0086390    -1.0720610
  H       -1.8916900     0.5931740     1.4933710
  H       -2.6106570     1.1621840    -0.0164710
  H        1.8952280    -0.9774960    -1.3410860
  H        1.8622980     0.7788290    -1.0968800
  H        2.2724650     0.4877290     1.3331980
  H        2.2931660    -1.2799200     1.1504100
  H        3.5653110    -0.2984830     0.4074420
units angstrom
no_reorient  #important for SAPT in psi4, default
symmetry c1  #important for SAPT in psi4, default
}

set PROPERTIES_ORIGIN ["COM"]
properties('MP2/aug-cc-pvtz', properties = ['dipole'])
--------------------------------------------------------------------------

    Molecular point group: c1
  Charge       = 0
  Multiplicity = 1
  Basis Set: AUG-CC-PVTZ
    Blend: AUG-CC-PVTZ
  Basis Set: (AUG-CC-PVTZ AUX)
    Blend: AUG-CC-PVTZ-JKFIT

    Orbital Energies [Eh]
    ---------------------

    Doubly Occupied:

       1A    -20.512884     2A    -15.586377     3A    -11.341532
       4A    -11.276547     5A    -11.264729     6A    -11.239947
       7A    -11.233575     8A    -11.221191     9A     -1.365526
      10A     -1.263855    11A     -1.087185    12A     -1.002160
      13A     -0.971246    14A     -0.872244    15A     -0.828998
      16A     -0.728143    17A     -0.693666    18A     -0.667647
      19A     -0.639630    20A     -0.605996    21A     -0.589476
      22A     -0.573585    23A     -0.563783    24A     -0.554386
      25A     -0.524166    26A     -0.515383    27A     -0.509384
      28A     -0.492048    29A     -0.475395    30A     -0.405428
      31A     -0.373521

  @DF-RHF Final Energy:  -363.07348711929785

   => Energetics <=

    Nuclear Repulsion Energy =            393.6348880025526000
    One-Electron Energy =               -1273.4574880819307054
    Two-Electron Energy =                 516.7491129600803106
    Total Energy =                       -363.0734871192978517
  Basis Set: (AUG-CC-PVTZ AUX)
    Blend: AUG-CC-PVTZ-RI
    Molecular point group: c1

    Geometry (in Angstrom), charge = 0, multiplicity = 1:

       Center              X                  Y                   Z               Mass
    ------------   -----------------  -----------------  -----------------  -----------------
         O           -0.092068910682     2.051538006333    -0.065008045929    15.994914619570
         N            0.268787189318    -0.277269093667    -0.349716145929    14.003074004430
         C           -0.457245810682    -1.493852093667    -0.020422145929    12.000000000000
         C           -1.916675810682    -1.017903093667    -0.039625145929    12.000000000000
         C           -1.815320810682     0.440409906333     0.409750854071    12.000000000000
         C           -0.424704810682     0.867004906333    -0.042327145929    12.000000000000
         C            1.695318189318    -0.244029093667    -0.612832145929    12.000000000000
         C            2.531478189318    -0.390960093667     0.654719854071    12.000000000000
         H           -0.172461810682    -1.880881093667     0.969536854071     1.007825032230
         H           -0.251796810682    -2.275720093667    -0.760024145929     1.007825032230
         H           -2.561590810682    -1.630653093667     0.595492854071     1.007825032230
         H           -2.299072810682    -1.068197093667    -1.063405145929     1.007825032230
         H           -1.858101810682     0.533615906333     1.502026854071     1.007825032230
         H           -2.577068810682     1.102625906333    -0.007815145929     1.007825032230
         H            1.928816189318    -1.037054093667    -1.332430145929     1.007825032230
         H            1.895886189318     0.719270906333    -1.088224145929     1.007825032230
         H            2.306053189318     0.428170906333     1.341853854071     1.007825032230
         H            2.326754189318    -1.339478093667     1.159065854071     1.007825032230
         H            3.598899189318    -0.358041093667     0.416097854071     1.007825032230

  Basis Set: AUG-CC-PVTZ
    Blend: AUG-CC-PVTZ
  Basis Set: (AUG-CC-PVTZ AUX)
    Blend: AUG-CC-PVTZ-JKFIT
	 Reference Energy          =    -363.0734871192978517 [Eh]
	 Singles Energy            =      -0.0000000000000000 [Eh]
	 Same-Spin Energy          =      -0.3766592748480418 [Eh]
	 Opposite-Spin Energy      =      -1.2470045198004640 [Eh]
	 Correlation Energy        =      -1.6236637946485057 [Eh]
	 Total Energy              =    -364.6971509139463592 [Eh]

	 ================> DF-SCS-MP2 Energies <==================
	-----------------------------------------------------------
	 SCS Same-Spin Scale       =       0.3333333333333333 [-]
	 SCS Opposite-Spin Scale   =       1.2000000000000000 [-]
	 SCS Same-Spin Energy      =      -0.1255530916160139 [Eh]
	 SCS Opposite-Spin Energy  =      -1.4964054237605569 [Eh]
	 SCS Correlation Energy    =      -1.6219585153765708 [Eh]
	 SCS Total Energy          =    -364.6954456346743996 [Eh]
	-----------------------------------------------------------

  Dipole Moment: [D]
     X:    -0.1314      Y:    -4.0412      Z:     0.1627     Total:     4.0466

*** Psi4 exiting successfully. Buy a developer a beer!
