                               Psi4 1.4a3.dev225

  ==> Input File <==

--------------------------------------------------------------------------
#psi4
#
memory 32 gb

molecule  {
0 1
  O       -0.0101440     2.0708820    -0.1140410
  N        0.2351990    -0.2177110    -0.3583720
  C       -0.4908340    -1.4342940    -0.0290780
  C       -1.9502640    -0.9583450    -0.0482810
  C       -1.8489090     0.4999680     0.4010950
  C       -0.4582930     0.9265630    -0.0509830
  C        1.6420669    -0.1849292    -0.6178613
  C        2.4978900    -0.3314020     0.6460640
  H       -0.2060500    -1.8213230     0.9608810
  H       -0.2853850    -2.2161620    -0.7686800
  H       -2.5951790    -1.5710950     0.5868370
  H       -2.3326610    -1.0086390    -1.0720610
  H       -1.8916900     0.5931740     1.4933710
  H       -2.6106570     1.1621840    -0.0164710
  H        1.8952280    -0.9774960    -1.3410860
  H        1.8622980     0.7788290    -1.0968800
  H        2.2724650     0.4877290     1.3331980
  H        2.2931660    -1.2799200     1.1504100
  H        3.5653110    -0.2984830     0.4074420
units angstrom
no_reorient  #important for SAPT in psi4, default
symmetry c1  #important for SAPT in psi4, default
}

set PROPERTIES_ORIGIN ["COM"]
properties('MP2/aug-cc-pvtz', properties = ['dipole'])
--------------------------------------------------------------------------

    Molecular point group: c1
  Charge       = 0
  Multiplicity = 1
  Basis Set: AUG-CC-PVTZ
    Blend: AUG-CC-PVTZ
  Basis Set: (AUG-CC-PVTZ AUX)
    Blend: AUG-CC-PVTZ-JKFIT

    Orbital Energies [Eh]
    ---------------------

    Doubly Occupied:

       1A    -20.512514     2A    -15.581693     3A    -11.342185
       4A    -11.275566     5A    -11.260372     6A    -11.242967
       7A    -11.240531     8A    -11.218126     9A     -1.368200
      10A     -1.261873    11A     -1.089460    12A     -0.998555
      13A     -0.972973    14A     -0.871420    15A     -0.830366
      16A     -0.727398    17A     -0.694545    18A     -0.668744
      19A     -0.639621    20A     -0.604296    21A     -0.589500
      22A     -0.572170    23A     -0.564367    24A     -0.554946
      25A     -0.524289    26A     -0.511651    27A     -0.509665
      28A     -0.488247    29A     -0.477545    30A     -0.410363
      31A     -0.369353

  @DF-RHF Final Energy:  -363.07556292985288

   => Energetics <=

    Nuclear Repulsion Energy =            394.6129047092403539
    One-Electron Energy =               -1275.4299344689313784
    Two-Electron Energy =                 517.7414668298380320
    Total Energy =                       -363.0755629298529357
  Basis Set: (AUG-CC-PVTZ AUX)
    Blend: AUG-CC-PVTZ-RI
    Molecular point group: c1

    Geometry (in Angstrom), charge = 0, multiplicity = 1:

       Center              X                  Y                   Z               Mass
    ------------   -----------------  -----------------  -----------------  -----------------
         O            0.009192269859     2.017060519195    -0.100058950125    15.994914619570
         N            0.254535269859    -0.271532480805    -0.344389950125    14.003074004430
         C           -0.471497730141    -1.488115480805    -0.015095950125    12.000000000000
         C           -1.930927730141    -1.012166480805    -0.034298950125    12.000000000000
         C           -1.829572730141     0.446146519195     0.415077049875    12.000000000000
         C           -0.438956730141     0.872741519195    -0.037000950125    12.000000000000
         C            1.661403169859    -0.238750680805    -0.603879250125    12.000000000000
         C            2.517226269859    -0.385223480805     0.660046049875    12.000000000000
         H           -0.186713730141    -1.875144480805     0.974863049875     1.007825032230
         H           -0.266048730141    -2.269983480805    -0.754697950125     1.007825032230
         H           -2.575842730141    -1.624916480805     0.600819049875     1.007825032230
         H           -2.313324730141    -1.062460480805    -1.058078950125     1.007825032230
         H           -1.872353730141     0.539352519195     1.507353049875     1.007825032230
         H           -2.591320730141     1.108362519195    -0.002488950125     1.007825032230
         H            1.914564269859    -1.031317480805    -1.327103950125     1.007825032230
         H            1.881634269859     0.725007519195    -1.082897950125     1.007825032230
         H            2.291801269859     0.433907519195     1.347180049875     1.007825032230
         H            2.312502269859    -1.333741480805     1.164392049875     1.007825032230
         H            3.584647269859    -0.352304480805     0.421424049875     1.007825032230

  Basis Set: AUG-CC-PVTZ
    Blend: AUG-CC-PVTZ
  Basis Set: (AUG-CC-PVTZ AUX)
    Blend: AUG-CC-PVTZ-JKFIT
	 Reference Energy          =    -363.0755629298528788 [Eh]
	 Singles Energy            =      -0.0000000000000000 [Eh]
	 Same-Spin Energy          =      -0.3768822886802081 [Eh]
	 Opposite-Spin Energy      =      -1.2469464159629582 [Eh]
	 Correlation Energy        =      -1.6238287046431663 [Eh]
	 Total Energy              =    -364.6993916344960667 [Eh]

	 ================> DF-SCS-MP2 Energies <==================
	-----------------------------------------------------------
	 SCS Same-Spin Scale       =       0.3333333333333333 [-]
	 SCS Opposite-Spin Scale   =       1.2000000000000000 [-]
	 SCS Same-Spin Energy      =      -0.1256274295600694 [Eh]
	 SCS Opposite-Spin Energy  =      -1.4963356991555499 [Eh]
	 SCS Correlation Energy    =      -1.6219631287156193 [Eh]
	 SCS Total Energy          =    -364.6975260585684850 [Eh]
	-----------------------------------------------------------

  Dipole Moment: [D]
     X:    -0.5292      Y:    -3.9323      Z:     0.2581     Total:     3.9762

*** Psi4 exiting successfully. Buy a developer a beer!
