                               Psi4 1.3.2 release

  ==> Input File <==

--------------------------------------------------------------------------
#psi4
#
memory 32 gb

molecule  {
0 1
  O       -0.0101440     2.0708820    -0.1140410
  N        0.2351990    -0.2177110    -0.3583720
  C       -0.4908340    -1.4342940    -0.0290780
  C       -1.9502640    -0.9583450    -0.0482810
  C       -1.8489090     0.4999680     0.4010950
  C       -0.5088069     1.0099118    -0.0285928
  C        1.6617300    -0.1844710    -0.6214880
  C        2.4978900    -0.3314020     0.6460640
  H       -0.2060500    -1.8213230     0.9608810
  H       -0.2853850    -2.2161620    -0.7686800
  H       -2.5951790    -1.5710950     0.5868370
  H       -2.3326610    -1.0086390    -1.0720610
  H       -1.8916900     0.5931740     1.4933710
  H       -2.6106570     1.1621840    -0.0164710
  H        1.8952280    -0.9774960    -1.3410860
  H        1.8622980     0.7788290    -1.0968800
  H        2.2724650     0.4877290     1.3331980
  H        2.2931660    -1.2799200     1.1504100
  H        3.5653110    -0.2984830     0.4074420
units angstrom
no_reorient  #important for SAPT in psi4, default
symmetry c1  #important for SAPT in psi4, default
}

set PROPERTIES_ORIGIN ["COM"]
properties('MP2/aug-cc-pvtz', properties = ['dipole'])
--------------------------------------------------------------------------

    Molecular point group: c1
  Charge       = 0
  Multiplicity = 1
  Basis Set: AUG-CC-PVTZ
    Blend: AUG-CC-PVTZ
  Basis Set: (AUG-CC-PVTZ AUX)
    Blend: AUG-CC-PVTZ-JKFIT

    Orbital Energies [Eh]
    ---------------------

    Doubly Occupied:

       1A    -20.531704     2A    -15.561922     3A    -11.347494
       4A    -11.266157     5A    -11.252151     6A    -11.243469
       7A    -11.241987     8A    -11.212324     9A     -1.408314
      10A     -1.236632    11A     -1.084169    12A     -0.992245
      13A     -0.965887    14A     -0.860871    15A     -0.817782
      16A     -0.724282    17A     -0.686091    18A     -0.671779
      19A     -0.639280    20A     -0.604100    21A     -0.592131
      22A     -0.582100    23A     -0.568981    24A     -0.553091
      25A     -0.522323    26A     -0.507469    27A     -0.506857
      28A     -0.489268    29A     -0.481158    30A     -0.415034
      31A     -0.356640

  @DF-RHF Final Energy:  -363.06618274942809

   => Energetics <=

    Nuclear Repulsion Energy =            393.4860685805646767
    One-Electron Energy =               -1273.2571147446633404
    Two-Electron Energy =                 516.7048634146705126
    Total Energy =                       -363.0661827494280942
  Basis Set: (AUG-CC-PVTZ AUX)
    Blend: AUG-CC-PVTZ-RI
    Molecular point group: c1

    Geometry (in Angstrom), charge = 0, multiplicity = 1:

       Center              X                  Y                   Z               Mass
    ------------   -----------------  -----------------  -----------------  -----------------
         O            0.012466025567     2.008167276729    -0.102050052956    15.994914619570
         N            0.257809025567    -0.280425723271    -0.346381052956    14.003074004430
         C           -0.468223974433    -1.497008723271    -0.017087052956    12.000000000000
         C           -1.927653974433    -1.021059723271    -0.036290052956    12.000000000000
         C           -1.826298974433     0.437253276729     0.413085947044    12.000000000000
         C           -0.486196874433     0.947197076729    -0.016601852956    12.000000000000
         C            1.684340025567    -0.247185723271    -0.609497052956    12.000000000000
         C            2.520500025567    -0.394116723271     0.658054947044    12.000000000000
         H           -0.183439974433    -1.884037723271     0.972871947044     1.007825032230
         H           -0.262774974433    -2.278876723271    -0.756689052956     1.007825032230
         H           -2.572568974433    -1.633809723271     0.598827947044     1.007825032230
         H           -2.310050974433    -1.071353723271    -1.060070052956     1.007825032230
         H           -1.869079974433     0.530459276729     1.505361947044     1.007825032230
         H           -2.588046974433     1.099469276729    -0.004480052956     1.007825032230
         H            1.917838025567    -1.040210723271    -1.329095052956     1.007825032230
         H            1.884908025567     0.716114276729    -1.084889052956     1.007825032230
         H            2.295075025567     0.425014276729     1.345188947044     1.007825032230
         H            2.315776025567    -1.342634723271     1.162400947044     1.007825032230
         H            3.587921025567    -0.361197723271     0.419432947044     1.007825032230

  Basis Set: AUG-CC-PVTZ
    Blend: AUG-CC-PVTZ
  Basis Set: (AUG-CC-PVTZ AUX)
    Blend: AUG-CC-PVTZ-JKFIT
	 Reference Energy          =    -363.0661827494280942 [Eh]
	 Singles Energy            =      -0.0000000000000000 [Eh]
	 Same-Spin Energy          =      -0.3764642145786271 [Eh]
	 Opposite-Spin Energy      =      -1.2461768899147836 [Eh]
	 Correlation Energy        =      -1.6226411044934106 [Eh]
	 Total Energy              =    -364.6888238539215195 [Eh]

	 ================> DF-SCS-MP2 Energies <==================
	-----------------------------------------------------------
	 SCS Same-Spin Scale       =       0.3333333333333333 [-]
	 SCS Opposite-Spin Scale   =       1.2000000000000000 [-]
	 SCS Same-Spin Energy      =      -0.1254880715262090 [Eh]
	 SCS Opposite-Spin Energy  =      -1.4954122678977402 [Eh]
	 SCS Correlation Energy    =      -1.6209003394239492 [Eh]
	 SCS Total Energy          =    -364.6870830888520345 [Eh]
	-----------------------------------------------------------

  Dipole Moment: [D]
     X:    -0.8324      Y:    -3.1307      Z:     0.3661     Total:     3.2601

*** Psi4 exiting successfully. Buy a developer a beer!
