                               Psi4 1.4a3.dev225

  ==> Input File <==

--------------------------------------------------------------------------
#psi4
#
memory 32 gb

molecule  {
0 1
  O       -0.0101440     2.0708820    -0.1140410
  N        0.2351990    -0.2177110    -0.3583720
  C       -0.4908340    -1.4342940    -0.0290780
  C       -1.9312511    -0.9645455    -0.0480308
  C       -1.8489090     0.4999680     0.4010950
  C       -0.4582930     0.9265630    -0.0509830
  C        1.6617300    -0.1844710    -0.6214880
  C        2.4978900    -0.3314020     0.6460640
  H       -0.2060500    -1.8213230     0.9608810
  H       -0.2853850    -2.2161620    -0.7686800
  H       -2.5951790    -1.5710950     0.5868370
  H       -2.3326610    -1.0086390    -1.0720610
  H       -1.8916900     0.5931740     1.4933710
  H       -2.6106570     1.1621840    -0.0164710
  H        1.8952280    -0.9774960    -1.3410860
  H        1.8622980     0.7788290    -1.0968800
  H        2.2724650     0.4877290     1.3331980
  H        2.2931660    -1.2799200     1.1504100
  H        3.5653110    -0.2984830     0.4074420
units angstrom
no_reorient  #important for SAPT in psi4, default
symmetry c1  #important for SAPT in psi4, default
}

set PROPERTIES_ORIGIN ["COM"]
properties('MP2/aug-cc-pvtz', properties = ['dipole'])
--------------------------------------------------------------------------

    Molecular point group: c1
  Charge       = 0
  Multiplicity = 1
  Basis Set: AUG-CC-PVTZ
    Blend: AUG-CC-PVTZ
  Basis Set: (AUG-CC-PVTZ AUX)
    Blend: AUG-CC-PVTZ-JKFIT

    Orbital Energies [Eh]
    ---------------------

    Doubly Occupied:

       1A    -20.511467     2A    -15.581023     3A    -11.341210
       4A    -11.274285     5A    -11.260924     6A    -11.242779
       7A    -11.240135     8A    -11.218706     9A     -1.366880
      10A     -1.259323    11A     -1.088637    12A     -1.000097
      13A     -0.974173    14A     -0.869702    15A     -0.828623
      16A     -0.726761    17A     -0.693630    18A     -0.668537
      19A     -0.639215    20A     -0.603974    21A     -0.589310
      22A     -0.572333    23A     -0.563313    24A     -0.553813
      25A     -0.521494    26A     -0.514459    27A     -0.510863
      28A     -0.491774    29A     -0.476020    30A     -0.408796
      31A     -0.369717

  @DF-RHF Final Energy:  -363.07549488242745

   => Energetics <=

    Nuclear Repulsion Energy =            394.5385056867356184
    One-Electron Energy =               -1275.3040589140064185
    Two-Electron Energy =                 517.6900583448434645
    Total Energy =                       -363.0754948824273924
  Basis Set: (AUG-CC-PVTZ AUX)
    Blend: AUG-CC-PVTZ-RI
    Molecular point group: c1

    Geometry (in Angstrom), charge = 0, multiplicity = 1:

       Center              X                  Y                   Z               Mass
    ------------   -----------------  -----------------  -----------------  -----------------
         O            0.005088137201     2.017669867653    -0.099700650303    15.994914619570
         N            0.250431137201    -0.270923132347    -0.344031650303    14.003074004430
         C           -0.475601862799    -1.487506132347    -0.014737650303    12.000000000000
         C           -1.916018962799    -1.017757632347    -0.033690450303    12.000000000000
         C           -1.833676862799     0.446755867653     0.415435349697    12.000000000000
         C           -0.443060862799     0.873350867653    -0.036642650303    12.000000000000
         C            1.676962137201    -0.237683132347    -0.607147650303    12.000000000000
         C            2.513122137201    -0.384614132347     0.660404349697    12.000000000000
         H           -0.190817862799    -1.874535132347     0.975221349697     1.007825032230
         H           -0.270152862799    -2.269374132347    -0.754339650303     1.007825032230
         H           -2.579946862799    -1.624307132347     0.601177349697     1.007825032230
         H           -2.317428862799    -1.061851132347    -1.057720650303     1.007825032230
         H           -1.876457862799     0.539961867653     1.507711349697     1.007825032230
         H           -2.595424862799     1.108971867653    -0.002130650303     1.007825032230
         H            1.910460137201    -1.030708132347    -1.326745650303     1.007825032230
         H            1.877530137201     0.725616867653    -1.082539650303     1.007825032230
         H            2.287697137201     0.434516867653     1.347538349697     1.007825032230
         H            2.308398137201    -1.333132132347     1.164750349697     1.007825032230
         H            3.580543137201    -0.351695132347     0.421782349697     1.007825032230

  Basis Set: AUG-CC-PVTZ
    Blend: AUG-CC-PVTZ
  Basis Set: (AUG-CC-PVTZ AUX)
    Blend: AUG-CC-PVTZ-JKFIT
	 Reference Energy          =    -363.0754948824274493 [Eh]
	 Singles Energy            =      -0.0000000000000000 [Eh]
	 Same-Spin Energy          =      -0.3768579301671972 [Eh]
	 Opposite-Spin Energy      =      -1.2469653476542208 [Eh]
	 Correlation Energy        =      -1.6238232778214181 [Eh]
	 Total Energy              =    -364.6993181602488789 [Eh]

	 ================> DF-SCS-MP2 Energies <==================
	-----------------------------------------------------------
	 SCS Same-Spin Scale       =       0.3333333333333333 [-]
	 SCS Opposite-Spin Scale   =       1.2000000000000000 [-]
	 SCS Same-Spin Energy      =      -0.1256193100557324 [Eh]
	 SCS Opposite-Spin Energy  =      -1.4963584171850650 [Eh]
	 SCS Correlation Energy    =      -1.6219777272407974 [Eh]
	 SCS Total Energy          =    -364.6974726096682389 [Eh]
	-----------------------------------------------------------

  Dipole Moment: [D]
     X:    -0.4606      Y:    -3.9445      Z:     0.2545     Total:     3.9794

*** Psi4 exiting successfully. Buy a developer a beer!
