                               Psi4 1.3.2 release

  ==> Input File <==

--------------------------------------------------------------------------
#psi4
#
memory 32 gb

molecule  {
0 1
  O       -0.0101440     2.0708820    -0.1140410
  N        0.2351990    -0.2177110    -0.3583720
  C       -0.4908340    -1.4342940    -0.0290780
  C       -1.9502640    -0.9583450    -0.0482810
  C       -1.8489090     0.4999680     0.4010950
  C       -0.4582930     0.9265630    -0.0509830
  C        1.6617300    -0.1844710    -0.6214880
  C        2.4978900    -0.3314020     0.6460640
  H       -0.2319297    -1.7861518     0.8709186
  H       -0.2853850    -2.2161620    -0.7686800
  H       -2.5951790    -1.5710950     0.5868370
  H       -2.3326610    -1.0086390    -1.0720610
  H       -1.8916900     0.5931740     1.4933710
  H       -2.6106570     1.1621840    -0.0164710
  H        1.8952280    -0.9774960    -1.3410860
  H        1.8622980     0.7788290    -1.0968800
  H        2.2724650     0.4877290     1.3331980
  H        2.2931660    -1.2799200     1.1504100
  H        3.5653110    -0.2984830     0.4074420
units angstrom
no_reorient  #important for SAPT in psi4, default
symmetry c1  #important for SAPT in psi4, default
}

set PROPERTIES_ORIGIN ["COM"]
properties('MP2/aug-cc-pvtz', properties = ['dipole'])
--------------------------------------------------------------------------

    Molecular point group: c1
  Charge       = 0
  Multiplicity = 1
  Basis Set: AUG-CC-PVTZ
    Blend: AUG-CC-PVTZ
  Basis Set: (AUG-CC-PVTZ AUX)
    Blend: AUG-CC-PVTZ-JKFIT

    Orbital Energies [Eh]
    ---------------------

    Doubly Occupied:

       1A    -20.510738     2A    -15.579509     3A    -11.340599
       4A    -11.262391     5A    -11.260554     6A    -11.241572
       7A    -11.239535     8A    -11.218814     9A     -1.366114
      10A     -1.258372    11A     -1.088042    12A     -1.000238
      13A     -0.978449    14A     -0.870944    15A     -0.832570
      16A     -0.728890    17A     -0.700738    18A     -0.666931
      19A     -0.638909    20A     -0.604548    21A     -0.596483
      22A     -0.572194    23A     -0.563060    24A     -0.554511
      25A     -0.524530    26A     -0.513091    27A     -0.508929
      28A     -0.489686    29A     -0.478751    30A     -0.408791
      31A     -0.370176

  @DF-RHF Final Energy:  -363.07056340296981

   => Energetics <=

    Nuclear Repulsion Energy =            394.8018594392712544
    One-Electron Energy =               -1275.8075248361506056
    Two-Electron Energy =                 517.9351019939094840
    Total Energy =                       -363.0705634029698103
  Basis Set: (AUG-CC-PVTZ AUX)
    Blend: AUG-CC-PVTZ-RI
    Molecular point group: c1

    Geometry (in Angstrom), charge = 0, multiplicity = 1:

       Center              X                  Y                   Z               Mass
    ------------   -----------------  -----------------  -----------------  -----------------
         O            0.007336349730     2.016698445050    -0.098872339439    15.994914619570
         N            0.252679349730    -0.271894554950    -0.343203339439    14.003074004430
         C           -0.473353650270    -1.488477554950    -0.013909339439    12.000000000000
         C           -1.932783650270    -1.012528554950    -0.033112339439    12.000000000000
         C           -1.831428650270     0.445784445050     0.416263660561    12.000000000000
         C           -0.440812650270     0.872379445050    -0.035814339439    12.000000000000
         C            1.679210349730    -0.238654554950    -0.606319339439    12.000000000000
         C            2.515370349730    -0.385585554950     0.661232660561    12.000000000000
         H           -0.214449350270    -1.840335354950     0.886087260561     1.007825032230
         H           -0.267904650270    -2.270345554950    -0.753511339439     1.007825032230
         H           -2.577698650270    -1.625278554950     0.602005660561     1.007825032230
         H           -2.315180650270    -1.062822554950    -1.056892339439     1.007825032230
         H           -1.874209650270     0.538990445050     1.508539660561     1.007825032230
         H           -2.593176650270     1.108000445050    -0.001302339439     1.007825032230
         H            1.912708349730    -1.031679554950    -1.325917339439     1.007825032230
         H            1.879778349730     0.724645445050    -1.081711339439     1.007825032230
         H            2.289945349730     0.433545445050     1.348366660561     1.007825032230
         H            2.310646349730    -1.334103554950     1.165578660561     1.007825032230
         H            3.582791349730    -0.352666554950     0.422610660561     1.007825032230

  Basis Set: AUG-CC-PVTZ
    Blend: AUG-CC-PVTZ
  Basis Set: (AUG-CC-PVTZ AUX)
    Blend: AUG-CC-PVTZ-JKFIT
	 Reference Energy          =    -363.0705634029698103 [Eh]
	 Singles Energy            =      -0.0000000000000000 [Eh]
	 Same-Spin Energy          =      -0.3766888709383520 [Eh]
	 Opposite-Spin Energy      =      -1.2463342755364848 [Eh]
	 Correlation Energy        =      -1.6230231464748368 [Eh]
	 Total Energy              =    -364.6935865494446602 [Eh]

	 ================> DF-SCS-MP2 Energies <==================
	-----------------------------------------------------------
	 SCS Same-Spin Scale       =       0.3333333333333333 [-]
	 SCS Opposite-Spin Scale   =       1.2000000000000000 [-]
	 SCS Same-Spin Energy      =      -0.1255629569794506 [Eh]
	 SCS Opposite-Spin Energy  =      -1.4956011306437818 [Eh]
	 SCS Correlation Energy    =      -1.6211640876232325 [Eh]
	 SCS Total Energy          =    -364.6917274905930526 [Eh]
	-----------------------------------------------------------

  Dipole Moment: [D]
     X:    -0.4516      Y:    -4.0081      Z:     0.3071     Total:     4.0451

*** Psi4 exiting successfully. Buy a developer a beer!
