                               Psi4 1.4a3.dev225

  ==> Input File <==

--------------------------------------------------------------------------
#psi4
#
memory 32 gb

molecule  {
0 1
  O       -0.0101440     2.0708820    -0.1140410
  N        0.2351990    -0.2177110    -0.3583720
  C       -0.4908340    -1.4342940    -0.0290780
  C       -1.9502640    -0.9583450    -0.0482810
  C       -1.8489090     0.4999680     0.4010950
  C       -0.4582930     0.9265630    -0.0509830
  C        1.6617300    -0.1844710    -0.6214880
  C        2.4978900    -0.3314020     0.6460640
  H       -0.2060500    -1.8213230     0.9608810
  H       -0.2853850    -2.2161620    -0.7686800
  H       -2.5656782    -1.5430656     0.5577844
  H       -2.3326610    -1.0086390    -1.0720610
  H       -1.8916900     0.5931740     1.4933710
  H       -2.6106570     1.1621840    -0.0164710
  H        1.8952280    -0.9774960    -1.3410860
  H        1.8622980     0.7788290    -1.0968800
  H        2.2724650     0.4877290     1.3331980
  H        2.2931660    -1.2799200     1.1504100
  H        3.5653110    -0.2984830     0.4074420
units angstrom
no_reorient  #important for SAPT in psi4, default
symmetry c1  #important for SAPT in psi4, default
}

set PROPERTIES_ORIGIN ["COM"]
properties('MP2/aug-cc-pvtz', properties = ['dipole'])
--------------------------------------------------------------------------

    Molecular point group: c1
  Charge       = 0
  Multiplicity = 1
  Basis Set: AUG-CC-PVTZ
    Blend: AUG-CC-PVTZ
  Basis Set: (AUG-CC-PVTZ AUX)
    Blend: AUG-CC-PVTZ-JKFIT

    Orbital Energies [Eh]
    ---------------------

    Doubly Occupied:

       1A    -20.511285     2A    -15.580594     3A    -11.340979
       4A    -11.274483     5A    -11.260653     6A    -11.239600
       7A    -11.236233     8A    -11.218484     9A     -1.366538
      10A     -1.258156    11A     -1.088765    12A     -1.001164
      13A     -0.972285    14A     -0.871496    15A     -0.832129
      16A     -0.726336    17A     -0.694625    18A     -0.667411
      19A     -0.640317    20A     -0.605411    21A     -0.589235
      22A     -0.572142    23A     -0.563169    24A     -0.558126
      25A     -0.524396    26A     -0.512918    27A     -0.509215
      28A     -0.490047    29A     -0.477710    30A     -0.409358
      31A     -0.369211

  @DF-RHF Final Energy:  -363.07507387712002

   => Energetics <=

    Nuclear Repulsion Energy =            394.5445386300464179
    One-Electron Energy =               -1275.3142789641585750
    Two-Electron Energy =                 517.6946664569920813
    Total Energy =                       -363.0750738771200758
  Basis Set: (AUG-CC-PVTZ AUX)
    Blend: AUG-CC-PVTZ-RI
    Molecular point group: c1

    Geometry (in Angstrom), charge = 0, multiplicity = 1:

       Center              X                  Y                   Z               Mass
    ------------   -----------------  -----------------  -----------------  -----------------
         O            0.006842788991     2.016762094026    -0.099415178271    15.994914619570
         N            0.252185788991    -0.271830905974    -0.343746178271    14.003074004430
         C           -0.473847211009    -1.488413905974    -0.014452178271    12.000000000000
         C           -1.933277211009    -1.012464905974    -0.033655178271    12.000000000000
         C           -1.831922211009     0.445848094026     0.415720821729    12.000000000000
         C           -0.441306211009     0.872443094026    -0.036357178271    12.000000000000
         C            1.678716788991    -0.238590905974    -0.606862178271    12.000000000000
         C            2.514876788991    -0.385521905974     0.660689821729    12.000000000000
         H           -0.189063211009    -1.875442905974     0.975506821729     1.007825032230
         H           -0.268398211009    -2.270281905974    -0.754054178271     1.007825032230
         H           -2.548691411009    -1.597185505974     0.572410221729     1.007825032230
         H           -2.315674211009    -1.062758905974    -1.057435178271     1.007825032230
         H           -1.874703211009     0.539054094026     1.507996821729     1.007825032230
         H           -2.593670211009     1.108064094026    -0.001845178271     1.007825032230
         H            1.912214788991    -1.031615905974    -1.326460178271     1.007825032230
         H            1.879284788991     0.724709094026    -1.082254178271     1.007825032230
         H            2.289451788991     0.433609094026     1.347823821729     1.007825032230
         H            2.310152788991    -1.334039905974     1.165035821729     1.007825032230
         H            3.582297788991    -0.352602905974     0.422067821729     1.007825032230

  Basis Set: AUG-CC-PVTZ
    Blend: AUG-CC-PVTZ
  Basis Set: (AUG-CC-PVTZ AUX)
    Blend: AUG-CC-PVTZ-JKFIT
	 Reference Energy          =    -363.0750738771200190 [Eh]
	 Singles Energy            =      -0.0000000000000000 [Eh]
	 Same-Spin Energy          =      -0.3767793483193416 [Eh]
	 Opposite-Spin Energy      =      -1.2466122602050258 [Eh]
	 Correlation Energy        =      -1.6233916085243674 [Eh]
	 Total Energy              =    -364.6984654856443626 [Eh]

	 ================> DF-SCS-MP2 Energies <==================
	-----------------------------------------------------------
	 SCS Same-Spin Scale       =       0.3333333333333333 [-]
	 SCS Opposite-Spin Scale   =       1.2000000000000000 [-]
	 SCS Same-Spin Energy      =      -0.1255931161064472 [Eh]
	 SCS Opposite-Spin Energy  =      -1.4959347122460309 [Eh]
	 SCS Correlation Energy    =      -1.6215278283524781 [Eh]
	 SCS Total Energy          =    -364.6966017054725171 [Eh]
	-----------------------------------------------------------

  Dipole Moment: [D]
     X:    -0.4878      Y:    -3.9666      Z:     0.2616     Total:     4.0050

*** Psi4 exiting successfully. Buy a developer a beer!
