                               Psi4 1.4a3.dev225

  ==> Input File <==

--------------------------------------------------------------------------
#psi4
#
memory 32 gb

molecule  {
0 1
  O       -0.0101440     2.0708820    -0.1140410
  N        0.2351990    -0.2177110    -0.3583720
  C       -0.4908340    -1.4342940    -0.0290780
  C       -1.9502640    -0.9583450    -0.0482810
  C       -1.8489090     0.4999680     0.4010950
  C       -0.4400340     0.9321643    -0.0569189
  C        1.6617300    -0.1844710    -0.6214880
  C        2.4978900    -0.3314020     0.6460640
  H       -0.2060500    -1.8213230     0.9608810
  H       -0.2853850    -2.2161620    -0.7686800
  H       -2.5951790    -1.5710950     0.5868370
  H       -2.3326610    -1.0086390    -1.0720610
  H       -1.8916900     0.5931740     1.4933710
  H       -2.6106570     1.1621840    -0.0164710
  H        1.8952280    -0.9774960    -1.3410860
  H        1.8622980     0.7788290    -1.0968800
  H        2.2724650     0.4877290     1.3331980
  H        2.2931660    -1.2799200     1.1504100
  H        3.5653110    -0.2984830     0.4074420
units angstrom
no_reorient  #important for SAPT in psi4, default
symmetry c1  #important for SAPT in psi4, default
}

set PROPERTIES_ORIGIN ["COM"]
properties('MP2/aug-cc-pvtz', properties = ['dipole'])
--------------------------------------------------------------------------

    Molecular point group: c1
  Charge       = 0
  Multiplicity = 1
  Basis Set: AUG-CC-PVTZ
    Blend: AUG-CC-PVTZ
  Basis Set: (AUG-CC-PVTZ AUX)
    Blend: AUG-CC-PVTZ-JKFIT

    Orbital Energies [Eh]
    ---------------------

    Doubly Occupied:

       1A    -20.512846     2A    -15.580829     3A    -11.340146
       4A    -11.275153     5A    -11.260948     6A    -11.241392
       7A    -11.238614     8A    -11.218946     9A     -1.373794
      10A     -1.261058    11A     -1.085873    12A     -1.000478
      13A     -0.970116    14A     -0.870049    15A     -0.828575
      16A     -0.725730    17A     -0.693191    18A     -0.667812
      19A     -0.640809    20A     -0.604510    21A     -0.588769
      22A     -0.573778    23A     -0.563371    24A     -0.555763
      25A     -0.523308    26A     -0.513430    27A     -0.508474
      28A     -0.490538    29A     -0.479170    30A     -0.407595
      31A     -0.370828

  @DF-RHF Final Energy:  -363.07665433883682

   => Energetics <=

    Nuclear Repulsion Energy =            394.3789346259812305
    One-Electron Energy =               -1274.9793942457617959
    Two-Electron Energy =                 517.5238052809438614
    Total Energy =                       -363.0766543388367609
  Basis Set: (AUG-CC-PVTZ AUX)
    Blend: AUG-CC-PVTZ-RI
    Molecular point group: c1

    Geometry (in Angstrom), charge = 0, multiplicity = 1:

       Center              X                  Y                   Z               Mass
    ------------   -----------------  -----------------  -----------------  -----------------
         O            0.005168137863     2.016417510822    -0.099044207676    15.994914619570
         N            0.250511137863    -0.272175489178    -0.343375207676    14.003074004430
         C           -0.475521862137    -1.488758489178    -0.014081207676    12.000000000000
         C           -1.934951862137    -1.012809489178    -0.033284207676    12.000000000000
         C           -1.833596862137     0.445503510822     0.416091792324    12.000000000000
         C           -0.424721862137     0.877699810822    -0.041922107676    12.000000000000
         C            1.677042137863    -0.238935489178    -0.606491207676    12.000000000000
         C            2.513202137863    -0.385866489178     0.661060792324    12.000000000000
         H           -0.190737862137    -1.875787489178     0.975877792324     1.007825032230
         H           -0.270072862137    -2.270626489178    -0.753683207676     1.007825032230
         H           -2.579866862137    -1.625559489178     0.601833792324     1.007825032230
         H           -2.317348862137    -1.063103489178    -1.057064207676     1.007825032230
         H           -1.876377862137     0.538709510822     1.508367792324     1.007825032230
         H           -2.595344862137     1.107719510822    -0.001474207676     1.007825032230
         H            1.910540137863    -1.031960489178    -1.326089207676     1.007825032230
         H            1.877610137863     0.724364510822    -1.081883207676     1.007825032230
         H            2.287777137863     0.433264510822     1.348194792324     1.007825032230
         H            2.308478137863    -1.334384489178     1.165406792324     1.007825032230
         H            3.580623137863    -0.352947489178     0.422438792324     1.007825032230

  Basis Set: AUG-CC-PVTZ
    Blend: AUG-CC-PVTZ
  Basis Set: (AUG-CC-PVTZ AUX)
    Blend: AUG-CC-PVTZ-JKFIT
	 Reference Energy          =    -363.0766543388368177 [Eh]
	 Singles Energy            =      -0.0000000000000000 [Eh]
	 Same-Spin Energy          =      -0.3764544258568912 [Eh]
	 Opposite-Spin Energy      =      -1.2463111575281833 [Eh]
	 Correlation Energy        =      -1.6227655833850745 [Eh]
	 Total Energy              =    -364.6994199222218640 [Eh]

	 ================> DF-SCS-MP2 Energies <==================
	-----------------------------------------------------------
	 SCS Same-Spin Scale       =       0.3333333333333333 [-]
	 SCS Opposite-Spin Scale   =       1.2000000000000000 [-]
	 SCS Same-Spin Energy      =      -0.1254848086189637 [Eh]
	 SCS Opposite-Spin Energy  =      -1.4955733890338199 [Eh]
	 SCS Correlation Energy    =      -1.6210581976527836 [Eh]
	 SCS Total Energy          =    -364.6977125364895755 [Eh]
	-----------------------------------------------------------

  Dipole Moment: [D]
     X:    -0.3857      Y:    -3.9053      Z:     0.2313     Total:     3.9311

*** Psi4 exiting successfully. Buy a developer a beer!
