                               Psi4 1.3.2 release

  ==> Input File <==

--------------------------------------------------------------------------
#psi4
#
memory 32 gb

molecule  {
0 1
  O       -0.0101440     2.0708820    -0.1140410
  N        0.2351990    -0.2177110    -0.3583720
  C       -0.4908340    -1.4342940    -0.0290780
  C       -1.9502640    -0.9583450    -0.0482810
  C       -1.9148167     0.4758563     0.4815290
  C       -0.4582930     0.9265630    -0.0509830
  C        1.6617300    -0.1844710    -0.6214880
  C        2.4978900    -0.3314020     0.6460640
  H       -0.2060500    -1.8213230     0.9608810
  H       -0.2853850    -2.2161620    -0.7686800
  H       -2.5951790    -1.5710950     0.5868370
  H       -2.3326610    -1.0086390    -1.0720610
  H       -1.8916900     0.5931740     1.4933710
  H       -2.6106570     1.1621840    -0.0164710
  H        1.8952280    -0.9774960    -1.3410860
  H        1.8622980     0.7788290    -1.0968800
  H        2.2724650     0.4877290     1.3331980
  H        2.2931660    -1.2799200     1.1504100
  H        3.5653110    -0.2984830     0.4074420
units angstrom
no_reorient  #important for SAPT in psi4, default
symmetry c1  #important for SAPT in psi4, default
}

set PROPERTIES_ORIGIN ["COM"]
properties('MP2/aug-cc-pvtz', properties = ['dipole'])
--------------------------------------------------------------------------

    Molecular point group: c1
  Charge       = 0
  Multiplicity = 1
  Basis Set: AUG-CC-PVTZ
    Blend: AUG-CC-PVTZ
  Basis Set: (AUG-CC-PVTZ AUX)
    Blend: AUG-CC-PVTZ-JKFIT

    Orbital Energies [Eh]
    ---------------------

    Doubly Occupied:

       1A    -20.513090     2A    -15.581272     3A    -11.343786
       4A    -11.275086     5A    -11.261402     6A    -11.242526
       7A    -11.238746     8A    -11.218957     9A     -1.365232
      10A     -1.256633    11A     -1.084599    12A     -1.001914
      13A     -0.966128    14A     -0.869271    15A     -0.831529
      16A     -0.722665    17A     -0.694371    18A     -0.665364
      19A     -0.637847    20A     -0.611205    21A     -0.593884
      22A     -0.572622    23A     -0.560157    24A     -0.544643
      25A     -0.521879    26A     -0.514144    27A     -0.512673
      28A     -0.491360    29A     -0.487217    30A     -0.399270
      31A     -0.368683

  @DF-RHF Final Energy:  -363.06514996353508

   => Energetics <=

    Nuclear Repulsion Energy =            392.8211884615158738
    One-Electron Energy =               -1271.8763661666796452
    Two-Electron Energy =                 515.9900277416286372
    Total Energy =                       -363.0651499635350774
  Basis Set: (AUG-CC-PVTZ AUX)
    Blend: AUG-CC-PVTZ-RI
    Molecular point group: c1

    Geometry (in Angstrom), charge = 0, multiplicity = 1:

       Center              X                  Y                   Z               Mass
    ------------   -----------------  -----------------  -----------------  -----------------
         O            0.014099550164     2.019570528033    -0.108209414192    15.994914619570
         N            0.259442550164    -0.269022471967    -0.352540414192    14.003074004430
         C           -0.466590449836    -1.485605471967    -0.023246414192    12.000000000000
         C           -1.926020449836    -1.009656471967    -0.042449414192    12.000000000000
         C           -1.890573149836     0.424544828033     0.487360585808    12.000000000000
         C           -0.434049449836     0.875251528033    -0.045151414192    12.000000000000
         C            1.685973550164    -0.235782471967    -0.615656414192    12.000000000000
         C            2.522133550164    -0.382713471967     0.651895585808    12.000000000000
         H           -0.181806449836    -1.872634471967     0.966712585808     1.007825032230
         H           -0.261141449836    -2.267473471967    -0.762848414192     1.007825032230
         H           -2.570935449836    -1.622406471967     0.592668585808     1.007825032230
         H           -2.308417449836    -1.059950471967    -1.066229414192     1.007825032230
         H           -1.867446449836     0.541862528033     1.499202585808     1.007825032230
         H           -2.586413449836     1.110872528033    -0.010639414192     1.007825032230
         H            1.919471550164    -1.028807471967    -1.335254414192     1.007825032230
         H            1.886541550164     0.727517528033    -1.091048414192     1.007825032230
         H            2.296708550164     0.436417528033     1.339029585808     1.007825032230
         H            2.317409550164    -1.331231471967     1.156241585808     1.007825032230
         H            3.589554550164    -0.349794471967     0.413273585808     1.007825032230

  Basis Set: AUG-CC-PVTZ
    Blend: AUG-CC-PVTZ
  Basis Set: (AUG-CC-PVTZ AUX)
    Blend: AUG-CC-PVTZ-JKFIT
	 Reference Energy          =    -363.0651499635350774 [Eh]
	 Singles Energy            =      -0.0000000000000000 [Eh]
	 Same-Spin Energy          =      -0.3768380540965437 [Eh]
	 Opposite-Spin Energy      =      -1.2475410837150211 [Eh]
	 Correlation Energy        =      -1.6243791378115648 [Eh]
	 Total Energy              =    -364.6895291013466363 [Eh]

	 ================> DF-SCS-MP2 Energies <==================
	-----------------------------------------------------------
	 SCS Same-Spin Scale       =       0.3333333333333333 [-]
	 SCS Opposite-Spin Scale   =       1.2000000000000000 [-]
	 SCS Same-Spin Energy      =      -0.1256126846988479 [Eh]
	 SCS Opposite-Spin Energy  =      -1.4970493004580254 [Eh]
	 SCS Correlation Energy    =      -1.6226619851568733 [Eh]
	 SCS Total Energy          =    -364.6878119486919445 [Eh]
	-----------------------------------------------------------

  Dipole Moment: [D]
     X:    -0.3275      Y:    -3.8959      Z:     0.2442     Total:     3.9173

*** Psi4 exiting successfully. Buy a developer a beer!
