                               Psi4 1.3.2 release

  ==> Input File <==

--------------------------------------------------------------------------
#psi4
#
memory 32 gb

molecule  {
0 1
  O       -0.0101440     2.0708820    -0.1140410
  N        0.2351990    -0.2177110    -0.3583720
  C       -0.4908340    -1.4342940    -0.0290780
  C       -2.0774187    -0.9140449    -0.1348520
  C       -1.8489090     0.4999680     0.4010950
  C       -0.4582930     0.9265630    -0.0509830
  C        1.6617300    -0.1844710    -0.6214880
  C        2.4978900    -0.3314020     0.6460640
  H       -0.2060500    -1.8213230     0.9608810
  H       -0.2853850    -2.2161620    -0.7686800
  H       -2.5951790    -1.5710950     0.5868370
  H       -2.3326610    -1.0086390    -1.0720610
  H       -1.8916900     0.5931740     1.4933710
  H       -2.6106570     1.1621840    -0.0164710
  H        1.8952280    -0.9774960    -1.3410860
  H        1.8622980     0.7788290    -1.0968800
  H        2.2724650     0.4877290     1.3331980
  H        2.2931660    -1.2799200     1.1504100
  H        3.5653110    -0.2984830     0.4074420
units angstrom
no_reorient  #important for SAPT in psi4, default
symmetry c1  #important for SAPT in psi4, default
}

set PROPERTIES_ORIGIN ["COM"]
properties('MP2/aug-cc-pvtz', properties = ['dipole'])
--------------------------------------------------------------------------

    Molecular point group: c1
  Charge       = 0
  Multiplicity = 1
  Basis Set: AUG-CC-PVTZ
    Blend: AUG-CC-PVTZ
  Basis Set: (AUG-CC-PVTZ AUX)
    Blend: AUG-CC-PVTZ-JKFIT

    Orbital Energies [Eh]
    ---------------------

    Doubly Occupied:

       1A    -20.512189     2A    -15.580087     3A    -11.341453
       4A    -11.277983     5A    -11.260453     6A    -11.242646
       7A    -11.241341     8A    -11.218329     9A     -1.366537
      10A     -1.253735    11A     -1.081999    12A     -1.002151
      13A     -0.960293    14A     -0.874804    15A     -0.838376
      16A     -0.722981    17A     -0.693245    18A     -0.664538
      19A     -0.639181    20A     -0.611595    21A     -0.591453
      22A     -0.576635    23A     -0.567238    24A     -0.549553
      25A     -0.531923    26A     -0.515083    27A     -0.501382
      28A     -0.487556    29A     -0.456662    30A     -0.410825
      31A     -0.367918

  @DF-RHF Final Energy:  -363.05095738040370

   => Energetics <=

    Nuclear Repulsion Energy =            392.5067397585195295
    One-Electron Energy =               -1271.2351081584561143
    Two-Electron Energy =                 515.6774110195328831
    Total Energy =                       -363.0509573804037018
  Basis Set: (AUG-CC-PVTZ AUX)
    Blend: AUG-CC-PVTZ-RI
    Molecular point group: c1

    Geometry (in Angstrom), charge = 0, multiplicity = 1:

       Center              X                  Y                   Z               Mass
    ------------   -----------------  -----------------  -----------------  -----------------
         O            0.020598821362     2.012310958726    -0.090487553750    15.994914619570
         N            0.265941821362    -0.276282041274    -0.334818553750    14.003074004430
         C           -0.460091178638    -1.492865041274    -0.005524553750    12.000000000000
         C           -2.046675878638    -0.972615941274    -0.111298553750    12.000000000000
         C           -1.818166178638     0.441396958726     0.424648446250    12.000000000000
         C           -0.427550178638     0.867991958726    -0.027429553750    12.000000000000
         C            1.692472821362    -0.243042041274    -0.597934553750    12.000000000000
         C            2.528632821362    -0.389973041274     0.669617446250    12.000000000000
         H           -0.175307178638    -1.879894041274     0.984434446250     1.007825032230
         H           -0.254642178638    -2.274733041274    -0.745126553750     1.007825032230
         H           -2.564436178638    -1.629666041274     0.610390446250     1.007825032230
         H           -2.301918178638    -1.067210041274    -1.048507553750     1.007825032230
         H           -1.860947178638     0.534602958726     1.516924446250     1.007825032230
         H           -2.579914178638     1.103612958726     0.007082446250     1.007825032230
         H            1.925970821362    -1.036067041274    -1.317532553750     1.007825032230
         H            1.893040821362     0.720257958726    -1.073326553750     1.007825032230
         H            2.303207821362     0.429157958726     1.356751446250     1.007825032230
         H            2.323908821362    -1.338491041274     1.173963446250     1.007825032230
         H            3.596053821362    -0.357054041274     0.430995446250     1.007825032230

  Basis Set: AUG-CC-PVTZ
    Blend: AUG-CC-PVTZ
  Basis Set: (AUG-CC-PVTZ AUX)
    Blend: AUG-CC-PVTZ-JKFIT
	 Reference Energy          =    -363.0509573804037018 [Eh]
	 Singles Energy            =      -0.0000000000000000 [Eh]
	 Same-Spin Energy          =      -0.3770395015267789 [Eh]
	 Opposite-Spin Energy      =      -1.2483263392006014 [Eh]
	 Correlation Energy        =      -1.6253658407273803 [Eh]
	 Total Energy              =    -364.6763232211310992 [Eh]

	 ================> DF-SCS-MP2 Energies <==================
	-----------------------------------------------------------
	 SCS Same-Spin Scale       =       0.3333333333333333 [-]
	 SCS Opposite-Spin Scale   =       1.2000000000000000 [-]
	 SCS Same-Spin Energy      =      -0.1256798338422596 [Eh]
	 SCS Opposite-Spin Energy  =      -1.4979916070407218 [Eh]
	 SCS Correlation Energy    =      -1.6236714408829813 [Eh]
	 SCS Total Energy          =    -364.6746288212866602 [Eh]
	-----------------------------------------------------------

  Dipole Moment: [D]
     X:    -0.4583      Y:    -3.9275      Z:     0.2162     Total:     3.9601

*** Psi4 exiting successfully. Buy a developer a beer!
