                               Psi4 1.3.2 release

  ==> Input File <==

--------------------------------------------------------------------------
#psi4
#
memory 32 gb

molecule  {
0 1
  O       -0.0101440     2.0708820    -0.1140410
  N        0.2351990    -0.2177110    -0.3583720
  C       -0.4908340    -1.4342940    -0.0290780
  C       -1.9576940    -1.0020226     0.1061826
  C       -1.8489090     0.4999680     0.4010950
  C       -0.4582930     0.9265630    -0.0509830
  C        1.6617300    -0.1844710    -0.6214880
  C        2.4978900    -0.3314020     0.6460640
  H       -0.2060500    -1.8213230     0.9608810
  H       -0.2853850    -2.2161620    -0.7686800
  H       -2.5951790    -1.5710950     0.5868370
  H       -2.3326610    -1.0086390    -1.0720610
  H       -1.8916900     0.5931740     1.4933710
  H       -2.6106570     1.1621840    -0.0164710
  H        1.8952280    -0.9774960    -1.3410860
  H        1.8622980     0.7788290    -1.0968800
  H        2.2724650     0.4877290     1.3331980
  H        2.2931660    -1.2799200     1.1504100
  H        3.5653110    -0.2984830     0.4074420
units angstrom
no_reorient  #important for SAPT in psi4, default
symmetry c1  #important for SAPT in psi4, default
}

set PROPERTIES_ORIGIN ["COM"]
properties('MP2/aug-cc-pvtz', properties = ['dipole'])
--------------------------------------------------------------------------

    Molecular point group: c1
  Charge       = 0
  Multiplicity = 1
  Basis Set: AUG-CC-PVTZ
    Blend: AUG-CC-PVTZ
  Basis Set: (AUG-CC-PVTZ AUX)
    Blend: AUG-CC-PVTZ-JKFIT

    Orbital Energies [Eh]
    ---------------------

    Doubly Occupied:

       1A    -20.513320     2A    -15.583348     3A    -11.344112
       4A    -11.277444     5A    -11.262486     6A    -11.247584
       7A    -11.242943     8A    -11.219089     9A     -1.368284
      10A     -1.258941    11A     -1.088700    12A     -1.002644
      13A     -0.974011    14A     -0.873407    15A     -0.833276
      16A     -0.729927    17A     -0.691699    18A     -0.667655
      19A     -0.645659    20A     -0.606074    21A     -0.587887
      22A     -0.580700    23A     -0.571526    24A     -0.559606
      25A     -0.524020    26A     -0.509296    27A     -0.508387
      28A     -0.493377    29A     -0.448104    30A     -0.413313
      31A     -0.369750

  @DF-RHF Final Energy:  -363.04775947123676

   => Energetics <=

    Nuclear Repulsion Energy =            393.8126647020040423
    One-Electron Energy =               -1273.7277081661968623
    Two-Electron Energy =                 516.8672839929561178
    Total Energy =                       -363.0477594712367591
  Basis Set: (AUG-CC-PVTZ AUX)
    Blend: AUG-CC-PVTZ-RI
    Molecular point group: c1

    Geometry (in Angstrom), charge = 0, multiplicity = 1:

       Center              X                  Y                   Z               Mass
    ------------   -----------------  -----------------  -----------------  -----------------
         O            0.007894145306     2.021646778141    -0.116065120546    15.994914619570
         N            0.253237145306    -0.266946221859    -0.360396120546    14.003074004430
         C           -0.472795854694    -1.483529221859    -0.031102120546    12.000000000000
         C           -1.939655854694    -1.051257821859     0.104158479454    12.000000000000
         C           -1.830870854694     0.450732778141     0.399070879454    12.000000000000
         C           -0.440254854694     0.877327778141    -0.053007120546    12.000000000000
         C            1.679768145306    -0.233706221859    -0.623512120546    12.000000000000
         C            2.515928145306    -0.380637221859     0.644039879454    12.000000000000
         H           -0.188011854694    -1.870558221859     0.958856879454     1.007825032230
         H           -0.267346854694    -2.265397221859    -0.770704120546     1.007825032230
         H           -2.577140854694    -1.620330221859     0.584812879454     1.007825032230
         H           -2.314622854694    -1.057874221859    -1.074085120546     1.007825032230
         H           -1.873651854694     0.543938778141     1.491346879454     1.007825032230
         H           -2.592618854694     1.112948778141    -0.018495120546     1.007825032230
         H            1.913266145306    -1.026731221859    -1.343110120546     1.007825032230
         H            1.880336145306     0.729593778141    -1.098904120546     1.007825032230
         H            2.290503145306     0.438493778141     1.331173879454     1.007825032230
         H            2.311204145306    -1.329155221859     1.148385879454     1.007825032230
         H            3.583349145306    -0.347718221859     0.405417879454     1.007825032230

  Basis Set: AUG-CC-PVTZ
    Blend: AUG-CC-PVTZ
  Basis Set: (AUG-CC-PVTZ AUX)
    Blend: AUG-CC-PVTZ-JKFIT
	 Reference Energy          =    -363.0477594712367591 [Eh]
	 Singles Energy            =      -0.0000000000000000 [Eh]
	 Same-Spin Energy          =      -0.3771274441542548 [Eh]
	 Opposite-Spin Energy      =      -1.2482320110612208 [Eh]
	 Correlation Energy        =      -1.6253594552154755 [Eh]
	 Total Energy              =    -364.6731189264522186 [Eh]

	 ================> DF-SCS-MP2 Energies <==================
	-----------------------------------------------------------
	 SCS Same-Spin Scale       =       0.3333333333333333 [-]
	 SCS Opposite-Spin Scale   =       1.2000000000000000 [-]
	 SCS Same-Spin Energy      =      -0.1257091480514183 [Eh]
	 SCS Opposite-Spin Energy  =      -1.4978784132734650 [Eh]
	 SCS Correlation Energy    =      -1.6235875613248834 [Eh]
	 SCS Total Energy          =    -364.6713470325616413 [Eh]
	-----------------------------------------------------------

  Dipole Moment: [D]
     X:    -0.4123      Y:    -3.9426      Z:     0.3730     Total:     3.9816

*** Psi4 exiting successfully. Buy a developer a beer!
