                               Psi4 1.3.2 release

  ==> Input File <==

--------------------------------------------------------------------------
#psi4
#
memory 32 gb

molecule  {
0 1
  O       -0.0101440     2.0708820    -0.1140410
  N        0.2351990    -0.2177110    -0.3583720
  C       -0.4908340    -1.4342940    -0.0290780
  C       -1.9255834    -0.9567240    -0.0583153
  C       -1.8489090     0.4999680     0.4010950
  C       -0.4582930     0.9265630    -0.0509830
  C        1.6617300    -0.1844710    -0.6214880
  C        2.4978900    -0.3314020     0.6460640
  H       -0.2060500    -1.8213230     0.9608810
  H       -0.2853850    -2.2161620    -0.7686800
  H       -2.5951790    -1.5710950     0.5868370
  H       -2.3326610    -1.0086390    -1.0720610
  H       -1.8916900     0.5931740     1.4933710
  H       -2.6106570     1.1621840    -0.0164710
  H        1.8952280    -0.9774960    -1.3410860
  H        1.8622980     0.7788290    -1.0968800
  H        2.2724650     0.4877290     1.3331980
  H        2.2931660    -1.2799200     1.1504100
  H        3.5653110    -0.2984830     0.4074420
units angstrom
no_reorient  #important for SAPT in psi4, default
symmetry c1  #important for SAPT in psi4, default
}

set PROPERTIES_ORIGIN ["COM"]
properties('MP2/aug-cc-pvtz', properties = ['dipole'])
--------------------------------------------------------------------------

    Molecular point group: c1
  Charge       = 0
  Multiplicity = 1
  Basis Set: AUG-CC-PVTZ
    Blend: AUG-CC-PVTZ
  Basis Set: (AUG-CC-PVTZ AUX)
    Blend: AUG-CC-PVTZ-JKFIT

    Orbital Energies [Eh]
    ---------------------

    Doubly Occupied:

       1A    -20.511384     2A    -15.580918     3A    -11.341060
       4A    -11.274170     5A    -11.260838     6A    -11.242873
       7A    -11.239923     8A    -11.218723     9A     -1.366885
      10A     -1.259665    11A     -1.089313    12A     -1.000127
      13A     -0.974477    14A     -0.869539    15A     -0.828354
      16A     -0.726754    17A     -0.693704    18A     -0.669223
      19A     -0.638829    20A     -0.603805    21A     -0.589896
      22A     -0.572464    23A     -0.563793    24A     -0.552019
      25A     -0.520944    26A     -0.514470    27A     -0.511957
      28A     -0.491640    29A     -0.476652    30A     -0.408441
      31A     -0.369750

  @DF-RHF Final Energy:  -363.07499506591228

   => Energetics <=

    Nuclear Repulsion Energy =            394.6969790546989429
    One-Electron Energy =               -1275.6187699794561468
    Two-Electron Energy =                 517.8467958588449847
    Total Energy =                       -363.0749950659122760
  Basis Set: (AUG-CC-PVTZ AUX)
    Blend: AUG-CC-PVTZ-RI
    Molecular point group: c1

    Geometry (in Angstrom), charge = 0, multiplicity = 1:

       Center              X                  Y                   Z               Mass
    ------------   -----------------  -----------------  -----------------  -----------------
         O            0.004486704978     2.016839883333    -0.098609302896    15.994914619570
         N            0.249829704978    -0.271753116667    -0.342940302896    14.003074004430
         C           -0.476203295022    -1.488336116667    -0.013646302896    12.000000000000
         C           -1.910952695022    -1.010766116667    -0.042883602896    12.000000000000
         C           -1.834278295022     0.445925883333     0.416526697104    12.000000000000
         C           -0.443662295022     0.872520883333    -0.035551302896    12.000000000000
         C            1.676360704978    -0.238513116667    -0.606056302896    12.000000000000
         C            2.512520704978    -0.385444116667     0.661495697104    12.000000000000
         H           -0.191419295022    -1.875365116667     0.976312697104     1.007825032230
         H           -0.270754295022    -2.270204116667    -0.753248302896     1.007825032230
         H           -2.580548295022    -1.625137116667     0.602268697104     1.007825032230
         H           -2.318030295022    -1.062681116667    -1.056629302896     1.007825032230
         H           -1.877059295022     0.539131883333     1.508802697104     1.007825032230
         H           -2.596026295022     1.108141883333    -0.001039302896     1.007825032230
         H            1.909858704978    -1.031538116667    -1.325654302896     1.007825032230
         H            1.876928704978     0.724786883333    -1.081448302896     1.007825032230
         H            2.287095704978     0.433686883333     1.348629697104     1.007825032230
         H            2.307796704978    -1.333962116667     1.165841697104     1.007825032230
         H            3.579941704978    -0.352525116667     0.422873697104     1.007825032230

  Basis Set: AUG-CC-PVTZ
    Blend: AUG-CC-PVTZ
  Basis Set: (AUG-CC-PVTZ AUX)
    Blend: AUG-CC-PVTZ-JKFIT
	 Reference Energy          =    -363.0749950659122760 [Eh]
	 Singles Energy            =      -0.0000000000000000 [Eh]
	 Same-Spin Energy          =      -0.3769229850961504 [Eh]
	 Opposite-Spin Energy      =      -1.2470279900999506 [Eh]
	 Correlation Energy        =      -1.6239509751961010 [Eh]
	 Total Energy              =    -364.6989460411083996 [Eh]

	 ================> DF-SCS-MP2 Energies <==================
	-----------------------------------------------------------
	 SCS Same-Spin Scale       =       0.3333333333333333 [-]
	 SCS Opposite-Spin Scale   =       1.2000000000000000 [-]
	 SCS Same-Spin Energy      =      -0.1256409950320501 [Eh]
	 SCS Opposite-Spin Energy  =      -1.4964335881199406 [Eh]
	 SCS Correlation Energy    =      -1.6220745831519907 [Eh]
	 SCS Total Energy          =    -364.6970696490642467 [Eh]
	-----------------------------------------------------------

  Dipole Moment: [D]
     X:    -0.4564      Y:    -3.9399      Z:     0.2464     Total:     3.9739

*** Psi4 exiting successfully. Buy a developer a beer!
