                               Psi4 1.4a3.dev225

  ==> Input File <==

--------------------------------------------------------------------------
#psi4
#
memory 32 gb

molecule  {
0 1
  O       -0.0101440     2.0708820    -0.1140410
  N        0.2351990    -0.2177110    -0.3583720
  C       -0.4908340    -1.4342940    -0.0290780
  C       -1.9502640    -0.9583450    -0.0482810
  C       -1.8489090     0.4999680     0.4010950
  C       -0.4481902     0.9098932    -0.0554610
  C        1.6617300    -0.1844710    -0.6214880
  C        2.4978900    -0.3314020     0.6460640
  H       -0.2060500    -1.8213230     0.9608810
  H       -0.2853850    -2.2161620    -0.7686800
  H       -2.5951790    -1.5710950     0.5868370
  H       -2.3326610    -1.0086390    -1.0720610
  H       -1.8916900     0.5931740     1.4933710
  H       -2.6106570     1.1621840    -0.0164710
  H        1.8952280    -0.9774960    -1.3410860
  H        1.8622980     0.7788290    -1.0968800
  H        2.2724650     0.4877290     1.3331980
  H        2.2931660    -1.2799200     1.1504100
  H        3.5653110    -0.2984830     0.4074420
units angstrom
no_reorient  #important for SAPT in psi4, default
symmetry c1  #important for SAPT in psi4, default
}

set PROPERTIES_ORIGIN ["COM"]
properties('MP2/aug-cc-pvtz', properties = ['dipole'])
--------------------------------------------------------------------------

    Molecular point group: c1
  Charge       = 0
  Multiplicity = 1
  Basis Set: AUG-CC-PVTZ
    Blend: AUG-CC-PVTZ
  Basis Set: (AUG-CC-PVTZ AUX)
    Blend: AUG-CC-PVTZ-JKFIT

    Orbital Energies [Eh]
    ---------------------

    Doubly Occupied:

       1A    -20.507493     2A    -15.584497     3A    -11.339989
       4A    -11.276643     5A    -11.262672     6A    -11.242546
       7A    -11.239535     8A    -11.219941     9A     -1.360765
      10A     -1.261496    11A     -1.088764    12A     -1.003019
      13A     -0.972965    14A     -0.872422    15A     -0.831467
      16A     -0.727149    17A     -0.695235    18A     -0.667816
      19A     -0.638925    20A     -0.605877    21A     -0.589287
      22A     -0.570904    23A     -0.563593    24A     -0.551512
      25A     -0.523501    26A     -0.514053    27A     -0.510059
      28A     -0.491353    29A     -0.475767    30A     -0.406781
      31A     -0.371326

  @DF-RHF Final Energy:  -363.07512364839221

   => Energetics <=

    Nuclear Repulsion Energy =            394.4640943948102176
    One-Electron Energy =               -1275.1437337848153675
    Two-Electron Energy =                 517.6045157416129996
    Total Energy =                       -363.0751236483921502
  Basis Set: (AUG-CC-PVTZ AUX)
    Blend: AUG-CC-PVTZ-RI
    Molecular point group: c1

    Geometry (in Angstrom), charge = 0, multiplicity = 1:

       Center              X                  Y                   Z               Mass
    ------------   -----------------  -----------------  -----------------  -----------------
         O            0.006033639125     2.018780825251    -0.099198913824    15.994914619570
         N            0.251376639125    -0.269812174749    -0.343529913824    14.003074004430
         C           -0.474656360875    -1.486395174749    -0.014235913824    12.000000000000
         C           -1.934086360875    -1.010446174749    -0.033438913824    12.000000000000
         C           -1.832731360875     0.447866825251     0.415937086176    12.000000000000
         C           -0.432012560875     0.857792025251    -0.040618913824    12.000000000000
         C            1.677907639125    -0.236572174749    -0.606645913824    12.000000000000
         C            2.514067639125    -0.383503174749     0.660906086176    12.000000000000
         H           -0.189872360875    -1.873424174749     0.975723086176     1.007825032230
         H           -0.269207360875    -2.268263174749    -0.753837913824     1.007825032230
         H           -2.579001360875    -1.623196174749     0.601679086176     1.007825032230
         H           -2.316483360875    -1.060740174749    -1.057218913824     1.007825032230
         H           -1.875512360875     0.541072825251     1.508213086176     1.007825032230
         H           -2.594479360875     1.110082825251    -0.001628913824     1.007825032230
         H            1.911405639125    -1.029597174749    -1.326243913824     1.007825032230
         H            1.878475639125     0.726727825251    -1.082037913824     1.007825032230
         H            2.288642639125     0.435627825251     1.348040086176     1.007825032230
         H            2.309343639125    -1.332021174749     1.165252086176     1.007825032230
         H            3.581488639125    -0.350584174749     0.422284086176     1.007825032230

  Basis Set: AUG-CC-PVTZ
    Blend: AUG-CC-PVTZ
  Basis Set: (AUG-CC-PVTZ AUX)
    Blend: AUG-CC-PVTZ-JKFIT
	 Reference Energy          =    -363.0751236483922071 [Eh]
	 Singles Energy            =      -0.0000000000000000 [Eh]
	 Same-Spin Energy          =      -0.3768940001079206 [Eh]
	 Opposite-Spin Energy      =      -1.2471577222657844 [Eh]
	 Correlation Energy        =      -1.6240517223737050 [Eh]
	 Total Energy              =    -364.6991753707658859 [Eh]

	 ================> DF-SCS-MP2 Energies <==================
	-----------------------------------------------------------
	 SCS Same-Spin Scale       =       0.3333333333333333 [-]
	 SCS Opposite-Spin Scale   =       1.2000000000000000 [-]
	 SCS Same-Spin Energy      =      -0.1256313333693069 [Eh]
	 SCS Opposite-Spin Energy  =      -1.4965892667189411 [Eh]
	 SCS Correlation Energy    =      -1.6222206000882480 [Eh]
	 SCS Total Energy          =    -364.6973442484804764 [Eh]
	-----------------------------------------------------------

  Dipole Moment: [D]
     X:    -0.3958      Y:    -4.1057      Z:     0.2336     Total:     4.1313

*** Psi4 exiting successfully. Buy a developer a beer!
