                               Psi4 1.3.2 release

  ==> Input File <==

--------------------------------------------------------------------------
#psi4
#
memory 32 gb

molecule  {
0 1
  O       -0.0101440     2.0708820    -0.1140410
  N        0.2351990    -0.2177110    -0.3583720
  C       -0.4908340    -1.4342940    -0.0290780
  C       -1.9928415    -0.9453332    -0.0777331
  C       -1.8489090     0.4999680     0.4010950
  C       -0.4582930     0.9265630    -0.0509830
  C        1.6617300    -0.1844710    -0.6214880
  C        2.4978900    -0.3314020     0.6460640
  H       -0.2060500    -1.8213230     0.9608810
  H       -0.2853850    -2.2161620    -0.7686800
  H       -2.5951790    -1.5710950     0.5868370
  H       -2.3326610    -1.0086390    -1.0720610
  H       -1.8916900     0.5931740     1.4933710
  H       -2.6106570     1.1621840    -0.0164710
  H        1.8952280    -0.9774960    -1.3410860
  H        1.8622980     0.7788290    -1.0968800
  H        2.2724650     0.4877290     1.3331980
  H        2.2931660    -1.2799200     1.1504100
  H        3.5653110    -0.2984830     0.4074420
units angstrom
no_reorient  #important for SAPT in psi4, default
symmetry c1  #important for SAPT in psi4, default
}

set PROPERTIES_ORIGIN ["COM"]
properties('MP2/aug-cc-pvtz', properties = ['dipole'])
--------------------------------------------------------------------------

    Molecular point group: c1
  Charge       = 0
  Multiplicity = 1
  Basis Set: AUG-CC-PVTZ
    Blend: AUG-CC-PVTZ
  Basis Set: (AUG-CC-PVTZ AUX)
    Blend: AUG-CC-PVTZ-JKFIT

    Orbital Energies [Eh]
    ---------------------

    Doubly Occupied:

       1A    -20.511729     2A    -15.580593     3A    -11.341311
       4A    -11.276044     5A    -11.260722     6A    -11.241714
       7A    -11.240035     8A    -11.218526     9A     -1.366658
      10A     -1.256645    11A     -1.085425    12A     -1.000916
      13A     -0.967593    14A     -0.871459    15A     -0.832324
      16A     -0.725059    17A     -0.692851    18A     -0.666207
      19A     -0.639309    20A     -0.606384    21A     -0.589906
      22A     -0.572643    23A     -0.564608    24A     -0.552840
      25A     -0.526711    26A     -0.514071    27A     -0.503949
      28A     -0.483109    29A     -0.481887    30A     -0.409862
      31A     -0.369026

  @DF-RHF Final Energy:  -363.07330792686531

   => Energetics <=

    Nuclear Repulsion Energy =            393.6743858440933650
    One-Electron Energy =               -1273.5951479910504531
    Two-Electron Energy =                 516.8474542200916630
    Total Energy =                       -363.0733079268653682
  Basis Set: (AUG-CC-PVTZ AUX)
    Blend: AUG-CC-PVTZ-RI
    Molecular point group: c1

    Geometry (in Angstrom), charge = 0, multiplicity = 1:

       Center              X                  Y                   Z               Mass
    ------------   -----------------  -----------------  -----------------  -----------------
         O            0.011623848547     2.015631140074    -0.096548768530    15.994914619570
         N            0.256966848547    -0.272961859926    -0.340879768530    14.003074004430
         C           -0.469066151453    -1.489544859926    -0.011585768530    12.000000000000
         C           -1.971073651453    -1.000584059926    -0.060240868530    12.000000000000
         C           -1.827141151453     0.444717140074     0.418587231470    12.000000000000
         C           -0.436525151453     0.871312140074    -0.033490768530    12.000000000000
         C            1.683497848547    -0.239721859926    -0.603995768530    12.000000000000
         C            2.519657848547    -0.386652859926     0.663556231470    12.000000000000
         H           -0.184282151453    -1.876573859926     0.978373231470     1.007825032230
         H           -0.263617151453    -2.271412859926    -0.751187768530     1.007825032230
         H           -2.573411151453    -1.626345859926     0.604329231470     1.007825032230
         H           -2.310893151453    -1.063889859926    -1.054568768530     1.007825032230
         H           -1.869922151453     0.537923140074     1.510863231470     1.007825032230
         H           -2.588889151453     1.106933140074     0.001021231470     1.007825032230
         H            1.916995848547    -1.032746859926    -1.323593768530     1.007825032230
         H            1.884065848547     0.723578140074    -1.079387768530     1.007825032230
         H            2.294232848547     0.432478140074     1.350690231470     1.007825032230
         H            2.314933848547    -1.335170859926     1.167902231470     1.007825032230
         H            3.587078848547    -0.353733859926     0.424934231470     1.007825032230

  Basis Set: AUG-CC-PVTZ
    Blend: AUG-CC-PVTZ
  Basis Set: (AUG-CC-PVTZ AUX)
    Blend: AUG-CC-PVTZ-JKFIT
	 Reference Energy          =    -363.0733079268653114 [Eh]
	 Singles Energy            =      -0.0000000000000000 [Eh]
	 Same-Spin Energy          =      -0.3766949156963052 [Eh]
	 Opposite-Spin Energy      =      -1.2470185009153558 [Eh]
	 Correlation Energy        =      -1.6237134166116611 [Eh]
	 Total Energy              =    -364.6970213434769903 [Eh]

	 ================> DF-SCS-MP2 Energies <==================
	-----------------------------------------------------------
	 SCS Same-Spin Scale       =       0.3333333333333333 [-]
	 SCS Opposite-Spin Scale   =       1.2000000000000000 [-]
	 SCS Same-Spin Energy      =      -0.1255649718987684 [Eh]
	 SCS Opposite-Spin Energy  =      -1.4964222010984269 [Eh]
	 SCS Correlation Energy    =      -1.6219871729971953 [Eh]
	 SCS Total Energy          =    -364.6952950998625056 [Eh]
	-----------------------------------------------------------

  Dipole Moment: [D]
     X:    -0.4670      Y:    -3.9450      Z:     0.2365     Total:     3.9796

*** Psi4 exiting successfully. Buy a developer a beer!
