                               Psi4 1.3.2 release

  ==> Input File <==

--------------------------------------------------------------------------
#psi4
#
memory 32 gb

molecule  {
0 1
  O       -0.0101440     2.0708820    -0.1140410
  N        0.2351990    -0.2177110    -0.3583720
  C       -0.4908340    -1.4342940    -0.0290780
  C       -1.9502640    -0.9583450    -0.0482810
  C       -1.9478554     0.4611715     0.5208021
  C       -0.4582930     0.9265630    -0.0509830
  C        1.6617300    -0.1844710    -0.6214880
  C        2.4978900    -0.3314020     0.6460640
  H       -0.2060500    -1.8213230     0.9608810
  H       -0.2853850    -2.2161620    -0.7686800
  H       -2.5951790    -1.5710950     0.5868370
  H       -2.3326610    -1.0086390    -1.0720610
  H       -1.8916900     0.5931740     1.4933710
  H       -2.6106570     1.1621840    -0.0164710
  H        1.8952280    -0.9774960    -1.3410860
  H        1.8622980     0.7788290    -1.0968800
  H        2.2724650     0.4877290     1.3331980
  H        2.2931660    -1.2799200     1.1504100
  H        3.5653110    -0.2984830     0.4074420
units angstrom
no_reorient  #important for SAPT in psi4, default
symmetry c1  #important for SAPT in psi4, default
}

set PROPERTIES_ORIGIN ["COM"]
properties('MP2/aug-cc-pvtz', properties = ['dipole'])
--------------------------------------------------------------------------

    Molecular point group: c1
  Charge       = 0
  Multiplicity = 1
  Basis Set: AUG-CC-PVTZ
    Blend: AUG-CC-PVTZ
  Basis Set: (AUG-CC-PVTZ AUX)
    Blend: AUG-CC-PVTZ-JKFIT

    Orbital Energies [Eh]
    ---------------------

    Doubly Occupied:

       1A    -20.513831     2A    -15.581417     3A    -11.344656
       4A    -11.275259     5A    -11.261638     6A    -11.243123
       7A    -11.239214     8A    -11.219085     9A     -1.364600
      10A     -1.255900    11A     -1.083464    12A     -1.002700
      13A     -0.964134    14A     -0.868925    15A     -0.833486
      16A     -0.721163    17A     -0.695010    18A     -0.664121
      19A     -0.637720    20A     -0.616184    21A     -0.594638
      22A     -0.573501    23A     -0.558828    24A     -0.539290
      25A     -0.522122    26A     -0.515517    27A     -0.512813
      28A     -0.492040    29A     -0.489081    30A     -0.393226
      31A     -0.367920

  @DF-RHF Final Energy:  -363.05176733715467

   => Energetics <=

    Nuclear Repulsion Energy =            392.1152323541473947
    One-Electron Energy =               -1270.4447897965549146
    Two-Electron Energy =                 515.2777901052529614
    Total Energy =                       -363.0517673371546152
  Basis Set: (AUG-CC-PVTZ AUX)
    Blend: AUG-CC-PVTZ-RI
    Molecular point group: c1

    Geometry (in Angstrom), charge = 0, multiplicity = 1:

       Center              X                  Y                   Z               Mass
    ------------   -----------------  -----------------  -----------------  -----------------
         O            0.017605476517     2.021128816565    -0.112376908562    15.994914619570
         N            0.262948476517    -0.267464183435    -0.356707908562    14.003074004430
         C           -0.463084523483    -1.484047183435    -0.027413908562    12.000000000000
         C           -1.922514523483    -1.008098183435    -0.046616908562    12.000000000000
         C           -1.920105923483     0.411418316565     0.522466191438    12.000000000000
         C           -0.430543523483     0.876809816565    -0.049318908562    12.000000000000
         C            1.689479476517    -0.234224183435    -0.619823908562    12.000000000000
         C            2.525639476517    -0.381155183435     0.647728091438    12.000000000000
         H           -0.178300523483    -1.871076183435     0.962545091438     1.007825032230
         H           -0.257635523483    -2.265915183435    -0.767015908562     1.007825032230
         H           -2.567429523483    -1.620848183435     0.588501091438     1.007825032230
         H           -2.304911523483    -1.058392183435    -1.070396908562     1.007825032230
         H           -1.863940523483     0.543420816565     1.495035091438     1.007825032230
         H           -2.582907523483     1.112430816565    -0.014806908562     1.007825032230
         H            1.922977476517    -1.027249183435    -1.339421908562     1.007825032230
         H            1.890047476517     0.729075816565    -1.095215908562     1.007825032230
         H            2.300214476517     0.437975816565     1.334862091438     1.007825032230
         H            2.320915476517    -1.329673183435     1.152074091438     1.007825032230
         H            3.593060476517    -0.348236183435     0.409106091438     1.007825032230

  Basis Set: AUG-CC-PVTZ
    Blend: AUG-CC-PVTZ
  Basis Set: (AUG-CC-PVTZ AUX)
    Blend: AUG-CC-PVTZ-JKFIT
	 Reference Energy          =    -363.0517673371546721 [Eh]
	 Singles Energy            =      -0.0000000000000000 [Eh]
	 Same-Spin Energy          =      -0.3771771523178528 [Eh]
	 Opposite-Spin Energy      =      -1.2484707709491969 [Eh]
	 Correlation Energy        =      -1.6256479232670498 [Eh]
	 Total Energy              =    -364.6774152604216965 [Eh]

	 ================> DF-SCS-MP2 Energies <==================
	-----------------------------------------------------------
	 SCS Same-Spin Scale       =       0.3333333333333333 [-]
	 SCS Opposite-Spin Scale   =       1.2000000000000000 [-]
	 SCS Same-Spin Energy      =      -0.1257257174392842 [Eh]
	 SCS Opposite-Spin Energy  =      -1.4981649251390363 [Eh]
	 SCS Correlation Energy    =      -1.6238906425783206 [Eh]
	 SCS Total Energy          =    -364.6756579797329891 [Eh]
	-----------------------------------------------------------

  Dipole Moment: [D]
     X:    -0.2523      Y:    -3.8739      Z:     0.2308     Total:     3.8890

*** Psi4 exiting successfully. Buy a developer a beer!
