                               Psi4 1.3.2 release

  ==> Input File <==

--------------------------------------------------------------------------
#psi4
#
memory 32 gb

molecule  {
0 1
  O       -0.0101440     2.0708820    -0.1140410
  N        0.1587944    -0.2172845    -0.4900590
  C       -0.4908340    -1.4342940    -0.0290780
  C       -1.9502640    -0.9583450    -0.0482810
  C       -1.8489090     0.4999680     0.4010950
  C       -0.4582930     0.9265630    -0.0509830
  C        1.6617300    -0.1844710    -0.6214880
  C        2.4978900    -0.3314020     0.6460640
  H       -0.2060500    -1.8213230     0.9608810
  H       -0.2853850    -2.2161620    -0.7686800
  H       -2.5951790    -1.5710950     0.5868370
  H       -2.3326610    -1.0086390    -1.0720610
  H       -1.8916900     0.5931740     1.4933710
  H       -2.6106570     1.1621840    -0.0164710
  H        1.8952280    -0.9774960    -1.3410860
  H        1.8622980     0.7788290    -1.0968800
  H        2.2724650     0.4877290     1.3331980
  H        2.2931660    -1.2799200     1.1504100
  H        3.5653110    -0.2984830     0.4074420
units angstrom
no_reorient  #important for SAPT in psi4, default
symmetry c1  #important for SAPT in psi4, default
}

set PROPERTIES_ORIGIN ["COM"]
properties('MP2/aug-cc-pvtz', properties = ['dipole'])
--------------------------------------------------------------------------

    Molecular point group: c1
  Charge       = 0
  Multiplicity = 1
  Basis Set: AUG-CC-PVTZ
    Blend: AUG-CC-PVTZ
  Basis Set: (AUG-CC-PVTZ AUX)
    Blend: AUG-CC-PVTZ-JKFIT

    Orbital Energies [Eh]
    ---------------------

    Doubly Occupied:

       1A    -20.516476     2A    -15.583950     3A    -11.341850
       4A    -11.273023     5A    -11.263697     6A    -11.239742
       7A    -11.238153     8A    -11.223686     9A     -1.368588
      10A     -1.255952    11A     -1.080094    12A     -1.002746
      13A     -0.972477    14A     -0.865644    15A     -0.827452
      16A     -0.723799    17A     -0.692059    18A     -0.665804
      19A     -0.636882    20A     -0.602264    21A     -0.595049
      22A     -0.568686    23A     -0.561338    24A     -0.553368
      25A     -0.527469    26A     -0.509152    27A     -0.501637
      28A     -0.486443    29A     -0.478249    30A     -0.412612
      31A     -0.379536

  @DF-RHF Final Energy:  -363.06756492576477

   => Energetics <=

    Nuclear Repulsion Energy =            393.3800850030352194
    One-Electron Energy =               -1272.9995423088764710
    Two-Electron Energy =                 516.5518923800764242
    Total Energy =                       -363.0675649257648274
  Basis Set: (AUG-CC-PVTZ AUX)
    Blend: AUG-CC-PVTZ-RI
    Molecular point group: c1

    Geometry (in Angstrom), charge = 0, multiplicity = 1:

       Center              X                  Y                   Z               Mass
    ------------   -----------------  -----------------  -----------------  -----------------
         O            0.016566802032     2.016959083939    -0.083367445239    15.994914619570
         N            0.185505202032    -0.271207416061    -0.459385445239    14.003074004430
         C           -0.464123197968    -1.488216916061     0.001595554761    12.000000000000
         C           -1.923553197968    -1.012267916061    -0.017607445239    12.000000000000
         C           -1.822198197968     0.446045083939     0.431768554761    12.000000000000
         C           -0.431582197968     0.872640083939    -0.020309445239    12.000000000000
         C            1.688440802032    -0.238393916061    -0.590814445239    12.000000000000
         C            2.524600802032    -0.385324916061     0.676737554761    12.000000000000
         H           -0.179339197968    -1.875245916061     0.991554554761     1.007825032230
         H           -0.258674197968    -2.270084916061    -0.738006445239     1.007825032230
         H           -2.568468197968    -1.625017916061     0.617510554761     1.007825032230
         H           -2.305950197968    -1.062561916061    -1.041387445239     1.007825032230
         H           -1.864979197968     0.539251083939     1.524044554761     1.007825032230
         H           -2.583946197968     1.108261083939     0.014202554761     1.007825032230
         H            1.921938802032    -1.031418916061    -1.310412445239     1.007825032230
         H            1.889008802032     0.724906083939    -1.066206445239     1.007825032230
         H            2.299175802032     0.433806083939     1.363871554761     1.007825032230
         H            2.319876802032    -1.333842916061     1.181083554761     1.007825032230
         H            3.592021802032    -0.352405916061     0.438115554761     1.007825032230

  Basis Set: AUG-CC-PVTZ
    Blend: AUG-CC-PVTZ
  Basis Set: (AUG-CC-PVTZ AUX)
    Blend: AUG-CC-PVTZ-JKFIT
	 Reference Energy          =    -363.0675649257647706 [Eh]
	 Singles Energy            =      -0.0000000000000000 [Eh]
	 Same-Spin Energy          =      -0.3768605064591817 [Eh]
	 Opposite-Spin Energy      =      -1.2478764899327044 [Eh]
	 Correlation Energy        =      -1.6247369963918861 [Eh]
	 Total Energy              =    -364.6923019221566733 [Eh]

	 ================> DF-SCS-MP2 Energies <==================
	-----------------------------------------------------------
	 SCS Same-Spin Scale       =       0.3333333333333333 [-]
	 SCS Opposite-Spin Scale   =       1.2000000000000000 [-]
	 SCS Same-Spin Energy      =      -0.1256201688197272 [Eh]
	 SCS Opposite-Spin Energy  =      -1.4974517879192453 [Eh]
	 SCS Correlation Energy    =      -1.6230719567389724 [Eh]
	 SCS Total Energy          =    -364.6906368825037248 [Eh]
	-----------------------------------------------------------

  Dipole Moment: [D]
     X:    -0.2926      Y:    -3.8075      Z:     0.4798     Total:     3.8487

*** Psi4 exiting successfully. Buy a developer a beer!
