                               Psi4 1.3.2 release

  ==> Input File <==

--------------------------------------------------------------------------
#psi4
#
memory 32 gb

molecule  {
0 1
  O       -0.0101440     2.0708820    -0.1140410
  N        0.2351990    -0.2177110    -0.3583720
  C       -0.4908340    -1.4342940    -0.0290780
  C       -1.9502640    -0.9583450    -0.0482810
  C       -1.8489090     0.4999680     0.4010950
  C       -0.4804340     0.9663789    -0.0783917
  C        1.6617300    -0.1844710    -0.6214880
  C        2.4978900    -0.3314020     0.6460640
  H       -0.2060500    -1.8213230     0.9608810
  H       -0.2853850    -2.2161620    -0.7686800
  H       -2.5951790    -1.5710950     0.5868370
  H       -2.3326610    -1.0086390    -1.0720610
  H       -1.8916900     0.5931740     1.4933710
  H       -2.6106570     1.1621840    -0.0164710
  H        1.8952280    -0.9774960    -1.3410860
  H        1.8622980     0.7788290    -1.0968800
  H        2.2724650     0.4877290     1.3331980
  H        2.2931660    -1.2799200     1.1504100
  H        3.5653110    -0.2984830     0.4074420
units angstrom
no_reorient  #important for SAPT in psi4, default
symmetry c1  #important for SAPT in psi4, default
}

set PROPERTIES_ORIGIN ["COM"]
properties('MP2/aug-cc-pvtz', properties = ['dipole'])
--------------------------------------------------------------------------

    Molecular point group: c1
  Charge       = 0
  Multiplicity = 1
  Basis Set: AUG-CC-PVTZ
    Blend: AUG-CC-PVTZ
  Basis Set: (AUG-CC-PVTZ AUX)
    Blend: AUG-CC-PVTZ-JKFIT

    Orbital Energies [Eh]
    ---------------------

    Doubly Occupied:

       1A    -20.520700     2A    -15.573287     3A    -11.343545
       4A    -11.271440     5A    -11.257339     6A    -11.241725
       7A    -11.240575     8A    -11.216011     9A     -1.386474
      10A     -1.250796    11A     -1.084951    12A     -0.995892
      13A     -0.968668    14A     -0.865589    15A     -0.824444
      16A     -0.724840    17A     -0.689847    18A     -0.668783
      19A     -0.640350    20A     -0.603802    21A     -0.588738
      22A     -0.577167    23A     -0.565309    24A     -0.555778
      25A     -0.522563    26A     -0.510831    27A     -0.507949
      28A     -0.488468    29A     -0.481546    30A     -0.412416
      31A     -0.364950

  @DF-RHF Final Energy:  -363.07429757117427

   => Energetics <=

    Nuclear Repulsion Energy =            393.9202765549541141
    One-Electron Energy =               -1274.0995953593335344
    Two-Electron Energy =                 517.1050212332050933
    Total Energy =                       -363.0742975711742702
  Basis Set: (AUG-CC-PVTZ AUX)
    Blend: AUG-CC-PVTZ-RI
    Molecular point group: c1

    Geometry (in Angstrom), charge = 0, multiplicity = 1:

       Center              X                  Y                   Z               Mass
    ------------   -----------------  -----------------  -----------------  -----------------
         O            0.009455214070     2.012786802962    -0.096765605449    15.994914619570
         N            0.254798214070    -0.275806197038    -0.341096605449    14.003074004430
         C           -0.471234785930    -1.492389197038    -0.011802605449    12.000000000000
         C           -1.930664785930    -1.016440197038    -0.031005605449    12.000000000000
         C           -1.829309785930     0.441872802962     0.418370394551    12.000000000000
         C           -0.460834785930     0.908283702962    -0.061116305449    12.000000000000
         C            1.681329214070    -0.242566197038    -0.604212605449    12.000000000000
         C            2.517489214070    -0.389497197038     0.663339394551    12.000000000000
         H           -0.186450785930    -1.879418197038     0.978156394551     1.007825032230
         H           -0.265785785930    -2.274257197038    -0.751404605449     1.007825032230
         H           -2.575579785930    -1.629190197038     0.604112394551     1.007825032230
         H           -2.313061785930    -1.066734197038    -1.054785605449     1.007825032230
         H           -1.872090785930     0.535078802962     1.510646394551     1.007825032230
         H           -2.591057785930     1.104088802962     0.000804394551     1.007825032230
         H            1.914827214070    -1.035591197038    -1.323810605449     1.007825032230
         H            1.881897214070     0.720733802962    -1.079604605449     1.007825032230
         H            2.292064214070     0.429633802962     1.350473394551     1.007825032230
         H            2.312765214070    -1.338015197038     1.167685394551     1.007825032230
         H            3.584910214070    -0.356578197038     0.424717394551     1.007825032230

  Basis Set: AUG-CC-PVTZ
    Blend: AUG-CC-PVTZ
  Basis Set: (AUG-CC-PVTZ AUX)
    Blend: AUG-CC-PVTZ-JKFIT
	 Reference Energy          =    -363.0742975711742702 [Eh]
	 Singles Energy            =      -0.0000000000000000 [Eh]
	 Same-Spin Energy          =      -0.3764665729348193 [Eh]
	 Opposite-Spin Energy      =      -1.2462950863047830 [Eh]
	 Correlation Energy        =      -1.6227616592396024 [Eh]
	 Total Energy              =    -364.6970592304138563 [Eh]

	 ================> DF-SCS-MP2 Energies <==================
	-----------------------------------------------------------
	 SCS Same-Spin Scale       =       0.3333333333333333 [-]
	 SCS Opposite-Spin Scale   =       1.2000000000000000 [-]
	 SCS Same-Spin Energy      =      -0.1254888576449398 [Eh]
	 SCS Opposite-Spin Energy  =      -1.4955541035657396 [Eh]
	 SCS Correlation Energy    =      -1.6210429612106794 [Eh]
	 SCS Total Energy          =    -364.6953405323849324 [Eh]
	-----------------------------------------------------------

  Dipole Moment: [D]
     X:    -0.5731      Y:    -3.5876      Z:     0.2670     Total:     3.6429

*** Psi4 exiting successfully. Buy a developer a beer!
