                               Psi4 1.3.2 release

  ==> Input File <==

--------------------------------------------------------------------------
#psi4
#
memory 32 gb

molecule  {
0 1
  O       -0.0101440     2.0708820    -0.1140410
  N        0.2351990    -0.2177110    -0.3583720
  C       -0.4908340    -1.4342940    -0.0290780
  C       -1.9502640    -0.9583450    -0.0482810
  C       -1.8489090     0.4999680     0.4010950
  C       -0.4582930     0.9265630    -0.0509830
  C        1.6617300    -0.1844710    -0.6214880
  C        2.4978900    -0.3314020     0.6460640
  H       -0.2060500    -1.8213230     0.9608810
  H       -0.2853850    -2.2161620    -0.7686800
  H       -2.5951790    -1.5710950     0.5868370
  H       -2.3326610    -1.0086390    -1.0720610
  H       -1.8916900     0.5931740     1.4933710
  H       -2.6106570     1.1621840    -0.0164710
  H        1.8952280    -0.9774960    -1.3410860
  H        1.8622980     0.7788290    -1.0968800
  H        2.2724650     0.4877290     1.3331980
  H        2.2931660    -1.2799200     1.1504100
  H        3.5653110    -0.2984830     0.4074420
units angstrom
no_reorient  #important for SAPT in psi4, default
symmetry c1  #important for SAPT in psi4, default
}

set PROPERTIES_ORIGIN ["COM"]
properties('MP2/aug-cc-pvtz', properties = ['dipole'])
--------------------------------------------------------------------------

    Molecular point group: c1
  Charge       = 0
  Multiplicity = 1
  Basis Set: AUG-CC-PVTZ
    Blend: AUG-CC-PVTZ
  Basis Set: (AUG-CC-PVTZ AUX)
    Blend: AUG-CC-PVTZ-JKFIT

    Orbital Energies [Eh]
    ---------------------

    Doubly Occupied:

       1A    -20.511604     2A    -15.580961     3A    -11.341349
       4A    -11.274892     5A    -11.260911     6A    -11.242443
       7A    -11.239959     8A    -11.218654     9A     -1.366860
      10A     -1.258489    11A     -1.087860    12A     -1.000502
      13A     -0.972066    14A     -0.870243    15A     -0.829456
      16A     -0.726377    17A     -0.693270    18A     -0.667710
      19A     -0.639417    20A     -0.604597    21A     -0.589337
      22A     -0.572216    23A     -0.563201    24A     -0.554630
      25A     -0.522930    26A     -0.513109    27A     -0.509572
      28A     -0.490130    29A     -0.477454    30A     -0.409388
      31A     -0.369509

  @DF-RHF Final Energy:  -363.07595770192796

   => Energetics <=

    Nuclear Repulsion Energy =            394.2871132468664541
    One-Electron Energy =               -1274.8079444894449352
    Two-Electron Energy =                 517.4448735406505193
    Total Energy =                       -363.0759577019279050
  Basis Set: (AUG-CC-PVTZ AUX)
    Blend: AUG-CC-PVTZ-RI
    Molecular point group: c1

    Geometry (in Angstrom), charge = 0, multiplicity = 1:

       Center              X                  Y                   Z               Mass
    ------------   -----------------  -----------------  -----------------  -----------------
         O            0.007105705300     2.017011896960    -0.099674100142    15.994914619570
         N            0.252448705300    -0.271581103040    -0.344005100142    14.003074004430
         C           -0.473584294700    -1.488164103040    -0.014711100142    12.000000000000
         C           -1.933014294700    -1.012215103040    -0.033914100142    12.000000000000
         C           -1.831659294700     0.446097896960     0.415461899858    12.000000000000
         C           -0.441043294700     0.872692896960    -0.036616100142    12.000000000000
         C            1.678979705300    -0.238341103040    -0.607121100142    12.000000000000
         C            2.515139705300    -0.385272103040     0.660430899858    12.000000000000
         H           -0.188800294700    -1.875193103040     0.975247899858     1.007825032230
         H           -0.268135294700    -2.270032103040    -0.754313100142     1.007825032230
         H           -2.577929294700    -1.624965103040     0.601203899858     1.007825032230
         H           -2.315411294700    -1.062509103040    -1.057694100142     1.007825032230
         H           -1.874440294700     0.539303896960     1.507737899858     1.007825032230
         H           -2.593407294700     1.108313896960    -0.002104100142     1.007825032230
         H            1.912477705300    -1.031366103040    -1.326719100142     1.007825032230
         H            1.879547705300     0.724958896960    -1.082513100142     1.007825032230
         H            2.289714705300     0.433858896960     1.347564899858     1.007825032230
         H            2.310415705300    -1.333790103040     1.164776899858     1.007825032230
         H            3.582560705300    -0.352353103040     0.421808899858     1.007825032230

  Basis Set: AUG-CC-PVTZ
    Blend: AUG-CC-PVTZ
  Basis Set: (AUG-CC-PVTZ AUX)
    Blend: AUG-CC-PVTZ-JKFIT
	 Reference Energy          =    -363.0759577019279618 [Eh]
	 Singles Energy            =      -0.0000000000000000 [Eh]
	 Same-Spin Energy          =      -0.3767847486587363 [Eh]
	 Opposite-Spin Energy      =      -1.2469213463188005 [Eh]
	 Correlation Energy        =      -1.6237060949775368 [Eh]
	 Total Energy              =    -364.6996637969054973 [Eh]

	 ================> DF-SCS-MP2 Energies <==================
	-----------------------------------------------------------
	 SCS Same-Spin Scale       =       0.3333333333333333 [-]
	 SCS Opposite-Spin Scale   =       1.2000000000000000 [-]
	 SCS Same-Spin Energy      =      -0.1255949162195788 [Eh]
	 SCS Opposite-Spin Energy  =      -1.4963056155825605 [Eh]
	 SCS Correlation Energy    =      -1.6219005318021393 [Eh]
	 SCS Total Energy          =    -364.6978582337300736 [Eh]
	-----------------------------------------------------------

  Dipole Moment: [D]
     X:    -0.4630      Y:    -3.9466      Z:     0.2535     Total:     3.9817

*** Psi4 exiting successfully. Buy a developer a beer!
