                               Psi4 1.4a3.dev225

  ==> Input File <==

--------------------------------------------------------------------------
#psi4
#
memory 32 gb

molecule  {
0 1
  O       -0.0101440     2.0708820    -0.1140410
  N        0.2351990    -0.2177110    -0.3583720
  C       -0.4908340    -1.4342940    -0.0290780
  C       -1.9502640    -0.9583450    -0.0482810
  C       -1.8489090     0.4999680     0.4010950
  C       -0.4582930     0.9265630    -0.0509830
  C        1.6617300    -0.1844710    -0.6214880
  C        2.4978900    -0.3314020     0.6460640
  H       -0.2060500    -1.8213230     0.9608810
  H       -0.2853850    -2.2161620    -0.7686800
  H       -2.5833787    -1.5598832     0.5752159
  H       -2.3326610    -1.0086390    -1.0720610
  H       -1.8916900     0.5931740     1.4933710
  H       -2.6106570     1.1621840    -0.0164710
  H        1.8952280    -0.9774960    -1.3410860
  H        1.8622980     0.7788290    -1.0968800
  H        2.2724650     0.4877290     1.3331980
  H        2.2931660    -1.2799200     1.1504100
  H        3.5653110    -0.2984830     0.4074420
units angstrom
no_reorient  #important for SAPT in psi4, default
symmetry c1  #important for SAPT in psi4, default
}

set PROPERTIES_ORIGIN ["COM"]
properties('MP2/aug-cc-pvtz', properties = ['dipole'])
--------------------------------------------------------------------------

    Molecular point group: c1
  Charge       = 0
  Multiplicity = 1
  Basis Set: AUG-CC-PVTZ
    Blend: AUG-CC-PVTZ
  Basis Set: (AUG-CC-PVTZ AUX)
    Blend: AUG-CC-PVTZ-JKFIT

    Orbital Energies [Eh]
    ---------------------

    Doubly Occupied:

       1A    -20.511470     2A    -15.580808     3A    -11.341194
       4A    -11.274721     5A    -11.260803     6A    -11.240206
       7A    -11.239576     8A    -11.218583     9A     -1.366725
      10A     -1.258348    11A     -1.088184    12A     -1.000739
      13A     -0.972139    14A     -0.870692    15A     -0.830492
      16A     -0.726350    17A     -0.693788    18A     -0.667583
      19A     -0.639752    20A     -0.604903    21A     -0.589287
      22A     -0.572169    23A     -0.563145    24A     -0.556067
      25A     -0.523568    26A     -0.513032    27A     -0.509427
      28A     -0.490095    29A     -0.477568    30A     -0.409375
      31A     -0.369385

  @DF-RHF Final Energy:  -363.07602478966248

   => Energetics <=

    Nuclear Repulsion Energy =            394.3882451210747604
    One-Electron Energy =               -1275.0081869621399164
    Two-Electron Energy =                 517.5439170514026728
    Total Energy =                       -363.0760247896624833
  Basis Set: (AUG-CC-PVTZ AUX)
    Blend: AUG-CC-PVTZ-RI
    Molecular point group: c1

    Geometry (in Angstrom), charge = 0, multiplicity = 1:

       Center              X                  Y                   Z               Mass
    ------------   -----------------  -----------------  -----------------  -----------------
         O            0.007000538955     2.016911975430    -0.099570530859    15.994914619570
         N            0.252343538955    -0.271681024570    -0.343901530859    14.003074004430
         C           -0.473689461045    -1.488264024570    -0.014607530859    12.000000000000
         C           -1.933119461045    -1.012315024570    -0.033810530859    12.000000000000
         C           -1.831764461045     0.445997975430     0.415565469141    12.000000000000
         C           -0.441148461045     0.872592975430    -0.036512530859    12.000000000000
         C            1.678874538955    -0.238441024570    -0.607017530859    12.000000000000
         C            2.515034538955    -0.385372024570     0.660534469141    12.000000000000
         H           -0.188905461045    -1.875293024570     0.975351469141     1.007825032230
         H           -0.268240461045    -2.270132024570    -0.754209530859     1.007825032230
         H           -2.566234161045    -1.613853224570     0.589686369141     1.007825032230
         H           -2.315516461045    -1.062609024570    -1.057590530859     1.007825032230
         H           -1.874545461045     0.539203975430     1.507841469141     1.007825032230
         H           -2.593512461045     1.108213975430    -0.002000530859     1.007825032230
         H            1.912372538955    -1.031466024570    -1.326615530859     1.007825032230
         H            1.879442538955     0.724858975430    -1.082409530859     1.007825032230
         H            2.289609538955     0.433758975430     1.347668469141     1.007825032230
         H            2.310310538955    -1.333890024570     1.164880469141     1.007825032230
         H            3.582455538955    -0.352453024570     0.421912469141     1.007825032230

  Basis Set: AUG-CC-PVTZ
    Blend: AUG-CC-PVTZ
  Basis Set: (AUG-CC-PVTZ AUX)
    Blend: AUG-CC-PVTZ-JKFIT
	 Reference Energy          =    -363.0760247896624833 [Eh]
	 Singles Energy            =      -0.0000000000000000 [Eh]
	 Same-Spin Energy          =      -0.3767815066811402 [Eh]
	 Opposite-Spin Energy      =      -1.2467895988130859 [Eh]
	 Correlation Energy        =      -1.6235711054942261 [Eh]
	 Total Energy              =    -364.6995958951567331 [Eh]

	 ================> DF-SCS-MP2 Energies <==================
	-----------------------------------------------------------
	 SCS Same-Spin Scale       =       0.3333333333333333 [-]
	 SCS Opposite-Spin Scale   =       1.2000000000000000 [-]
	 SCS Same-Spin Energy      =      -0.1255938355603801 [Eh]
	 SCS Opposite-Spin Energy  =      -1.4961475185757032 [Eh]
	 SCS Correlation Energy    =      -1.6217413541360832 [Eh]
	 SCS Total Energy          =    -364.6977661437985603 [Eh]
	-----------------------------------------------------------

  Dipole Moment: [D]
     X:    -0.4734      Y:    -3.9550      Z:     0.2570     Total:     3.9915

*** Psi4 exiting successfully. Buy a developer a beer!
