                               Psi4 1.3.2 release

  ==> Input File <==

--------------------------------------------------------------------------
#psi4
#
memory 32 gb

molecule  {
0 1
  O       -0.0101440     2.0708820    -0.1140410
  N        0.2351990    -0.2177110    -0.3583720
  C       -0.4908340    -1.4342940    -0.0290780
  C       -1.9502640    -0.9583450    -0.0482810
  C       -1.8489090     0.4999680     0.4010950
  C       -0.5373807     0.8728555    -0.0444173
  C        1.6617300    -0.1844710    -0.6214880
  C        2.4978900    -0.3314020     0.6460640
  H       -0.2060500    -1.8213230     0.9608810
  H       -0.2853850    -2.2161620    -0.7686800
  H       -2.5951790    -1.5710950     0.5868370
  H       -2.3326610    -1.0086390    -1.0720610
  H       -1.8916900     0.5931740     1.4933710
  H       -2.6106570     1.1621840    -0.0164710
  H        1.8952280    -0.9774960    -1.3410860
  H        1.8622980     0.7788290    -1.0968800
  H        2.2724650     0.4877290     1.3331980
  H        2.2931660    -1.2799200     1.1504100
  H        3.5653110    -0.2984830     0.4074420
units angstrom
no_reorient  #important for SAPT in psi4, default
symmetry c1  #important for SAPT in psi4, default
}

set PROPERTIES_ORIGIN ["COM"]
properties('MP2/aug-cc-pvtz', properties = ['dipole'])
--------------------------------------------------------------------------

    Molecular point group: c1
  Charge       = 0
  Multiplicity = 1
  Basis Set: AUG-CC-PVTZ
    Blend: AUG-CC-PVTZ
  Basis Set: (AUG-CC-PVTZ AUX)
    Blend: AUG-CC-PVTZ-JKFIT

    Orbital Energies [Eh]
    ---------------------

    Doubly Occupied:

       1A    -20.499379     2A    -15.587866     3A    -11.345804
       4A    -11.276331     5A    -11.263722     6A    -11.247648
       7A    -11.243816     8A    -11.219290     9A     -1.333468
      10A     -1.243250    11A     -1.101352    12A     -1.005823
      13A     -0.981660    14A     -0.874278    15A     -0.836827
      16A     -0.731923    17A     -0.697304    18A     -0.668669
      19A     -0.635263    20A     -0.609254    21A     -0.594227
      22A     -0.566447    23A     -0.564314    24A     -0.538349
      25A     -0.524608    26A     -0.515399    27A     -0.513573
      28A     -0.489539    29A     -0.462483    30A     -0.406904
      31A     -0.364471

  @DF-RHF Final Energy:  -363.05547369311711

   => Energetics <=

    Nuclear Repulsion Energy =            394.1746052181532605
    One-Electron Energy =               -1274.5736687436265129
    Two-Electron Energy =                 517.3435898323562014
    Total Energy =                       -363.0554736931170510
  Basis Set: (AUG-CC-PVTZ AUX)
    Blend: AUG-CC-PVTZ-RI
    Molecular point group: c1

    Geometry (in Angstrom), charge = 0, multiplicity = 1:

       Center              X                  Y                   Z               Mass
    ------------   -----------------  -----------------  -----------------  -----------------
         O            0.015498155718     2.022711108478    -0.100370824307    15.994914619570
         N            0.260841155718    -0.265881891522    -0.344701824307    14.003074004430
         C           -0.465191844282    -1.482464891522    -0.015407824307    12.000000000000
         C           -1.924621844282    -1.006515891522    -0.034610824307    12.000000000000
         C           -1.823266844282     0.451797108478     0.414765175693    12.000000000000
         C           -0.511738544282     0.824684608478    -0.030747124307    12.000000000000
         C            1.687372155718    -0.232641891522    -0.607817824307    12.000000000000
         C            2.523532155718    -0.379572891522     0.659734175693    12.000000000000
         H           -0.180407844282    -1.869493891522     0.974551175693     1.007825032230
         H           -0.259742844282    -2.264332891522    -0.755009824307     1.007825032230
         H           -2.569536844282    -1.619265891522     0.600507175693     1.007825032230
         H           -2.307018844282    -1.056809891522    -1.058390824307     1.007825032230
         H           -1.866047844282     0.545003108478     1.507041175693     1.007825032230
         H           -2.585014844282     1.114013108478    -0.002800824307     1.007825032230
         H            1.920870155718    -1.025666891522    -1.327415824307     1.007825032230
         H            1.887940155718     0.730658108478    -1.083209824307     1.007825032230
         H            2.298107155718     0.439558108478     1.346868175693     1.007825032230
         H            2.318808155718    -1.328090891522     1.164080175693     1.007825032230
         H            3.590953155718    -0.346653891522     0.421112175693     1.007825032230

  Basis Set: AUG-CC-PVTZ
    Blend: AUG-CC-PVTZ
  Basis Set: (AUG-CC-PVTZ AUX)
    Blend: AUG-CC-PVTZ-JKFIT
	 Reference Energy          =    -363.0554736931171078 [Eh]
	 Singles Energy            =      -0.0000000000000000 [Eh]
	 Same-Spin Energy          =      -0.3791329201481947 [Eh]
	 Opposite-Spin Energy      =      -1.2512553844258751 [Eh]
	 Correlation Energy        =      -1.6303883045740699 [Eh]
	 Total Energy              =    -364.6858619976911768 [Eh]

	 ================> DF-SCS-MP2 Energies <==================
	-----------------------------------------------------------
	 SCS Same-Spin Scale       =       0.3333333333333333 [-]
	 SCS Opposite-Spin Scale   =       1.2000000000000000 [-]
	 SCS Same-Spin Energy      =      -0.1263776400493982 [Eh]
	 SCS Opposite-Spin Energy  =      -1.5015064613110500 [Eh]
	 SCS Correlation Energy    =      -1.6278841013604484 [Eh]
	 SCS Total Energy          =    -364.6833577944775584 [Eh]
	-----------------------------------------------------------

  Dipole Moment: [D]
     X:    -0.6985      Y:    -4.3723      Z:     0.3185     Total:     4.4392

*** Psi4 exiting successfully. Buy a developer a beer!
