                               Psi4 1.3.2 release

  ==> Input File <==

--------------------------------------------------------------------------
#psi4
#
memory 32 gb

molecule  {
0 1
  O       -0.0101440     2.0708820    -0.1140410
  N        0.2351990    -0.2177110    -0.3583720
  C       -0.5073500    -1.4825807    -0.0454199
  C       -1.9502640    -0.9583450    -0.0482810
  C       -1.8489090     0.4999680     0.4010950
  C       -0.4582930     0.9265630    -0.0509830
  C        1.6617300    -0.1844710    -0.6214880
  C        2.4978900    -0.3314020     0.6460640
  H       -0.2060500    -1.8213230     0.9608810
  H       -0.2853850    -2.2161620    -0.7686800
  H       -2.5951790    -1.5710950     0.5868370
  H       -2.3326610    -1.0086390    -1.0720610
  H       -1.8916900     0.5931740     1.4933710
  H       -2.6106570     1.1621840    -0.0164710
  H        1.8952280    -0.9774960    -1.3410860
  H        1.8622980     0.7788290    -1.0968800
  H        2.2724650     0.4877290     1.3331980
  H        2.2931660    -1.2799200     1.1504100
  H        3.5653110    -0.2984830     0.4074420
units angstrom
no_reorient  #important for SAPT in psi4, default
symmetry c1  #important for SAPT in psi4, default
}

set PROPERTIES_ORIGIN ["COM"]
properties('MP2/aug-cc-pvtz', properties = ['dipole'])
--------------------------------------------------------------------------

    Molecular point group: c1
  Charge       = 0
  Multiplicity = 1
  Basis Set: AUG-CC-PVTZ
    Blend: AUG-CC-PVTZ
  Basis Set: (AUG-CC-PVTZ AUX)
    Blend: AUG-CC-PVTZ-JKFIT

    Orbital Energies [Eh]
    ---------------------

    Doubly Occupied:

       1A    -20.509869     2A    -15.579760     3A    -11.340118
       4A    -11.276098     5A    -11.259197     6A    -11.243391
       7A    -11.240261     8A    -11.217630     9A     -1.364265
      10A     -1.249239    11A     -1.086707    12A     -0.998203
      13A     -0.975172    14A     -0.867921    15A     -0.829659
      16A     -0.723456    17A     -0.689396    18A     -0.669216
      19A     -0.639761    20A     -0.603553    21A     -0.589784
      22A     -0.573548    23A     -0.559646    24A     -0.552577
      25A     -0.521122    26A     -0.516858    27A     -0.510877
      28A     -0.487796    29A     -0.477599    30A     -0.407581
      31A     -0.368943

  @DF-RHF Final Energy:  -363.07293397447120

   => Energetics <=

    Nuclear Repulsion Energy =            393.3597480316321366
    One-Electron Energy =               -1273.0069609289341770
    Two-Electron Energy =                 516.5742789228308993
    Total Energy =                       -363.0729339744711979
  Basis Set: (AUG-CC-PVTZ AUX)
    Blend: AUG-CC-PVTZ-RI
    Molecular point group: c1

    Geometry (in Angstrom), charge = 0, multiplicity = 1:

       Center              X                  Y                   Z               Mass
    ------------   -----------------  -----------------  -----------------  -----------------
         O            0.008858312989     2.022135876233    -0.097939967205    15.994914619570
         N            0.254201312989    -0.266457123767    -0.342270967205    14.003074004430
         C           -0.488347687011    -1.531326823767    -0.029318867205    12.000000000000
         C           -1.931261687011    -1.007091123767    -0.032179967205    12.000000000000
         C           -1.829906687011     0.451221876233     0.417196032795    12.000000000000
         C           -0.439290687011     0.877816876233    -0.034881967205    12.000000000000
         C            1.680732312989    -0.233217123767    -0.605386967205    12.000000000000
         C            2.516892312989    -0.380148123767     0.662165032795    12.000000000000
         H           -0.187047687011    -1.870069123767     0.976982032795     1.007825032230
         H           -0.266382687011    -2.264908123767    -0.752578967205     1.007825032230
         H           -2.576176687011    -1.619841123767     0.602938032795     1.007825032230
         H           -2.313658687011    -1.057385123767    -1.055959967205     1.007825032230
         H           -1.872687687011     0.544427876233     1.509472032795     1.007825032230
         H           -2.591654687011     1.113437876233    -0.000369967205     1.007825032230
         H            1.914230312989    -1.026242123767    -1.324984967205     1.007825032230
         H            1.881300312989     0.730082876233    -1.080778967205     1.007825032230
         H            2.291467312989     0.438982876233     1.349299032795     1.007825032230
         H            2.312168312989    -1.328666123767     1.166511032795     1.007825032230
         H            3.584313312989    -0.347229123767     0.423543032795     1.007825032230

  Basis Set: AUG-CC-PVTZ
    Blend: AUG-CC-PVTZ
  Basis Set: (AUG-CC-PVTZ AUX)
    Blend: AUG-CC-PVTZ-JKFIT
	 Reference Energy          =    -363.0729339744711979 [Eh]
	 Singles Energy            =      -0.0000000000000000 [Eh]
	 Same-Spin Energy          =      -0.3766484041641510 [Eh]
	 Opposite-Spin Energy      =      -1.2471772944124671 [Eh]
	 Correlation Energy        =      -1.6238256985766180 [Eh]
	 Total Energy              =    -364.6967596730478363 [Eh]

	 ================> DF-SCS-MP2 Energies <==================
	-----------------------------------------------------------
	 SCS Same-Spin Scale       =       0.3333333333333333 [-]
	 SCS Opposite-Spin Scale   =       1.2000000000000000 [-]
	 SCS Same-Spin Energy      =      -0.1255494680547170 [Eh]
	 SCS Opposite-Spin Energy  =      -1.4966127532949605 [Eh]
	 SCS Correlation Energy    =      -1.6221622213496774 [Eh]
	 SCS Total Energy          =    -364.6950961958208950 [Eh]
	-----------------------------------------------------------

  Dipole Moment: [D]
     X:    -0.5102      Y:    -4.0737      Z:     0.2410     Total:     4.1126

*** Psi4 exiting successfully. Buy a developer a beer!
