                               Psi4 1.4a3.dev225

  ==> Input File <==

--------------------------------------------------------------------------
#psi4
#
memory 32 gb

molecule  {
0 1
  O       -0.0101440     2.0708820    -0.1140410
  N        0.2351990    -0.2177110    -0.3583720
  C       -0.4908340    -1.4342940    -0.0290780
  C       -1.9502640    -0.9583450    -0.0482810
  C       -1.8489090     0.4999680     0.4010950
  C       -0.4655767     0.9079647    -0.0499581
  C        1.6617300    -0.1844710    -0.6214880
  C        2.4978900    -0.3314020     0.6460640
  H       -0.2060500    -1.8213230     0.9608810
  H       -0.2853850    -2.2161620    -0.7686800
  H       -2.5951790    -1.5710950     0.5868370
  H       -2.3326610    -1.0086390    -1.0720610
  H       -1.8916900     0.5931740     1.4933710
  H       -2.6106570     1.1621840    -0.0164710
  H        1.8952280    -0.9774960    -1.3410860
  H        1.8622980     0.7788290    -1.0968800
  H        2.2724650     0.4877290     1.3331980
  H        2.2931660    -1.2799200     1.1504100
  H        3.5653110    -0.2984830     0.4074420
units angstrom
no_reorient  #important for SAPT in psi4, default
symmetry c1  #important for SAPT in psi4, default
}

set PROPERTIES_ORIGIN ["COM"]
properties('MP2/aug-cc-pvtz', properties = ['dipole'])
--------------------------------------------------------------------------

    Molecular point group: c1
  Charge       = 0
  Multiplicity = 1
  Basis Set: AUG-CC-PVTZ
    Blend: AUG-CC-PVTZ
  Basis Set: (AUG-CC-PVTZ AUX)
    Blend: AUG-CC-PVTZ-JKFIT

    Orbital Energies [Eh]
    ---------------------

    Doubly Occupied:

       1A    -20.507177     2A    -15.584057     3A    -11.341280
       4A    -11.276114     5A    -11.262351     6A    -11.243404
       7A    -11.240621     8A    -11.219476     9A     -1.356512
      10A     -1.258384    11A     -1.090381    12A     -1.002572
      13A     -0.974438    14A     -0.872178    15A     -0.831909
      16A     -0.727623    17A     -0.694959    18A     -0.667802
      19A     -0.638055    20A     -0.605820    21A     -0.589939
      22A     -0.569810    23A     -0.563650    24A     -0.550859
      25A     -0.523342    26A     -0.513667    27A     -0.510882
      28A     -0.490778    29A     -0.474283    30A     -0.408357
      31A     -0.369825

  @DF-RHF Final Energy:  -363.07396481226527

   => Energetics <=

    Nuclear Repulsion Energy =            394.3598966282117431
    One-Electron Energy =               -1274.9467139852981745
    Two-Electron Energy =                 517.5128525448211576
    Total Energy =                       -363.0739648122652170
  Basis Set: (AUG-CC-PVTZ AUX)
    Blend: AUG-CC-PVTZ-RI
    Molecular point group: c1

    Geometry (in Angstrom), charge = 0, multiplicity = 1:

       Center              X                  Y                   Z               Mass
    ------------   -----------------  -----------------  -----------------  -----------------
         O            0.007878620572     2.018985469470    -0.099782858172    15.994914619570
         N            0.253221620572    -0.269607530530    -0.344113858172    14.003074004430
         C           -0.472811379428    -1.486190530530    -0.014819858172    12.000000000000
         C           -1.932241379428    -1.010241530530    -0.034022858172    12.000000000000
         C           -1.830886379428     0.448071469470     0.415353141828    12.000000000000
         C           -0.447554079428     0.856068169470    -0.035699958172    12.000000000000
         C            1.679752620572    -0.236367530530    -0.607229858172    12.000000000000
         C            2.515912620572    -0.383298530530     0.660322141828    12.000000000000
         H           -0.188027379428    -1.873219530530     0.975139141828     1.007825032230
         H           -0.267362379428    -2.268058530530    -0.754421858172     1.007825032230
         H           -2.577156379428    -1.622991530530     0.601095141828     1.007825032230
         H           -2.314638379428    -1.060535530530    -1.057802858172     1.007825032230
         H           -1.873667379428     0.541277469470     1.507629141828     1.007825032230
         H           -2.592634379428     1.110287469470    -0.002212858172     1.007825032230
         H            1.913250620572    -1.029392530530    -1.326827858172     1.007825032230
         H            1.880320620572     0.726932469470    -1.082621858172     1.007825032230
         H            2.290487620572     0.435832469470     1.347456141828     1.007825032230
         H            2.311188620572    -1.331816530530     1.164668141828     1.007825032230
         H            3.583333620572    -0.350379530530     0.421700141828     1.007825032230

  Basis Set: AUG-CC-PVTZ
    Blend: AUG-CC-PVTZ
  Basis Set: (AUG-CC-PVTZ AUX)
    Blend: AUG-CC-PVTZ-JKFIT
	 Reference Energy          =    -363.0739648122652738 [Eh]
	 Singles Energy            =      -0.0000000000000000 [Eh]
	 Same-Spin Energy          =      -0.3771779117143886 [Eh]
	 Opposite-Spin Energy      =      -1.2476734659363062 [Eh]
	 Correlation Energy        =      -1.6248513776506948 [Eh]
	 Total Energy              =    -364.6988161899159877 [Eh]

	 ================> DF-SCS-MP2 Energies <==================
	-----------------------------------------------------------
	 SCS Same-Spin Scale       =       0.3333333333333333 [-]
	 SCS Opposite-Spin Scale   =       1.2000000000000000 [-]
	 SCS Same-Spin Energy      =      -0.1257259705714629 [Eh]
	 SCS Opposite-Spin Energy  =      -1.4972081591235675 [Eh]
	 SCS Correlation Energy    =      -1.6229341296950304 [Eh]
	 SCS Total Energy          =    -364.6968989419602849 [Eh]
	-----------------------------------------------------------

  Dipole Moment: [D]
     X:    -0.4702      Y:    -4.1115      Z:     0.2551     Total:     4.1461

*** Psi4 exiting successfully. Buy a developer a beer!
