                               Psi4 1.3.2 release

  ==> Input File <==

--------------------------------------------------------------------------
#psi4
#
memory 32 gb

molecule  {
0 1
  O       -0.0101440     2.0708820    -0.1140410
  N        0.2351990    -0.2177110    -0.3583720
  C       -0.4908340    -1.4342940    -0.0290780
  C       -2.0352436    -0.9305605    -0.1066019
  C       -1.8489090     0.4999680     0.4010950
  C       -0.4582930     0.9265630    -0.0509830
  C        1.6617300    -0.1844710    -0.6214880
  C        2.4978900    -0.3314020     0.6460640
  H       -0.2060500    -1.8213230     0.9608810
  H       -0.2853850    -2.2161620    -0.7686800
  H       -2.5951790    -1.5710950     0.5868370
  H       -2.3326610    -1.0086390    -1.0720610
  H       -1.8916900     0.5931740     1.4933710
  H       -2.6106570     1.1621840    -0.0164710
  H        1.8952280    -0.9774960    -1.3410860
  H        1.8622980     0.7788290    -1.0968800
  H        2.2724650     0.4877290     1.3331980
  H        2.2931660    -1.2799200     1.1504100
  H        3.5653110    -0.2984830     0.4074420
units angstrom
no_reorient  #important for SAPT in psi4, default
symmetry c1  #important for SAPT in psi4, default
}

set PROPERTIES_ORIGIN ["COM"]
properties('MP2/aug-cc-pvtz', properties = ['dipole'])
--------------------------------------------------------------------------

    Molecular point group: c1
  Charge       = 0
  Multiplicity = 1
  Basis Set: AUG-CC-PVTZ
    Blend: AUG-CC-PVTZ
  Basis Set: (AUG-CC-PVTZ AUX)
    Blend: AUG-CC-PVTZ-JKFIT

    Orbital Energies [Eh]
    ---------------------

    Doubly Occupied:

       1A    -20.511924     2A    -15.580301     3A    -11.341346
       4A    -11.277078     5A    -11.260569     6A    -11.241784
       7A    -11.240492     8A    -11.218418     9A     -1.366553
      10A     -1.255070    11A     -1.083482    12A     -1.001469
      13A     -0.963658    14A     -0.872963    15A     -0.835305
      16A     -0.723922    17A     -0.692858    18A     -0.665170
      19A     -0.639223    20A     -0.608775    21A     -0.590584
      22A     -0.574032    23A     -0.566173    24A     -0.551088
      25A     -0.530060    26A     -0.514763    27A     -0.501923
      28A     -0.485754    29A     -0.470277    30A     -0.410341
      31A     -0.368505

  @DF-RHF Final Energy:  -363.06492949782381

   => Energetics <=

    Nuclear Repulsion Energy =            393.0810734960639365
    One-Electron Energy =               -1272.4042912807335597
    Two-Electron Energy =                 516.2582882868458682
    Total Energy =                       -363.0649294978237549
  Basis Set: (AUG-CC-PVTZ AUX)
    Blend: AUG-CC-PVTZ-RI
    Molecular point group: c1

    Geometry (in Angstrom), charge = 0, multiplicity = 1:

       Center              X                  Y                   Z               Mass
    ------------   -----------------  -----------------  -----------------  -----------------
         O            0.016123379092     2.014063523968    -0.093485334233    15.994914619570
         N            0.261466379092    -0.274529476032    -0.337816334233    14.003074004430
         C           -0.464566620908    -1.491112476032    -0.008522334233    12.000000000000
         C           -2.008976220908    -0.987378976032    -0.086046234233    12.000000000000
         C           -1.822641620908     0.443149523968     0.421650665767    12.000000000000
         C           -0.432025620908     0.869744523968    -0.030427334233    12.000000000000
         C            1.687997379092    -0.241289476032    -0.600932334233    12.000000000000
         C            2.524157379092    -0.388220476032     0.666619665767    12.000000000000
         H           -0.179782620908    -1.878141476032     0.981436665767     1.007825032230
         H           -0.259117620908    -2.272980476032    -0.748124334233     1.007825032230
         H           -2.568911620908    -1.627913476032     0.607392665767     1.007825032230
         H           -2.306393620908    -1.065457476032    -1.051505334233     1.007825032230
         H           -1.865422620908     0.536355523968     1.513926665767     1.007825032230
         H           -2.584389620908     1.105365523968     0.004084665767     1.007825032230
         H            1.921495379092    -1.034314476032    -1.320530334233     1.007825032230
         H            1.888565379092     0.722010523968    -1.076324334233     1.007825032230
         H            2.298732379092     0.430910523968     1.353753665767     1.007825032230
         H            2.319433379092    -1.336738476032     1.170965665767     1.007825032230
         H            3.591578379092    -0.355301476032     0.427997665767     1.007825032230

  Basis Set: AUG-CC-PVTZ
    Blend: AUG-CC-PVTZ
  Basis Set: (AUG-CC-PVTZ AUX)
    Blend: AUG-CC-PVTZ-JKFIT
	 Reference Energy          =    -363.0649294978238117 [Eh]
	 Singles Energy            =      -0.0000000000000000 [Eh]
	 Same-Spin Energy          =      -0.3767812086545101 [Eh]
	 Opposite-Spin Energy      =      -1.2474846736828928 [Eh]
	 Correlation Energy        =      -1.6242658823374030 [Eh]
	 Total Energy              =    -364.6891953801612090 [Eh]

	 ================> DF-SCS-MP2 Energies <==================
	-----------------------------------------------------------
	 SCS Same-Spin Scale       =       0.3333333333333333 [-]
	 SCS Opposite-Spin Scale   =       1.2000000000000000 [-]
	 SCS Same-Spin Energy      =      -0.1255937362181700 [Eh]
	 SCS Opposite-Spin Energy  =      -1.4969816084194714 [Eh]
	 SCS Correlation Energy    =      -1.6225753446376414 [Eh]
	 SCS Total Energy          =    -364.6875048424614647 [Eh]
	-----------------------------------------------------------

  Dipole Moment: [D]
     X:    -0.4657      Y:    -3.9387      Z:     0.2242     Total:     3.9725

*** Psi4 exiting successfully. Buy a developer a beer!
