                               Psi4 1.3.2 release

  ==> Input File <==

--------------------------------------------------------------------------
#psi4
#
memory 32 gb

molecule  {
0 1
  O       -0.0101440     2.0708820    -0.1140410
  N        0.2351990    -0.2177110    -0.3583720
  C       -0.4908340    -1.4342940    -0.0290780
  C       -1.9502640    -0.9583450    -0.0482810
  C       -1.8489090     0.4999680     0.4010950
  C       -0.3334515     0.9965972    -0.0636274
  C        1.6617300    -0.1844710    -0.6214880
  C        2.4978900    -0.3314020     0.6460640
  H       -0.2060500    -1.8213230     0.9608810
  H       -0.2853850    -2.2161620    -0.7686800
  H       -2.5951790    -1.5710950     0.5868370
  H       -2.3326610    -1.0086390    -1.0720610
  H       -1.8916900     0.5931740     1.4933710
  H       -2.6106570     1.1621840    -0.0164710
  H        1.8952280    -0.9774960    -1.3410860
  H        1.8622980     0.7788290    -1.0968800
  H        2.2724650     0.4877290     1.3331980
  H        2.2931660    -1.2799200     1.1504100
  H        3.5653110    -0.2984830     0.4074420
units angstrom
no_reorient  #important for SAPT in psi4, default
symmetry c1  #important for SAPT in psi4, default
}

set PROPERTIES_ORIGIN ["COM"]
properties('MP2/aug-cc-pvtz', properties = ['dipole'])
--------------------------------------------------------------------------

    Molecular point group: c1
  Charge       = 0
  Multiplicity = 1
  Basis Set: AUG-CC-PVTZ
    Blend: AUG-CC-PVTZ
  Basis Set: (AUG-CC-PVTZ AUX)
    Blend: AUG-CC-PVTZ-JKFIT

    Orbital Energies [Eh]
    ---------------------

    Doubly Occupied:

       1A    -20.530594     2A    -15.575109     3A    -11.337340
       4A    -11.273405     5A    -11.258666     6A    -11.233772
       7A    -11.226094     8A    -11.219053     9A     -1.444130
      10A     -1.264093    11A     -1.074085    12A     -0.996710
      13A     -0.955183    14A     -0.864978    15A     -0.819012
      16A     -0.723508    17A     -0.690216    18A     -0.675960
      19A     -0.651277    20A     -0.606242    21A     -0.594429
      22A     -0.583556    23A     -0.579111    24A     -0.556959
      25A     -0.531174    26A     -0.512645    27A     -0.501008
      28A     -0.489080    29A     -0.483536    30A     -0.388741
      31A     -0.371923

  @DF-RHF Final Energy:  -363.05361059461910

   => Energetics <=

    Nuclear Repulsion Energy =            394.8165323206857806
    One-Electron Energy =               -1275.7171088230495570
    Two-Electron Energy =                 517.8469659077445613
    Total Energy =                       -363.0536105946191583
  Basis Set: (AUG-CC-PVTZ AUX)
    Blend: AUG-CC-PVTZ-RI
    Molecular point group: c1

    Geometry (in Angstrom), charge = 0, multiplicity = 1:

       Center              X                  Y                   Z               Mass
    ------------   -----------------  -----------------  -----------------  -----------------
         O           -0.006141943814     2.009580165464    -0.098332330182    15.994914619570
         N            0.239201056186    -0.279012834536    -0.342663330182    14.003074004430
         C           -0.486831943814    -1.495595834536    -0.013369330182    12.000000000000
         C           -1.946261943814    -1.019646834536    -0.032572330182    12.000000000000
         C           -1.844906943814     0.438666165464     0.416803669818    12.000000000000
         C           -0.329449443814     0.935295365464    -0.047918730182    12.000000000000
         C            1.665732056186    -0.245772834536    -0.605779330182    12.000000000000
         C            2.501892056186    -0.392703834536     0.661772669818    12.000000000000
         H           -0.202047943814    -1.882624834536     0.976589669818     1.007825032230
         H           -0.281382943814    -2.277463834536    -0.752971330182     1.007825032230
         H           -2.591176943814    -1.632396834536     0.602545669818     1.007825032230
         H           -2.328658943814    -1.069940834536    -1.056352330182     1.007825032230
         H           -1.887687943814     0.531872165464     1.509079669818     1.007825032230
         H           -2.606654943814     1.100882165464    -0.000762330182     1.007825032230
         H            1.899230056186    -1.038797834536    -1.325377330182     1.007825032230
         H            1.866300056186     0.717527165464    -1.081171330182     1.007825032230
         H            2.276467056186     0.426427165464     1.348906669818     1.007825032230
         H            2.297168056186    -1.341221834536     1.166118669818     1.007825032230
         H            3.569313056186    -0.359784834536     0.423150669818     1.007825032230

  Basis Set: AUG-CC-PVTZ
    Blend: AUG-CC-PVTZ
  Basis Set: (AUG-CC-PVTZ AUX)
    Blend: AUG-CC-PVTZ-JKFIT
	 Reference Energy          =    -363.0536105946191014 [Eh]
	 Singles Energy            =      -0.0000000000000000 [Eh]
	 Same-Spin Energy          =      -0.3749803901889286 [Eh]
	 Opposite-Spin Energy      =      -1.2434756389190902 [Eh]
	 Correlation Energy        =      -1.6184560291080188 [Eh]
	 Total Energy              =    -364.6720666237271189 [Eh]

	 ================> DF-SCS-MP2 Energies <==================
	-----------------------------------------------------------
	 SCS Same-Spin Scale       =       0.3333333333333333 [-]
	 SCS Opposite-Spin Scale   =       1.2000000000000000 [-]
	 SCS Same-Spin Energy      =      -0.1249934633963095 [Eh]
	 SCS Opposite-Spin Energy  =      -1.4921707667029083 [Eh]
	 SCS Correlation Energy    =      -1.6171642300992177 [Eh]
	 SCS Total Energy          =    -364.6707748247183076 [Eh]
	-----------------------------------------------------------

  Dipole Moment: [D]
     X:     0.0948      Y:    -3.2825      Z:     0.1180     Total:     3.2860

*** Psi4 exiting successfully. Buy a developer a beer!
