                               Psi4 1.4a3.dev225

  ==> Input File <==

--------------------------------------------------------------------------
#psi4
#
memory 32 gb

molecule  {
0 1
  O       -0.0101440     2.0708820    -0.1140410
  N        0.2351990    -0.2177110    -0.3583720
  C       -0.4908340    -1.4342940    -0.0290780
  C       -1.9502640    -0.9583450    -0.0482810
  C       -1.8489090     0.4999680     0.4010950
  C       -0.4582930     0.9265630    -0.0509830
  C        1.6617300    -0.1844710    -0.6214880
  C        2.4978900    -0.3314020     0.6460640
  H       -0.2008741    -1.8283572     0.9788735
  H       -0.2853850    -2.2161620    -0.7686800
  H       -2.5951790    -1.5710950     0.5868370
  H       -2.3326610    -1.0086390    -1.0720610
  H       -1.8916900     0.5931740     1.4933710
  H       -2.6106570     1.1621840    -0.0164710
  H        1.8952280    -0.9774960    -1.3410860
  H        1.8622980     0.7788290    -1.0968800
  H        2.2724650     0.4877290     1.3331980
  H        2.2931660    -1.2799200     1.1504100
  H        3.5653110    -0.2984830     0.4074420
units angstrom
no_reorient  #important for SAPT in psi4, default
symmetry c1  #important for SAPT in psi4, default
}

set PROPERTIES_ORIGIN ["COM"]
properties('MP2/aug-cc-pvtz', properties = ['dipole'])
--------------------------------------------------------------------------

    Molecular point group: c1
  Charge       = 0
  Multiplicity = 1
  Basis Set: AUG-CC-PVTZ
    Blend: AUG-CC-PVTZ
  Basis Set: (AUG-CC-PVTZ AUX)
    Blend: AUG-CC-PVTZ-JKFIT

    Orbital Energies [Eh]
    ---------------------

    Doubly Occupied:

       1A    -20.511811     2A    -15.581308     3A    -11.341530
       4A    -11.277327     5A    -11.260998     6A    -11.242654
       7A    -11.240064     8A    -11.218617     9A     -1.367043
      10A     -1.258584    11A     -1.087882    12A     -1.000567
      13A     -0.971111    14A     -0.870161    15A     -0.828984
      16A     -0.726113    17A     -0.691803    18A     -0.667902
      19A     -0.639541    20A     -0.604643    21A     -0.587922
      22A     -0.572198    23A     -0.563225    24A     -0.554646
      25A     -0.522565    26A     -0.513101    27A     -0.509731
      28A     -0.490240    29A     -0.477134    30A     -0.409535
      31A     -0.369367

  @DF-RHF Final Energy:  -363.07539862608445

   => Energetics <=

    Nuclear Repulsion Energy =            394.1908999550046246
    One-Electron Energy =               -1274.6159790294154845
    Two-Electron Energy =                 517.3496804483264668
    Total Energy =                       -363.0753986260843931
  Basis Set: (AUG-CC-PVTZ AUX)
    Blend: AUG-CC-PVTZ-RI
    Molecular point group: c1

    Geometry (in Angstrom), charge = 0, multiplicity = 1:

       Center              X                  Y                   Z               Mass
    ------------   -----------------  -----------------  -----------------  -----------------
         O            0.007059576771     2.017074586985    -0.099834452461    15.994914619570
         N            0.252402576771    -0.271518413015    -0.344165452461    14.003074004430
         C           -0.473630423229    -1.488101413015    -0.014871452461    12.000000000000
         C           -1.933060423229    -1.012152413015    -0.034074452461    12.000000000000
         C           -1.831705423229     0.446160586985     0.415301547539    12.000000000000
         C           -0.441089423229     0.872755586985    -0.036776452461    12.000000000000
         C            1.678933576771    -0.238278413015    -0.607281452461    12.000000000000
         C            2.515093576771    -0.385209413015     0.660270547539    12.000000000000
         H           -0.183670523229    -1.882164613015     0.993080047539     1.007825032230
         H           -0.268181423229    -2.269969413015    -0.754473452461     1.007825032230
         H           -2.577975423229    -1.624902413015     0.601043547539     1.007825032230
         H           -2.315457423229    -1.062446413015    -1.057854452461     1.007825032230
         H           -1.874486423229     0.539366586985     1.507577547539     1.007825032230
         H           -2.593453423229     1.108376586985    -0.002264452461     1.007825032230
         H            1.912431576771    -1.031303413015    -1.326879452461     1.007825032230
         H            1.879501576771     0.725021586985    -1.082673452461     1.007825032230
         H            2.289668576771     0.433921586985     1.347404547539     1.007825032230
         H            2.310369576771    -1.333727413015     1.164616547539     1.007825032230
         H            3.582514576771    -0.352290413015     0.421648547539     1.007825032230

  Basis Set: AUG-CC-PVTZ
    Blend: AUG-CC-PVTZ
  Basis Set: (AUG-CC-PVTZ AUX)
    Blend: AUG-CC-PVTZ-JKFIT
	 Reference Energy          =    -363.0753986260844499 [Eh]
	 Singles Energy            =      -0.0000000000000000 [Eh]
	 Same-Spin Energy          =      -0.3768100182168754 [Eh]
	 Opposite-Spin Energy      =      -1.2470694316414290 [Eh]
	 Correlation Energy        =      -1.6238794498583045 [Eh]
	 Total Energy              =    -364.6992780759427433 [Eh]

	 ================> DF-SCS-MP2 Energies <==================
	-----------------------------------------------------------
	 SCS Same-Spin Scale       =       0.3333333333333333 [-]
	 SCS Opposite-Spin Scale   =       1.2000000000000000 [-]
	 SCS Same-Spin Energy      =      -0.1256033394056251 [Eh]
	 SCS Opposite-Spin Energy  =      -1.4964833179697148 [Eh]
	 SCS Correlation Energy    =      -1.6220866573753399 [Eh]
	 SCS Total Energy          =    -364.6974852834597982 [Eh]
	-----------------------------------------------------------

  Dipole Moment: [D]
     X:    -0.4658      Y:    -3.9319      Z:     0.2403     Total:     3.9666

*** Psi4 exiting successfully. Buy a developer a beer!
