                               Psi4 1.4a3.dev225

  ==> Input File <==

--------------------------------------------------------------------------
#psi4
#
memory 32 gb

molecule  {
0 1
  O       -0.0101440     2.0708820    -0.1140410
  N        0.2351990    -0.2177110    -0.3583720
  C       -0.4908340    -1.4342940    -0.0290780
  C       -1.9502640    -0.9583450    -0.0482810
  C       -1.8455953     0.5476458     0.4157868
  C       -0.4582930     0.9265630    -0.0509830
  C        1.6617300    -0.1844710    -0.6214880
  C        2.4978900    -0.3314020     0.6460640
  H       -0.2060500    -1.8213230     0.9608810
  H       -0.2853850    -2.2161620    -0.7686800
  H       -2.5951790    -1.5710950     0.5868370
  H       -2.3326610    -1.0086390    -1.0720610
  H       -1.8916900     0.5931740     1.4933710
  H       -2.6106570     1.1621840    -0.0164710
  H        1.8952280    -0.9774960    -1.3410860
  H        1.8622980     0.7788290    -1.0968800
  H        2.2724650     0.4877290     1.3331980
  H        2.2931660    -1.2799200     1.1504100
  H        3.5653110    -0.2984830     0.4074420
units angstrom
no_reorient  #important for SAPT in psi4, default
symmetry c1  #important for SAPT in psi4, default
}

set PROPERTIES_ORIGIN ["COM"]
properties('MP2/aug-cc-pvtz', properties = ['dipole'])
--------------------------------------------------------------------------

    Molecular point group: c1
  Charge       = 0
  Multiplicity = 1
  Basis Set: AUG-CC-PVTZ
    Blend: AUG-CC-PVTZ
  Basis Set: (AUG-CC-PVTZ AUX)
    Blend: AUG-CC-PVTZ-JKFIT

    Orbital Energies [Eh]
    ---------------------

    Doubly Occupied:

       1A    -20.510393     2A    -15.581450     3A    -11.340740
       4A    -11.274632     5A    -11.261134     6A    -11.244105
       7A    -11.238763     8A    -11.218732     9A     -1.366722
      10A     -1.257448    11A     -1.083244    12A     -0.998798
      13A     -0.973743    14A     -0.869082    15A     -0.831810
      16A     -0.726436    17A     -0.692716    18A     -0.666358
      19A     -0.641805    20A     -0.605269    21A     -0.593116
      22A     -0.572483    23A     -0.564177    24A     -0.550606
      25A     -0.522486    26A     -0.512692    27A     -0.503879
      28A     -0.491280    29A     -0.479036    30A     -0.408814
      31A     -0.369319

  @DF-RHF Final Energy:  -363.07447429658413

   => Energetics <=

    Nuclear Repulsion Energy =            393.9083012112021152
    One-Electron Energy =               -1274.0630112336557431
    Two-Electron Energy =                 517.0802357258695565
    Total Energy =                       -363.0744742965840715
  Basis Set: (AUG-CC-PVTZ AUX)
    Blend: AUG-CC-PVTZ-RI
    Molecular point group: c1

    Geometry (in Angstrom), charge = 0, multiplicity = 1:

       Center              X                  Y                   Z               Mass
    ------------   -----------------  -----------------  -----------------  -----------------
         O            0.006754069547     2.011952531565    -0.101233131484    15.994914619570
         N            0.252097069547    -0.276640468435    -0.345564131484    14.003074004430
         C           -0.473935930453    -1.493223468435    -0.016270131484    12.000000000000
         C           -1.933365930453    -1.017274468435    -0.035473131484    12.000000000000
         C           -1.828697230453     0.488716331565     0.428594668516    12.000000000000
         C           -0.441394930453     0.867633531565    -0.038175131484    12.000000000000
         C            1.678628069547    -0.243400468435    -0.608680131484    12.000000000000
         C            2.514788069547    -0.390331468435     0.658871868516    12.000000000000
         H           -0.189151930453    -1.880252468435     0.973688868516     1.007825032230
         H           -0.268486930453    -2.275091468435    -0.755872131484     1.007825032230
         H           -2.578280930453    -1.630024468435     0.599644868516     1.007825032230
         H           -2.315762930453    -1.067568468435    -1.059253131484     1.007825032230
         H           -1.874791930453     0.534244531565     1.506178868516     1.007825032230
         H           -2.593758930453     1.103254531565    -0.003663131484     1.007825032230
         H            1.912126069547    -1.036425468435    -1.328278131484     1.007825032230
         H            1.879196069547     0.719899531565    -1.084072131484     1.007825032230
         H            2.289363069547     0.428799531565     1.346005868516     1.007825032230
         H            2.310064069547    -1.338849468435     1.163217868516     1.007825032230
         H            3.582209069547    -0.357412468435     0.420249868516     1.007825032230

  Basis Set: AUG-CC-PVTZ
    Blend: AUG-CC-PVTZ
  Basis Set: (AUG-CC-PVTZ AUX)
    Blend: AUG-CC-PVTZ-JKFIT
	 Reference Energy          =    -363.0744742965841283 [Eh]
	 Singles Energy            =      -0.0000000000000000 [Eh]
	 Same-Spin Energy          =      -0.3764667400287421 [Eh]
	 Opposite-Spin Energy      =      -1.2467725257001385 [Eh]
	 Correlation Energy        =      -1.6232392657288806 [Eh]
	 Total Energy              =    -364.6977135623130266 [Eh]

	 ================> DF-SCS-MP2 Energies <==================
	-----------------------------------------------------------
	 SCS Same-Spin Scale       =       0.3333333333333333 [-]
	 SCS Opposite-Spin Scale   =       1.2000000000000000 [-]
	 SCS Same-Spin Energy      =      -0.1254889133429140 [Eh]
	 SCS Opposite-Spin Energy  =      -1.4961270308401662 [Eh]
	 SCS Correlation Energy    =      -1.6216159441830802 [Eh]
	 SCS Total Energy          =    -364.6960902407672052 [Eh]
	-----------------------------------------------------------

  Dipole Moment: [D]
     X:    -0.4720      Y:    -3.9381      Z:     0.2661     Total:     3.9752

*** Psi4 exiting successfully. Buy a developer a beer!
