                               Psi4 1.3.2 release

  ==> Input File <==

--------------------------------------------------------------------------
#psi4
#
memory 32 gb

molecule  {
0 1
  O       -0.1246420     2.1108644    -0.0706546
  N        0.2351990    -0.2177110    -0.3583720
  C       -0.4908340    -1.4342940    -0.0290780
  C       -1.9502640    -0.9583450    -0.0482810
  C       -1.8489090     0.4999680     0.4010950
  C       -0.4582930     0.9265630    -0.0509830
  C        1.6617300    -0.1844710    -0.6214880
  C        2.4978900    -0.3314020     0.6460640
  H       -0.2060500    -1.8213230     0.9608810
  H       -0.2853850    -2.2161620    -0.7686800
  H       -2.5951790    -1.5710950     0.5868370
  H       -2.3326610    -1.0086390    -1.0720610
  H       -1.8916900     0.5931740     1.4933710
  H       -2.6106570     1.1621840    -0.0164710
  H        1.8952280    -0.9774960    -1.3410860
  H        1.8622980     0.7788290    -1.0968800
  H        2.2724650     0.4877290     1.3331980
  H        2.2931660    -1.2799200     1.1504100
  H        3.5653110    -0.2984830     0.4074420
units angstrom
no_reorient  #important for SAPT in psi4, default
symmetry c1  #important for SAPT in psi4, default
}

set PROPERTIES_ORIGIN ["COM"]
properties('MP2/aug-cc-pvtz', properties = ['dipole'])
--------------------------------------------------------------------------

    Molecular point group: c1
  Charge       = 0
  Multiplicity = 1
  Basis Set: AUG-CC-PVTZ
    Blend: AUG-CC-PVTZ
  Basis Set: (AUG-CC-PVTZ AUX)
    Blend: AUG-CC-PVTZ-JKFIT

    Orbital Energies [Eh]
    ---------------------

    Doubly Occupied:

       1A    -20.512887     2A    -15.586376     3A    -11.341536
       4A    -11.276549     5A    -11.264726     6A    -11.239944
       7A    -11.233581     8A    -11.221167     9A     -1.365533
      10A     -1.263851    11A     -1.087183    12A     -1.002148
      13A     -0.971245    14A     -0.872233    15A     -0.828998
      16A     -0.728142    17A     -0.693663    18A     -0.667647
      19A     -0.639638    20A     -0.605969    21A     -0.589488
      22A     -0.573561    23A     -0.563803    24A     -0.554376
      25A     -0.524152    26A     -0.515376    27A     -0.509382
      28A     -0.492046    29A     -0.475386    30A     -0.405431
      31A     -0.373524

  @DF-RHF Final Energy:  -363.07348561100679

   => Energetics <=

    Nuclear Repulsion Energy =            393.6395924612934891
    One-Electron Energy =               -1273.4670784165327859
    Two-Electron Energy =                 516.7540003442325087
    Total Energy =                       -363.0734856110068449
  Basis Set: (AUG-CC-PVTZ AUX)
    Blend: AUG-CC-PVTZ-RI
    Molecular point group: c1

    Geometry (in Angstrom), charge = 0, multiplicity = 1:

       Center              X                  Y                   Z               Mass
    ------------   -----------------  -----------------  -----------------  -----------------
         O           -0.091197389161     2.051339078605    -0.062424389427    15.994914619570
         N            0.268643610839    -0.277236321395    -0.350141789427    14.003074004430
         C           -0.457389389161    -1.493819321395    -0.020847789427    12.000000000000
         C           -1.916819389161    -1.017870321395    -0.040050789427    12.000000000000
         C           -1.815464389161     0.440442678605     0.409325210573    12.000000000000
         C           -0.424848389161     0.867037678605    -0.042752789427    12.000000000000
         C            1.695174610839    -0.243996321395    -0.613257789427    12.000000000000
         C            2.531334610839    -0.390927321395     0.654294210573    12.000000000000
         H           -0.172605389161    -1.880848321395     0.969111210573     1.007825032230
         H           -0.251940389161    -2.275687321395    -0.760449789427     1.007825032230
         H           -2.561734389161    -1.630620321395     0.595067210573     1.007825032230
         H           -2.299216389161    -1.068164321395    -1.063830789427     1.007825032230
         H           -1.858245389161     0.533648678605     1.501601210573     1.007825032230
         H           -2.577212389161     1.102658678605    -0.008240789427     1.007825032230
         H            1.928672610839    -1.037021321395    -1.332855789427     1.007825032230
         H            1.895742610839     0.719303678605    -1.088649789427     1.007825032230
         H            2.305909610839     0.428203678605     1.341428210573     1.007825032230
         H            2.326610610839    -1.339445321395     1.158640210573     1.007825032230
         H            3.598755610839    -0.358008321395     0.415672210573     1.007825032230

  Basis Set: AUG-CC-PVTZ
    Blend: AUG-CC-PVTZ
  Basis Set: (AUG-CC-PVTZ AUX)
    Blend: AUG-CC-PVTZ-JKFIT
	 Reference Energy          =    -363.0734856110067881 [Eh]
	 Singles Energy            =      -0.0000000000000000 [Eh]
	 Same-Spin Energy          =      -0.3766602037348400 [Eh]
	 Opposite-Spin Energy      =      -1.2470048891798244 [Eh]
	 Correlation Energy        =      -1.6236650929146643 [Eh]
	 Total Energy              =    -364.6971507039214657 [Eh]

	 ================> DF-SCS-MP2 Energies <==================
	-----------------------------------------------------------
	 SCS Same-Spin Scale       =       0.3333333333333333 [-]
	 SCS Opposite-Spin Scale   =       1.2000000000000000 [-]
	 SCS Same-Spin Energy      =      -0.1255534012449467 [Eh]
	 SCS Opposite-Spin Energy  =      -1.4964058670157894 [Eh]
	 SCS Correlation Energy    =      -1.6219592682607360 [Eh]
	 SCS Total Energy          =    -364.6954448792675407 [Eh]
	-----------------------------------------------------------

  Dipole Moment: [D]
     X:    -0.1333      Y:    -4.0406      Z:     0.1577     Total:     4.0459

*** Psi4 exiting successfully. Buy a developer a beer!
