                               Psi4 1.3.2 release

  ==> Input File <==

--------------------------------------------------------------------------
#psi4
#
memory 32 gb

molecule  {
0 1
  O       -0.0101440     2.0708820    -0.1140410
  N        0.2351990    -0.2177110    -0.3583720
  C       -0.4591158    -1.3140122    -0.1308041
  C       -1.9502640    -0.9583450    -0.0482810
  C       -1.8489090     0.4999680     0.4010950
  C       -0.4582930     0.9265630    -0.0509830
  C        1.6617300    -0.1844710    -0.6214880
  C        2.4978900    -0.3314020     0.6460640
  H       -0.2060500    -1.8213230     0.9608810
  H       -0.2853850    -2.2161620    -0.7686800
  H       -2.5951790    -1.5710950     0.5868370
  H       -2.3326610    -1.0086390    -1.0720610
  H       -1.8916900     0.5931740     1.4933710
  H       -2.6106570     1.1621840    -0.0164710
  H        1.8952280    -0.9774960    -1.3410860
  H        1.8622980     0.7788290    -1.0968800
  H        2.2724650     0.4877290     1.3331980
  H        2.2931660    -1.2799200     1.1504100
  H        3.5653110    -0.2984830     0.4074420
units angstrom
no_reorient  #important for SAPT in psi4, default
symmetry c1  #important for SAPT in psi4, default
}

set PROPERTIES_ORIGIN ["COM"]
properties('MP2/aug-cc-pvtz', properties = ['dipole'])
--------------------------------------------------------------------------

    Molecular point group: c1
  Charge       = 0
  Multiplicity = 1
  Basis Set: AUG-CC-PVTZ
    Blend: AUG-CC-PVTZ
  Basis Set: (AUG-CC-PVTZ AUX)
    Blend: AUG-CC-PVTZ-JKFIT

    Orbital Energies [Eh]
    ---------------------

    Doubly Occupied:

       1A    -20.518389     2A    -15.585232     3A    -11.347386
       4A    -11.277955     5A    -11.267155     6A    -11.241998
       7A    -11.241146     8A    -11.220890     9A     -1.378689
      10A     -1.293079    11A     -1.092408    12A     -1.010080
      13A     -0.968371    14A     -0.877886    15A     -0.836673
      16A     -0.735176    17A     -0.697225    18A     -0.676431
      19A     -0.645301    20A     -0.609517    21A     -0.593815
      22A     -0.578018    23A     -0.561659    24A     -0.556920
      25A     -0.527814    26A     -0.514647    27A     -0.507095
      28A     -0.490868    29A     -0.468752    30A     -0.414789
      31A     -0.357508

  @DF-RHF Final Energy:  -363.04898067313962

   => Energetics <=

    Nuclear Repulsion Energy =            396.8986894718226495
    One-Electron Energy =               -1279.7095917061917589
    Two-Electron Energy =                 519.7619215612294283
    Total Energy =                       -363.0489806731396811
  Basis Set: (AUG-CC-PVTZ AUX)
    Blend: AUG-CC-PVTZ-RI
    Molecular point group: c1

    Geometry (in Angstrom), charge = 0, multiplicity = 1:

       Center              X                  Y                   Z               Mass
    ------------   -----------------  -----------------  -----------------  -----------------
         O            0.003739904792     2.004248103820    -0.088879358982    15.994914619570
         N            0.249082904792    -0.284344896180    -0.333210358982    14.003074004430
         C           -0.445231895208    -1.380646096180    -0.105642458982    12.000000000000
         C           -1.936380095208    -1.024978896180    -0.023119358982    12.000000000000
         C           -1.835025095208     0.433334103820     0.426256641018    12.000000000000
         C           -0.444409095208     0.859929103820    -0.025821358982    12.000000000000
         C            1.675613904792    -0.251104896180    -0.596326358982    12.000000000000
         C            2.511773904792    -0.398035896180     0.671225641018    12.000000000000
         H           -0.192166095208    -1.887956896180     0.986042641018     1.007825032230
         H           -0.271501095208    -2.282795896180    -0.743518358982     1.007825032230
         H           -2.581295095208    -1.637728896180     0.611998641018     1.007825032230
         H           -2.318777095208    -1.075272896180    -1.046899358982     1.007825032230
         H           -1.877806095208     0.526540103820     1.518532641018     1.007825032230
         H           -2.596773095208     1.095550103820     0.008690641018     1.007825032230
         H            1.909111904792    -1.044129896180    -1.315924358982     1.007825032230
         H            1.876181904792     0.712195103820    -1.071718358982     1.007825032230
         H            2.286348904792     0.421095103820     1.358359641018     1.007825032230
         H            2.307049904792    -1.346553896180     1.175571641018     1.007825032230
         H            3.579194904792    -0.365116896180     0.432603641018     1.007825032230

  Basis Set: AUG-CC-PVTZ
    Blend: AUG-CC-PVTZ
  Basis Set: (AUG-CC-PVTZ AUX)
    Blend: AUG-CC-PVTZ-JKFIT
	 Reference Energy          =    -363.0489806731396243 [Eh]
	 Singles Energy            =      -0.0000000000000000 [Eh]
	 Same-Spin Energy          =      -0.3782500113485110 [Eh]
	 Opposite-Spin Energy      =      -1.2481710198862697 [Eh]
	 Correlation Energy        =      -1.6264210312347807 [Eh]
	 Total Energy              =    -364.6754017043743943 [Eh]

	 ================> DF-SCS-MP2 Energies <==================
	-----------------------------------------------------------
	 SCS Same-Spin Scale       =       0.3333333333333333 [-]
	 SCS Opposite-Spin Scale   =       1.2000000000000000 [-]
	 SCS Same-Spin Energy      =      -0.1260833371161703 [Eh]
	 SCS Opposite-Spin Energy  =      -1.4978052238635235 [Eh]
	 SCS Correlation Energy    =      -1.6238885609796938 [Eh]
	 SCS Total Energy          =    -364.6728692341193323 [Eh]
	-----------------------------------------------------------

  Dipole Moment: [D]
     X:    -0.3429      Y:    -3.4803      Z:     0.0028     Total:     3.4972

*** Psi4 exiting successfully. Buy a developer a beer!
