                               Psi4 1.3.2 release

  ==> Input File <==

--------------------------------------------------------------------------
#psi4
#
memory 32 gb

molecule  {
0 1
  O       -0.0101440     2.0708820    -0.1140410
  N        0.2817644    -0.2254067    -0.2684854
  C       -0.4908340    -1.4342940    -0.0290780
  C       -1.9502640    -0.9583450    -0.0482810
  C       -1.8489090     0.4999680     0.4010950
  C       -0.4582930     0.9265630    -0.0509830
  C        1.6617300    -0.1844710    -0.6214880
  C        2.4978900    -0.3314020     0.6460640
  H       -0.2060500    -1.8213230     0.9608810
  H       -0.2853850    -2.2161620    -0.7686800
  H       -2.5951790    -1.5710950     0.5868370
  H       -2.3326610    -1.0086390    -1.0720610
  H       -1.8916900     0.5931740     1.4933710
  H       -2.6106570     1.1621840    -0.0164710
  H        1.8952280    -0.9774960    -1.3410860
  H        1.8622980     0.7788290    -1.0968800
  H        2.2724650     0.4877290     1.3331980
  H        2.2931660    -1.2799200     1.1504100
  H        3.5653110    -0.2984830     0.4074420
units angstrom
no_reorient  #important for SAPT in psi4, default
symmetry c1  #important for SAPT in psi4, default
}

set PROPERTIES_ORIGIN ["COM"]
properties('MP2/aug-cc-pvtz', properties = ['dipole'])
--------------------------------------------------------------------------

    Molecular point group: c1
  Charge       = 0
  Multiplicity = 1
  Basis Set: AUG-CC-PVTZ
    Blend: AUG-CC-PVTZ
  Basis Set: (AUG-CC-PVTZ AUX)
    Blend: AUG-CC-PVTZ-JKFIT

    Orbital Energies [Eh]
    ---------------------

    Doubly Occupied:

       1A    -20.512360     2A    -15.578838     3A    -11.343054
       4A    -11.275036     5A    -11.258845     6A    -11.243936
       7A    -11.241465     8A    -11.215135     9A     -1.366682
      10A     -1.258894    11A     -1.091609    12A     -0.998434
      13A     -0.970727    14A     -0.870459    15A     -0.828750
      16A     -0.730387    17A     -0.690902    18A     -0.669492
      19A     -0.640766    20A     -0.606047    21A     -0.586550
      22A     -0.573563    23A     -0.564059    24A     -0.555184
      25A     -0.518981    26A     -0.517117    27A     -0.509691
      28A     -0.490954    29A     -0.476578    30A     -0.409205
      31A     -0.364040

  @DF-RHF Final Energy:  -363.07262295582638

   => Energetics <=

    Nuclear Repulsion Energy =            394.5634078769233497
    One-Electron Energy =               -1275.3565834378405270
    Two-Electron Energy =                 517.7205526050908020
    Total Energy =                       -363.0726229558264322
  Basis Set: (AUG-CC-PVTZ AUX)
    Blend: AUG-CC-PVTZ-RI
    Molecular point group: c1

    Geometry (in Angstrom), charge = 0, multiplicity = 1:

       Center              X                  Y                   Z               Mass
    ------------   -----------------  -----------------  -----------------  -----------------
         O            0.001339563553     2.017964846941    -0.110804657955    15.994914619570
         N            0.293247963553    -0.278323853059    -0.265249057955    14.003074004430
         C           -0.479350436447    -1.487211153059    -0.025841657955    12.000000000000
         C           -1.938780436447    -1.011262153059    -0.045044657955    12.000000000000
         C           -1.837425436447     0.447050846941     0.404331342045    12.000000000000
         C           -0.446809436447     0.873645846941    -0.047746657955    12.000000000000
         C            1.673213563553    -0.237388153059    -0.618251657955    12.000000000000
         C            2.509373563553    -0.384319153059     0.649300342045    12.000000000000
         H           -0.194566436447    -1.874240153059     0.964117342045     1.007825032230
         H           -0.273901436447    -2.269079153059    -0.765443657955     1.007825032230
         H           -2.583695436447    -1.624012153059     0.590073342045     1.007825032230
         H           -2.321177436447    -1.061556153059    -1.068824657955     1.007825032230
         H           -1.880206436447     0.540256846941     1.496607342045     1.007825032230
         H           -2.599173436447     1.109266846941    -0.013234657955     1.007825032230
         H            1.906711563553    -1.030413153059    -1.337849657955     1.007825032230
         H            1.873781563553     0.725911846941    -1.093643657955     1.007825032230
         H            2.283948563553     0.434811846941     1.336434342045     1.007825032230
         H            2.304649563553    -1.332837153059     1.153646342045     1.007825032230
         H            3.576794563553    -0.351400153059     0.410678342045     1.007825032230

  Basis Set: AUG-CC-PVTZ
    Blend: AUG-CC-PVTZ
  Basis Set: (AUG-CC-PVTZ AUX)
    Blend: AUG-CC-PVTZ-JKFIT
	 Reference Energy          =    -363.0726229558263753 [Eh]
	 Singles Energy            =      -0.0000000000000000 [Eh]
	 Same-Spin Energy          =      -0.3771386761810984 [Eh]
	 Opposite-Spin Energy      =      -1.2474095285286722 [Eh]
	 Correlation Energy        =      -1.6245482047097706 [Eh]
	 Total Energy              =    -364.6971711605361293 [Eh]

	 ================> DF-SCS-MP2 Energies <==================
	-----------------------------------------------------------
	 SCS Same-Spin Scale       =       0.3333333333333333 [-]
	 SCS Opposite-Spin Scale   =       1.2000000000000000 [-]
	 SCS Same-Spin Energy      =      -0.1257128920603661 [Eh]
	 SCS Opposite-Spin Energy  =      -1.4968914342344066 [Eh]
	 SCS Correlation Energy    =      -1.6226043262947727 [Eh]
	 SCS Total Energy          =    -364.6952272821211523 [Eh]
	-----------------------------------------------------------

  Dipole Moment: [D]
     X:    -0.6043      Y:    -3.9320      Z:     0.1170     Total:     3.9799

*** Psi4 exiting successfully. Buy a developer a beer!
