                               Psi4 1.3.2 release

  ==> Input File <==

--------------------------------------------------------------------------
#psi4
#
memory 32 gb

molecule  {
0 1
  O       -0.0101440     2.0708820    -0.1140410
  N        0.3626371    -0.3002501    -0.3471410
  C       -0.4908340    -1.4342940    -0.0290780
  C       -1.9502640    -0.9583450    -0.0482810
  C       -1.8489090     0.4999680     0.4010950
  C       -0.4582930     0.9265630    -0.0509830
  C        1.6617300    -0.1844710    -0.6214880
  C        2.4978900    -0.3314020     0.6460640
  H       -0.2060500    -1.8213230     0.9608810
  H       -0.2853850    -2.2161620    -0.7686800
  H       -2.5951790    -1.5710950     0.5868370
  H       -2.3326610    -1.0086390    -1.0720610
  H       -1.8916900     0.5931740     1.4933710
  H       -2.6106570     1.1621840    -0.0164710
  H        1.8952280    -0.9774960    -1.3410860
  H        1.8622980     0.7788290    -1.0968800
  H        2.2724650     0.4877290     1.3331980
  H        2.2931660    -1.2799200     1.1504100
  H        3.5653110    -0.2984830     0.4074420
units angstrom
no_reorient  #important for SAPT in psi4, default
symmetry c1  #important for SAPT in psi4, default
}

set PROPERTIES_ORIGIN ["COM"]
properties('MP2/aug-cc-pvtz', properties = ['dipole'])
--------------------------------------------------------------------------

    Molecular point group: c1
  Charge       = 0
  Multiplicity = 1
  Basis Set: AUG-CC-PVTZ
    Blend: AUG-CC-PVTZ
  Basis Set: (AUG-CC-PVTZ AUX)
    Blend: AUG-CC-PVTZ-JKFIT

    Orbital Energies [Eh]
    ---------------------

    Doubly Occupied:

       1A    -20.531861     2A    -15.569559     3A    -11.358600
       4A    -11.273736     5A    -11.250217     6A    -11.247519
       7A    -11.246380     8A    -11.207828     9A     -1.372204
      10A     -1.258790    11A     -1.101822    12A     -0.993676
      13A     -0.959482    14A     -0.876569    15A     -0.816525
      16A     -0.732264    17A     -0.690235    18A     -0.670449
      19A     -0.643113    20A     -0.609963    21A     -0.592505
      22A     -0.576431    23A     -0.561055    24A     -0.555683
      25A     -0.522048    26A     -0.515605    27A     -0.510446
      28A     -0.489032    29A     -0.478646    30A     -0.411874
      31A     -0.349726

  @DF-RHF Final Energy:  -363.04349146632825

   => Energetics <=

    Nuclear Repulsion Energy =            393.4776788162460548
    One-Electron Energy =               -1273.0946597464014758
    Two-Electron Energy =                 516.5734894638272863
    Total Energy =                       -363.0434914663281916
  Basis Set: (AUG-CC-PVTZ AUX)
    Blend: AUG-CC-PVTZ-RI
    Molecular point group: c1

    Geometry (in Angstrom), charge = 0, multiplicity = 1:

       Center              X                  Y                   Z               Mass
    ------------   -----------------  -----------------  -----------------  -----------------
         O           -0.008674813037     2.027232622011    -0.101064822395    15.994914619570
         N            0.364106286963    -0.343899477989    -0.334164822395    14.003074004430
         C           -0.489364813037    -1.477943377989    -0.016101822395    12.000000000000
         C           -1.948794813037    -1.001994377989    -0.035304822395    12.000000000000
         C           -1.847439813037     0.456318622011     0.414071177605    12.000000000000
         C           -0.456823813037     0.882913622011    -0.038006822395    12.000000000000
         C            1.663199186963    -0.228120377989    -0.608511822395    12.000000000000
         C            2.499359186963    -0.375051377989     0.659040177605    12.000000000000
         H           -0.204580813037    -1.864972377989     0.973857177605     1.007825032230
         H           -0.283915813037    -2.259811377989    -0.755703822395     1.007825032230
         H           -2.593709813037    -1.614744377989     0.599813177605     1.007825032230
         H           -2.331191813037    -1.052288377989    -1.059084822395     1.007825032230
         H           -1.890220813037     0.549524622011     1.506347177605     1.007825032230
         H           -2.609187813037     1.118534622011    -0.003494822395     1.007825032230
         H            1.896697186963    -1.021145377989    -1.328109822395     1.007825032230
         H            1.863767186963     0.735179622011    -1.083903822395     1.007825032230
         H            2.273934186963     0.444079622011     1.346174177605     1.007825032230
         H            2.294635186963    -1.323569377989     1.163386177605     1.007825032230
         H            3.566780186963    -0.342132377989     0.420418177605     1.007825032230

  Basis Set: AUG-CC-PVTZ
    Blend: AUG-CC-PVTZ
  Basis Set: (AUG-CC-PVTZ AUX)
    Blend: AUG-CC-PVTZ-JKFIT
	 Reference Energy          =    -363.0434914663282484 [Eh]
	 Singles Energy            =      -0.0000000000000000 [Eh]
	 Same-Spin Energy          =      -0.3790271706749054 [Eh]
	 Opposite-Spin Energy      =      -1.2508182183842165 [Eh]
	 Correlation Energy        =      -1.6298453890591218 [Eh]
	 Total Energy              =    -364.6733368553873902 [Eh]

	 ================> DF-SCS-MP2 Energies <==================
	-----------------------------------------------------------
	 SCS Same-Spin Scale       =       0.3333333333333333 [-]
	 SCS Opposite-Spin Scale   =       1.2000000000000000 [-]
	 SCS Same-Spin Energy      =      -0.1263423902249685 [Eh]
	 SCS Opposite-Spin Energy  =      -1.5009818620610598 [Eh]
	 SCS Correlation Energy    =      -1.6273242522860283 [Eh]
	 SCS Total Energy          =    -364.6708157186142785 [Eh]
	-----------------------------------------------------------

  Dipole Moment: [D]
     X:    -1.1284      Y:    -3.3460      Z:     0.3033     Total:     3.5442

*** Psi4 exiting successfully. Buy a developer a beer!
