                               Psi4 1.3.2 release

  ==> Input File <==

--------------------------------------------------------------------------
#psi4
#
memory 32 gb

molecule  {
0 1
  O       -0.0101440     2.0708820    -0.1140410
  N        0.2351990    -0.2177110    -0.3583720
  C       -0.4908340    -1.4342940    -0.0290780
  C       -1.9502640    -0.9583450    -0.0482810
  C       -1.8422816     0.5953236     0.4304786
  C       -0.4582930     0.9265630    -0.0509830
  C        1.6617300    -0.1844710    -0.6214880
  C        2.4978900    -0.3314020     0.6460640
  H       -0.2060500    -1.8213230     0.9608810
  H       -0.2853850    -2.2161620    -0.7686800
  H       -2.5951790    -1.5710950     0.5868370
  H       -2.3326610    -1.0086390    -1.0720610
  H       -1.8916900     0.5931740     1.4933710
  H       -2.6106570     1.1621840    -0.0164710
  H        1.8952280    -0.9774960    -1.3410860
  H        1.8622980     0.7788290    -1.0968800
  H        2.2724650     0.4877290     1.3331980
  H        2.2931660    -1.2799200     1.1504100
  H        3.5653110    -0.2984830     0.4074420
units angstrom
no_reorient  #important for SAPT in psi4, default
symmetry c1  #important for SAPT in psi4, default
}

set PROPERTIES_ORIGIN ["COM"]
properties('MP2/aug-cc-pvtz', properties = ['dipole'])
--------------------------------------------------------------------------

    Molecular point group: c1
  Charge       = 0
  Multiplicity = 1
  Basis Set: AUG-CC-PVTZ
    Blend: AUG-CC-PVTZ
  Basis Set: (AUG-CC-PVTZ AUX)
    Blend: AUG-CC-PVTZ-JKFIT

    Orbital Energies [Eh]
    ---------------------

    Doubly Occupied:

       1A    -20.509302     2A    -15.581993     3A    -11.340403
       4A    -11.274460     5A    -11.261389     6A    -11.245486
       7A    -11.238209     8A    -11.218833     9A     -1.366733
      10A     -1.256590    11A     -1.079382    12A     -0.997422
      13A     -0.975207    14A     -0.868147    15A     -0.833804
      16A     -0.726753    17A     -0.692402    18A     -0.665431
      19A     -0.644490    20A     -0.606382    21A     -0.597475
      22A     -0.572619    23A     -0.565331    24A     -0.547982
      25A     -0.522054    26A     -0.512480    27A     -0.497838
      28A     -0.492672    29A     -0.477442    30A     -0.407256
      31A     -0.369160

  @DF-RHF Final Energy:  -363.06880605042466

   => Energetics <=

    Nuclear Repulsion Energy =            393.5346573190192885
    One-Electron Energy =               -1273.3166711209059940
    Two-Electron Energy =                 516.7132077514620505
    Total Energy =                       -363.0688060504246550
  Basis Set: (AUG-CC-PVTZ AUX)
    Blend: AUG-CC-PVTZ-RI
    Molecular point group: c1

    Geometry (in Angstrom), charge = 0, multiplicity = 1:

       Center              X                  Y                   Z               Mass
    ------------   -----------------  -----------------  -----------------  -----------------
         O            0.006402433794     2.006893166170    -0.102792162826    15.994914619570
         N            0.251745433794    -0.281699833830    -0.347123162826    14.003074004430
         C           -0.474287566206    -1.498282833830    -0.017829162826    12.000000000000
         C           -1.933717566206    -1.022333833830    -0.037032162826    12.000000000000
         C           -1.825735166206     0.531334766170     0.441727437174    12.000000000000
         C           -0.441746566206     0.862574166170    -0.039734162826    12.000000000000
         C            1.678276433794    -0.248459833830    -0.610239162826    12.000000000000
         C            2.514436433794    -0.395390833830     0.657312837174    12.000000000000
         H           -0.189503566206    -1.885311833830     0.972129837174     1.007825032230
         H           -0.268838566206    -2.280150833830    -0.757431162826     1.007825032230
         H           -2.578632566206    -1.635083833830     0.598085837174     1.007825032230
         H           -2.316114566206    -1.072627833830    -1.060812162826     1.007825032230
         H           -1.875143566206     0.529185166170     1.504619837174     1.007825032230
         H           -2.594110566206     1.098195166170    -0.005222162826     1.007825032230
         H            1.911774433794    -1.041484833830    -1.329837162826     1.007825032230
         H            1.878844433794     0.714840166170    -1.085631162826     1.007825032230
         H            2.289011433794     0.423740166170     1.344446837174     1.007825032230
         H            2.309712433794    -1.343908833830     1.161658837174     1.007825032230
         H            3.581857433794    -0.362471833830     0.418690837174     1.007825032230

  Basis Set: AUG-CC-PVTZ
    Blend: AUG-CC-PVTZ
  Basis Set: (AUG-CC-PVTZ AUX)
    Blend: AUG-CC-PVTZ-JKFIT
	 Reference Energy          =    -363.0688060504246550 [Eh]
	 Singles Energy            =      -0.0000000000000000 [Eh]
	 Same-Spin Energy          =      -0.3763422337108538 [Eh]
	 Opposite-Spin Energy      =      -1.2469707793127940 [Eh]
	 Correlation Energy        =      -1.6233130130236477 [Eh]
	 Total Energy              =    -364.6921190634483310 [Eh]

	 ================> DF-SCS-MP2 Energies <==================
	-----------------------------------------------------------
	 SCS Same-Spin Scale       =       0.3333333333333333 [-]
	 SCS Opposite-Spin Scale   =       1.2000000000000000 [-]
	 SCS Same-Spin Energy      =      -0.1254474112369512 [Eh]
	 SCS Opposite-Spin Energy  =      -1.4963649351753527 [Eh]
	 SCS Correlation Energy    =      -1.6218123464123040 [Eh]
	 SCS Total Energy          =    -364.6906183968369533 [Eh]
	-----------------------------------------------------------

  Dipole Moment: [D]
     X:    -0.4749      Y:    -3.9301      Z:     0.2760     Total:     3.9683

*** Psi4 exiting successfully. Buy a developer a beer!
