                               Psi4 1.3.2 release

  ==> Input File <==

--------------------------------------------------------------------------
#psi4
#
memory 32 gb

molecule  {
0 1
  O       -0.0101440     2.0708820    -0.1140410
  N        0.2351990    -0.2177110    -0.3583720
  C       -0.5122637    -1.4207879    -0.0274064
  C       -1.9502640    -0.9583450    -0.0482810
  C       -1.8489090     0.4999680     0.4010950
  C       -0.4582930     0.9265630    -0.0509830
  C        1.6617300    -0.1844710    -0.6214880
  C        2.4978900    -0.3314020     0.6460640
  H       -0.2060500    -1.8213230     0.9608810
  H       -0.2853850    -2.2161620    -0.7686800
  H       -2.5951790    -1.5710950     0.5868370
  H       -2.3326610    -1.0086390    -1.0720610
  H       -1.8916900     0.5931740     1.4933710
  H       -2.6106570     1.1621840    -0.0164710
  H        1.8952280    -0.9774960    -1.3410860
  H        1.8622980     0.7788290    -1.0968800
  H        2.2724650     0.4877290     1.3331980
  H        2.2931660    -1.2799200     1.1504100
  H        3.5653110    -0.2984830     0.4074420
units angstrom
no_reorient  #important for SAPT in psi4, default
symmetry c1  #important for SAPT in psi4, default
}

set PROPERTIES_ORIGIN ["COM"]
properties('MP2/aug-cc-pvtz', properties = ['dipole'])
--------------------------------------------------------------------------

    Molecular point group: c1
  Charge       = 0
  Multiplicity = 1
  Basis Set: AUG-CC-PVTZ
    Blend: AUG-CC-PVTZ
  Basis Set: (AUG-CC-PVTZ AUX)
    Blend: AUG-CC-PVTZ-JKFIT

    Orbital Energies [Eh]
    ---------------------

    Doubly Occupied:

       1A    -20.511335     2A    -15.580869     3A    -11.340965
       4A    -11.275850     5A    -11.261561     6A    -11.241612
       7A    -11.240157     8A    -11.218794     9A     -1.366838
      10A     -1.259270    11A     -1.090555    12A     -1.001219
      13A     -0.972140    14A     -0.870664    15A     -0.828797
      16A     -0.726182    17A     -0.693647    18A     -0.667658
      19A     -0.638682    20A     -0.604694    21A     -0.587967
      22A     -0.570971    23A     -0.564303    24A     -0.556482
      25A     -0.522539    26A     -0.515116    27A     -0.509481
      28A     -0.492331    29A     -0.476389    30A     -0.409025
      31A     -0.368636

  @DF-RHF Final Energy:  -363.07511553556941

   => Energetics <=

    Nuclear Repulsion Energy =            394.5301328066946098
    One-Electron Energy =               -1275.2810408847403778
    Two-Electron Energy =                 517.6757925424764153
    Total Energy =                       -363.0751155355693527
  Basis Set: (AUG-CC-PVTZ AUX)
    Blend: AUG-CC-PVTZ-RI
    Molecular point group: c1

    Geometry (in Angstrom), charge = 0, multiplicity = 1:

       Center              X                  Y                   Z               Mass
    ------------   -----------------  -----------------  -----------------  -----------------
         O            0.009379733938     2.015578687060    -0.099851483226    15.994914619570
         N            0.254722733938    -0.273014312940    -0.344182483226    14.003074004430
         C           -0.492739966062    -1.476091212940    -0.013216883226    12.000000000000
         C           -1.930740266062    -1.013648312940    -0.034091483226    12.000000000000
         C           -1.829385266062     0.444664687060     0.415284516774    12.000000000000
         C           -0.438769266062     0.871259687060    -0.036793483226    12.000000000000
         C            1.681253733938    -0.239774312940    -0.607298483226    12.000000000000
         C            2.517413733938    -0.386705312940     0.660253516774    12.000000000000
         H           -0.186526266062    -1.876626312940     0.975070516774     1.007825032230
         H           -0.265861266062    -2.271465312940    -0.754490483226     1.007825032230
         H           -2.575655266062    -1.626398312940     0.601026516774     1.007825032230
         H           -2.313137266062    -1.063942312940    -1.057871483226     1.007825032230
         H           -1.872166266062     0.537870687060     1.507560516774     1.007825032230
         H           -2.591133266062     1.106880687060    -0.002281483226     1.007825032230
         H            1.914751733938    -1.032799312940    -1.326896483226     1.007825032230
         H            1.881821733938     0.723525687060    -1.082690483226     1.007825032230
         H            2.291988733938     0.432425687060     1.347387516774     1.007825032230
         H            2.312689733938    -1.335223312940     1.164599516774     1.007825032230
         H            3.584834733938    -0.353786312940     0.421631516774     1.007825032230

  Basis Set: AUG-CC-PVTZ
    Blend: AUG-CC-PVTZ
  Basis Set: (AUG-CC-PVTZ AUX)
    Blend: AUG-CC-PVTZ-JKFIT
	 Reference Energy          =    -363.0751155355694095 [Eh]
	 Singles Energy            =      -0.0000000000000000 [Eh]
	 Same-Spin Energy          =      -0.3769220140155609 [Eh]
	 Opposite-Spin Energy      =      -1.2470085253863810 [Eh]
	 Correlation Energy        =      -1.6239305394019419 [Eh]
	 Total Energy              =    -364.6990460749713634 [Eh]

	 ================> DF-SCS-MP2 Energies <==================
	-----------------------------------------------------------
	 SCS Same-Spin Scale       =       0.3333333333333333 [-]
	 SCS Opposite-Spin Scale   =       1.2000000000000000 [-]
	 SCS Same-Spin Energy      =      -0.1256406713385203 [Eh]
	 SCS Opposite-Spin Energy  =      -1.4964102304636571 [Eh]
	 SCS Correlation Energy    =      -1.6220509018021774 [Eh]
	 SCS Total Energy          =    -364.6971664373716067 [Eh]
	-----------------------------------------------------------

  Dipole Moment: [D]
     X:    -0.4705      Y:    -3.9352      Z:     0.2520     Total:     3.9712

*** Psi4 exiting successfully. Buy a developer a beer!
