                               Psi4 1.3.2 release

  ==> Input File <==

--------------------------------------------------------------------------
#psi4
#
memory 32 gb

molecule  {
0 1
  O       -0.0101440     2.0708820    -0.1140410
  N        0.2351990    -0.2177110    -0.3583720
  C       -0.4988709    -1.4585135    -0.0372473
  C       -1.9502640    -0.9583450    -0.0482810
  C       -1.8489090     0.4999680     0.4010950
  C       -0.4582930     0.9265630    -0.0509830
  C        1.6617300    -0.1844710    -0.6214880
  C        2.4978900    -0.3314020     0.6460640
  H       -0.2060500    -1.8213230     0.9608810
  H       -0.2853850    -2.2161620    -0.7686800
  H       -2.5951790    -1.5710950     0.5868370
  H       -2.3326610    -1.0086390    -1.0720610
  H       -1.8916900     0.5931740     1.4933710
  H       -2.6106570     1.1621840    -0.0164710
  H        1.8952280    -0.9774960    -1.3410860
  H        1.8622980     0.7788290    -1.0968800
  H        2.2724650     0.4877290     1.3331980
  H        2.2931660    -1.2799200     1.1504100
  H        3.5653110    -0.2984830     0.4074420
units angstrom
no_reorient  #important for SAPT in psi4, default
symmetry c1  #important for SAPT in psi4, default
}

set PROPERTIES_ORIGIN ["COM"]
properties('MP2/aug-cc-pvtz', properties = ['dipole'])
--------------------------------------------------------------------------

    Molecular point group: c1
  Charge       = 0
  Multiplicity = 1
  Basis Set: AUG-CC-PVTZ
    Blend: AUG-CC-PVTZ
  Basis Set: (AUG-CC-PVTZ AUX)
    Blend: AUG-CC-PVTZ-JKFIT

    Orbital Energies [Eh]
    ---------------------

    Doubly Occupied:

       1A    -20.510720     2A    -15.580385     3A    -11.340724
       4A    -11.275381     5A    -11.260043     6A    -11.242868
       7A    -11.240086     8A    -11.218136     9A     -1.365513
      10A     -1.253746    11A     -1.087241    12A     -0.999300
      13A     -0.973593    14A     -0.869033    15A     -0.829456
      16A     -0.724877    17A     -0.691242    18A     -0.668350
      19A     -0.639619    20A     -0.604045    21A     -0.589407
      22A     -0.572834    23A     -0.561549    24A     -0.553637
      25A     -0.521986    26A     -0.513205    27A     -0.512021
      28A     -0.489185    29A     -0.477599    30A     -0.408494
      31A     -0.369313

  @DF-RHF Final Energy:  -363.07520657171870

   => Energetics <=

    Nuclear Repulsion Energy =            393.8202359983541214
    One-Electron Energy =               -1273.9037054871866985
    Two-Electron Energy =                 517.0082629171139388
    Total Energy =                       -363.0752065717186952
  Basis Set: (AUG-CC-PVTZ AUX)
    Blend: AUG-CC-PVTZ-RI
    Molecular point group: c1

    Geometry (in Angstrom), charge = 0, multiplicity = 1:

       Center              X                  Y                   Z               Mass
    ------------   -----------------  -----------------  -----------------  -----------------
         O            0.007958546953     2.019581967311    -0.098807208765    15.994914619570
         N            0.253301546953    -0.269011032689    -0.343138208765    14.003074004430
         C           -0.480768353047    -1.509813532689    -0.022013508765    12.000000000000
         C           -1.932161453047    -1.009645032689    -0.033047208765    12.000000000000
         C           -1.830806453047     0.448667967311     0.416328791235    12.000000000000
         C           -0.440190453047     0.875262967311    -0.035749208765    12.000000000000
         C            1.679832546953    -0.235771032689    -0.606254208765    12.000000000000
         C            2.515992546953    -0.382702032689     0.661297791235    12.000000000000
         H           -0.187947453047    -1.872623032689     0.976114791235     1.007825032230
         H           -0.267282453047    -2.267462032689    -0.753446208765     1.007825032230
         H           -2.577076453047    -1.622395032689     0.602070791235     1.007825032230
         H           -2.314558453047    -1.059939032689    -1.056827208765     1.007825032230
         H           -1.873587453047     0.541873967311     1.508604791235     1.007825032230
         H           -2.592554453047     1.110883967311    -0.001237208765     1.007825032230
         H            1.913330546953    -1.028796032689    -1.325852208765     1.007825032230
         H            1.880400546953     0.727528967311    -1.081646208765     1.007825032230
         H            2.290567546953     0.436428967311     1.348431791235     1.007825032230
         H            2.311268546953    -1.331220032689     1.165643791235     1.007825032230
         H            3.583413546953    -0.349783032689     0.422675791235     1.007825032230

  Basis Set: AUG-CC-PVTZ
    Blend: AUG-CC-PVTZ
  Basis Set: (AUG-CC-PVTZ AUX)
    Blend: AUG-CC-PVTZ-JKFIT
	 Reference Energy          =    -363.0752065717186952 [Eh]
	 Singles Energy            =      -0.0000000000000000 [Eh]
	 Same-Spin Energy          =      -0.3766933155340636 [Eh]
	 Opposite-Spin Energy      =      -1.2470014067274455 [Eh]
	 Correlation Energy        =      -1.6236947222615092 [Eh]
	 Total Energy              =    -364.6989012939802137 [Eh]

	 ================> DF-SCS-MP2 Energies <==================
	-----------------------------------------------------------
	 SCS Same-Spin Scale       =       0.3333333333333333 [-]
	 SCS Opposite-Spin Scale   =       1.2000000000000000 [-]
	 SCS Same-Spin Energy      =      -0.1255644385113545 [Eh]
	 SCS Opposite-Spin Energy  =      -1.4964016880729345 [Eh]
	 SCS Correlation Energy    =      -1.6219661265842891 [Eh]
	 SCS Total Energy          =    -364.6971726983030067 [Eh]
	-----------------------------------------------------------

  Dipole Moment: [D]
     X:    -0.4865      Y:    -4.0124      Z:     0.2469     Total:     4.0493

*** Psi4 exiting successfully. Buy a developer a beer!
