                               Psi4 1.3.2 release

  ==> Input File <==

--------------------------------------------------------------------------
#psi4
#
memory 32 gb

molecule  {
0 1
  O       -0.0101440     2.0708820    -0.1140410
  N        0.2351990    -0.2177110    -0.3583720
  C       -0.4908340    -1.4342940    -0.0290780
  C       -1.9289257    -0.9641855    -0.0333474
  C       -1.8489090     0.4999680     0.4010950
  C       -0.4582930     0.9265630    -0.0509830
  C        1.6617300    -0.1844710    -0.6214880
  C        2.4978900    -0.3314020     0.6460640
  H       -0.2060500    -1.8213230     0.9608810
  H       -0.2853850    -2.2161620    -0.7686800
  H       -2.5951790    -1.5710950     0.5868370
  H       -2.3326610    -1.0086390    -1.0720610
  H       -1.8916900     0.5931740     1.4933710
  H       -2.6106570     1.1621840    -0.0164710
  H        1.8952280    -0.9774960    -1.3410860
  H        1.8622980     0.7788290    -1.0968800
  H        2.2724650     0.4877290     1.3331980
  H        2.2931660    -1.2799200     1.1504100
  H        3.5653110    -0.2984830     0.4074420
units angstrom
no_reorient  #important for SAPT in psi4, default
symmetry c1  #important for SAPT in psi4, default
}

set PROPERTIES_ORIGIN ["COM"]
properties('MP2/aug-cc-pvtz', properties = ['dipole'])
--------------------------------------------------------------------------

    Molecular point group: c1
  Charge       = 0
  Multiplicity = 1
  Basis Set: AUG-CC-PVTZ
    Blend: AUG-CC-PVTZ
  Basis Set: (AUG-CC-PVTZ AUX)
    Blend: AUG-CC-PVTZ-JKFIT

    Orbital Energies [Eh]
    ---------------------

    Doubly Occupied:

       1A    -20.511568     2A    -15.581175     3A    -11.341396
       4A    -11.274280     5A    -11.261017     6A    -11.243101
       7A    -11.240064     8A    -11.218725     9A     -1.366999
      10A     -1.259524    11A     -1.089272    12A     -1.000352
      13A     -0.974490    14A     -0.869730    15A     -0.828065
      16A     -0.727097    17A     -0.693643    18A     -0.668647
      19A     -0.639475    20A     -0.603959    21A     -0.589091
      22A     -0.572207    23A     -0.562739    24A     -0.555509
      25A     -0.521355    26A     -0.515126    27A     -0.511271
      28A     -0.492016    29A     -0.473870    30A     -0.409152
      31A     -0.369744

  @DF-RHF Final Energy:  -363.07510745742223

   => Energetics <=

    Nuclear Repulsion Energy =            394.6007687360763043
    One-Electron Energy =               -1275.4224337908287907
    Two-Electron Energy =                 517.7465575973302521
    Total Energy =                       -363.0751074574221775
  Basis Set: (AUG-CC-PVTZ AUX)
    Blend: AUG-CC-PVTZ-RI
    Molecular point group: c1

    Geometry (in Angstrom), charge = 0, multiplicity = 1:

       Center              X                  Y                   Z               Mass
    ------------   -----------------  -----------------  -----------------  -----------------
         O            0.004841375642     2.017631665984    -0.101258790272    15.994914619570
         N            0.250184375642    -0.270961334016    -0.345589790272    14.003074004430
         C           -0.475848624358    -1.487544334016    -0.016295790272    12.000000000000
         C           -1.913940324358    -1.017435834016    -0.020565190272    12.000000000000
         C           -1.833923624358     0.446717665984     0.413877209728    12.000000000000
         C           -0.443307624358     0.873312665984    -0.038200790272    12.000000000000
         C            1.676715375642    -0.237721334016    -0.608705790272    12.000000000000
         C            2.512875375642    -0.384652334016     0.658846209728    12.000000000000
         H           -0.191064624358    -1.874573334016     0.973663209728     1.007825032230
         H           -0.270399624358    -2.269412334016    -0.755897790272     1.007825032230
         H           -2.580193624358    -1.624345334016     0.599619209728     1.007825032230
         H           -2.317675624358    -1.061889334016    -1.059278790272     1.007825032230
         H           -1.876704624358     0.539923665984     1.506153209728     1.007825032230
         H           -2.595671624358     1.108933665984    -0.003688790272     1.007825032230
         H            1.910213375642    -1.030746334016    -1.328303790272     1.007825032230
         H            1.877283375642     0.725578665984    -1.084097790272     1.007825032230
         H            2.287450375642     0.434478665984     1.345980209728     1.007825032230
         H            2.308151375642    -1.333170334016     1.163192209728     1.007825032230
         H            3.580296375642    -0.351733334016     0.420224209728     1.007825032230

  Basis Set: AUG-CC-PVTZ
    Blend: AUG-CC-PVTZ
  Basis Set: (AUG-CC-PVTZ AUX)
    Blend: AUG-CC-PVTZ-JKFIT
	 Reference Energy          =    -363.0751074574222343 [Eh]
	 Singles Energy            =      -0.0000000000000000 [Eh]
	 Same-Spin Energy          =      -0.3768968578829215 [Eh]
	 Opposite-Spin Energy      =      -1.2470090792295991 [Eh]
	 Correlation Energy        =      -1.6239059371125206 [Eh]
	 Total Energy              =    -364.6990133945347452 [Eh]

	 ================> DF-SCS-MP2 Energies <==================
	-----------------------------------------------------------
	 SCS Same-Spin Scale       =       0.3333333333333333 [-]
	 SCS Opposite-Spin Scale   =       1.2000000000000000 [-]
	 SCS Same-Spin Energy      =      -0.1256322859609738 [Eh]
	 SCS Opposite-Spin Energy  =      -1.4964108950755188 [Eh]
	 SCS Correlation Energy    =      -1.6220431810364926 [Eh]
	 SCS Total Energy          =    -364.6971506384587087 [Eh]
	-----------------------------------------------------------

  Dipole Moment: [D]
     X:    -0.4589      Y:    -3.9457      Z:     0.2638     Total:     3.9810

*** Psi4 exiting successfully. Buy a developer a beer!
