                               Psi4 1.3.2 release

  ==> Input File <==

--------------------------------------------------------------------------
#psi4
#
memory 32 gb

molecule  {
0 1
  O       -0.0101440     2.0708820    -0.1140410
  N        0.2589384    -0.2208196    -0.3136020
  C       -0.4908340    -1.4342940    -0.0290780
  C       -1.9502640    -0.9583450    -0.0482810
  C       -1.8489090     0.4999680     0.4010950
  C       -0.4582930     0.9265630    -0.0509830
  C        1.6617300    -0.1844710    -0.6214880
  C        2.4978900    -0.3314020     0.6460640
  H       -0.2060500    -1.8213230     0.9608810
  H       -0.2853850    -2.2161620    -0.7686800
  H       -2.5951790    -1.5710950     0.5868370
  H       -2.3326610    -1.0086390    -1.0720610
  H       -1.8916900     0.5931740     1.4933710
  H       -2.6106570     1.1621840    -0.0164710
  H        1.8952280    -0.9774960    -1.3410860
  H        1.8622980     0.7788290    -1.0968800
  H        2.2724650     0.4877290     1.3331980
  H        2.2931660    -1.2799200     1.1504100
  H        3.5653110    -0.2984830     0.4074420
units angstrom
no_reorient  #important for SAPT in psi4, default
symmetry c1  #important for SAPT in psi4, default
}

set PROPERTIES_ORIGIN ["COM"]
properties('MP2/aug-cc-pvtz', properties = ['dipole'])
--------------------------------------------------------------------------

    Molecular point group: c1
  Charge       = 0
  Multiplicity = 1
  Basis Set: AUG-CC-PVTZ
    Blend: AUG-CC-PVTZ
  Basis Set: (AUG-CC-PVTZ AUX)
    Blend: AUG-CC-PVTZ-JKFIT

    Orbital Energies [Eh]
    ---------------------

    Doubly Occupied:

       1A    -20.511545     2A    -15.579926     3A    -11.342002
       4A    -11.275095     5A    -11.259902     6A    -11.243229
       7A    -11.240685     8A    -11.216902     9A     -1.366654
      10A     -1.258830    11A     -1.089901    12A     -0.999513
      13A     -0.971515    14A     -0.870654    15A     -0.829336
      16A     -0.728238    17A     -0.692361    18A     -0.668551
      19A     -0.640129    20A     -0.605384    21A     -0.587600
      22A     -0.573186    23A     -0.563745    24A     -0.554884
      25A     -0.520767    26A     -0.515840    27A     -0.509655
      28A     -0.490625    29A     -0.477020    30A     -0.409096
      31A     -0.366607

  @DF-RHF Final Energy:  -363.07514748991508

   => Energetics <=

    Nuclear Repulsion Energy =            394.4596248541798218
    One-Electron Energy =               -1275.1507909866429600
    Two-Electron Energy =                 517.6160186425480561
    Total Energy =                       -363.0751474899151390
  Basis Set: (AUG-CC-PVTZ AUX)
    Blend: AUG-CC-PVTZ-RI
    Molecular point group: c1

    Geometry (in Angstrom), charge = 0, multiplicity = 1:

       Center              X                  Y                   Z               Mass
    ------------   -----------------  -----------------  -----------------  -----------------
         O            0.004166081773     2.017396831444    -0.105217919502    15.994914619570
         N            0.273248481773    -0.274304768556    -0.304778919502    14.003074004430
         C           -0.476523918227    -1.487779168556    -0.020254919502    12.000000000000
         C           -1.935953918227    -1.011830168556    -0.039457919502    12.000000000000
         C           -1.834598918227     0.446482831444     0.409918080498    12.000000000000
         C           -0.443982918227     0.873077831444    -0.042159919502    12.000000000000
         C            1.676040081773    -0.237956168556    -0.612664919502    12.000000000000
         C            2.512200081773    -0.384887168556     0.654887080498    12.000000000000
         H           -0.191739918227    -1.874808168556     0.969704080498     1.007825032230
         H           -0.271074918227    -2.269647168556    -0.759856919502     1.007825032230
         H           -2.580868918227    -1.624580168556     0.595660080498     1.007825032230
         H           -2.318350918227    -1.062124168556    -1.063237919502     1.007825032230
         H           -1.877379918227     0.539688831444     1.502194080498     1.007825032230
         H           -2.596346918227     1.108698831444    -0.007647919502     1.007825032230
         H            1.909538081773    -1.030981168556    -1.332262919502     1.007825032230
         H            1.876608081773     0.725343831444    -1.088056919502     1.007825032230
         H            2.286775081773     0.434243831444     1.342021080498     1.007825032230
         H            2.307476081773    -1.333405168556     1.159233080498     1.007825032230
         H            3.579621081773    -0.351968168556     0.416265080498     1.007825032230

  Basis Set: AUG-CC-PVTZ
    Blend: AUG-CC-PVTZ
  Basis Set: (AUG-CC-PVTZ AUX)
    Blend: AUG-CC-PVTZ-JKFIT
	 Reference Energy          =    -363.0751474899150821 [Eh]
	 Singles Energy            =      -0.0000000000000000 [Eh]
	 Same-Spin Energy          =      -0.3769276061389504 [Eh]
	 Opposite-Spin Energy      =      -1.2470619088221153 [Eh]
	 Correlation Energy        =      -1.6239895149610657 [Eh]
	 Total Energy              =    -364.6991370048761496 [Eh]

	 ================> DF-SCS-MP2 Energies <==================
	-----------------------------------------------------------
	 SCS Same-Spin Scale       =       0.3333333333333333 [-]
	 SCS Opposite-Spin Scale   =       1.2000000000000000 [-]
	 SCS Same-Spin Energy      =      -0.1256425353796501 [Eh]
	 SCS Opposite-Spin Energy  =      -1.4964742905865382 [Eh]
	 SCS Correlation Energy    =      -1.6221168259661884 [Eh]
	 SCS Total Energy          =    -364.6972643158812843 [Eh]
	-----------------------------------------------------------

  Dipole Moment: [D]
     X:    -0.5308      Y:    -3.9510      Z:     0.1838     Total:     3.9907

*** Psi4 exiting successfully. Buy a developer a beer!
