                               Psi4 1.3.2 release

  ==> Input File <==

--------------------------------------------------------------------------
#psi4
#
memory 32 gb

molecule  {
0 1
  O       -0.0101440     2.0708820    -0.1140410
  N        0.2351990    -0.2177110    -0.3583720
  C       -0.4908340    -1.4342940    -0.0290780
  C       -1.9502640    -0.9583450    -0.0482810
  C       -1.8489090     0.4999680     0.4010950
  C       -0.5296887     1.0442583    -0.1314240
  C        1.6617300    -0.1844710    -0.6214880
  C        2.4978900    -0.3314020     0.6460640
  H       -0.2060500    -1.8213230     0.9608810
  H       -0.2853850    -2.2161620    -0.7686800
  H       -2.5951790    -1.5710950     0.5868370
  H       -2.3326610    -1.0086390    -1.0720610
  H       -1.8916900     0.5931740     1.4933710
  H       -2.6106570     1.1621840    -0.0164710
  H        1.8952280    -0.9774960    -1.3410860
  H        1.8622980     0.7788290    -1.0968800
  H        2.2724650     0.4877290     1.3331980
  H        2.2931660    -1.2799200     1.1504100
  H        3.5653110    -0.2984830     0.4074420
units angstrom
no_reorient  #important for SAPT in psi4, default
symmetry c1  #important for SAPT in psi4, default
}

set PROPERTIES_ORIGIN ["COM"]
properties('MP2/aug-cc-pvtz', properties = ['dipole'])
--------------------------------------------------------------------------

    Molecular point group: c1
  Charge       = 0
  Multiplicity = 1
  Basis Set: AUG-CC-PVTZ
    Blend: AUG-CC-PVTZ
  Basis Set: (AUG-CC-PVTZ AUX)
    Blend: AUG-CC-PVTZ-JKFIT

    Orbital Energies [Eh]
    ---------------------

    Doubly Occupied:

       1A    -20.538904     2A    -15.556836     3A    -11.348784
       4A    -11.264355     5A    -11.250110     6A    -11.243941
       7A    -11.240433     8A    -11.210757     9A     -1.429540
      10A     -1.230700    11A     -1.079900    12A     -0.989049
      13A     -0.960849    14A     -0.857314    15A     -0.813611
      16A     -0.724674    17A     -0.685418    18A     -0.673974
      19A     -0.639862    20A     -0.608441    21A     -0.591063
      22A     -0.583549    23A     -0.571395    24A     -0.552301
      25A     -0.523479    26A     -0.506141    27A     -0.504667
      28A     -0.490363    29A     -0.480487    30A     -0.411248
      31A     -0.352334

  @DF-RHF Final Energy:  -363.05497415711841

   => Energetics <=

    Nuclear Repulsion Energy =            393.1335608492969413
    One-Electron Energy =               -1272.5481158807031079
    Two-Electron Energy =                 516.3595808742877580
    Total Energy =                       -363.0549741571184086
  Basis Set: (AUG-CC-PVTZ AUX)
    Blend: AUG-CC-PVTZ-RI
    Molecular point group: c1

    Geometry (in Angstrom), charge = 0, multiplicity = 1:

       Center              X                  Y                   Z               Mass
    ------------   -----------------  -----------------  -----------------  -----------------
         O            0.014681913387     2.004522572202    -0.091138043283    15.994914619570
         N            0.260024913387    -0.284070427798    -0.335469043283    14.003074004430
         C           -0.466008086613    -1.500653427798    -0.006175043283    12.000000000000
         C           -1.925438086613    -1.024704427798    -0.025378043283    12.000000000000
         C           -1.824083086613     0.433608572202     0.423997956717    12.000000000000
         C           -0.504862786613     0.977898872202    -0.108521043283    12.000000000000
         C            1.686555913387    -0.250830427798    -0.598585043283    12.000000000000
         C            2.522715913387    -0.397761427798     0.668966956717    12.000000000000
         H           -0.181224086613    -1.887682427798     0.983783956717     1.007825032230
         H           -0.260559086613    -2.282521427798    -0.745777043283     1.007825032230
         H           -2.570353086613    -1.637454427798     0.609739956717     1.007825032230
         H           -2.307835086613    -1.074998427798    -1.049158043283     1.007825032230
         H           -1.866864086613     0.526814572202     1.516273956717     1.007825032230
         H           -2.585831086613     1.095824572202     0.006431956717     1.007825032230
         H            1.920053913387    -1.043855427798    -1.318183043283     1.007825032230
         H            1.887123913387     0.712469572202    -1.073977043283     1.007825032230
         H            2.297290913387     0.421369572202     1.356100956717     1.007825032230
         H            2.317991913387    -1.346279427798     1.173312956717     1.007825032230
         H            3.590136913387    -0.364842427798     0.430344956717     1.007825032230

  Basis Set: AUG-CC-PVTZ
    Blend: AUG-CC-PVTZ
  Basis Set: (AUG-CC-PVTZ AUX)
    Blend: AUG-CC-PVTZ-JKFIT
	 Reference Energy          =    -363.0549741571184086 [Eh]
	 Singles Energy            =      -0.0000000000000000 [Eh]
	 Same-Spin Energy          =      -0.3763669713669882 [Eh]
	 Opposite-Spin Energy      =      -1.2462013115546289 [Eh]
	 Correlation Energy        =      -1.6225682829216170 [Eh]
	 Total Energy              =    -364.6775424400400425 [Eh]

	 ================> DF-SCS-MP2 Energies <==================
	-----------------------------------------------------------
	 SCS Same-Spin Scale       =       0.3333333333333333 [-]
	 SCS Opposite-Spin Scale   =       1.2000000000000000 [-]
	 SCS Same-Spin Energy      =      -0.1254556571223294 [Eh]
	 SCS Opposite-Spin Energy  =      -1.4954415738655547 [Eh]
	 SCS Correlation Energy    =      -1.6208972309878840 [Eh]
	 SCS Total Energy          =    -364.6758713881063159 [Eh]
	-----------------------------------------------------------

  Dipole Moment: [D]
     X:    -0.8396      Y:    -2.8511      Z:     0.2927     Total:     2.9865

*** Psi4 exiting successfully. Buy a developer a beer!
