                               Psi4 1.3.2 release

  ==> Input File <==

--------------------------------------------------------------------------
#psi4
#
memory 32 gb

molecule  {
0 1
  O       -0.0101440     2.0708820    -0.1140410
  N        0.2351990    -0.2177110    -0.3583720
  C       -0.4908340    -1.4342940    -0.0290780
  C       -2.0974370    -0.9587346     0.0146897
  C       -1.8489090     0.4999680     0.4010950
  C       -0.4582930     0.9265630    -0.0509830
  C        1.6617300    -0.1844710    -0.6214880
  C        2.4978900    -0.3314020     0.6460640
  H       -0.2060500    -1.8213230     0.9608810
  H       -0.2853850    -2.2161620    -0.7686800
  H       -2.5951790    -1.5710950     0.5868370
  H       -2.3326610    -1.0086390    -1.0720610
  H       -1.8916900     0.5931740     1.4933710
  H       -2.6106570     1.1621840    -0.0164710
  H        1.8952280    -0.9774960    -1.3410860
  H        1.8622980     0.7788290    -1.0968800
  H        2.2724650     0.4877290     1.3331980
  H        2.2931660    -1.2799200     1.1504100
  H        3.5653110    -0.2984830     0.4074420
units angstrom
no_reorient  #important for SAPT in psi4, default
symmetry c1  #important for SAPT in psi4, default
}

set PROPERTIES_ORIGIN ["COM"]
properties('MP2/aug-cc-pvtz', properties = ['dipole'])
--------------------------------------------------------------------------

    Molecular point group: c1
  Charge       = 0
  Multiplicity = 1
  Basis Set: AUG-CC-PVTZ
    Blend: AUG-CC-PVTZ
  Basis Set: (AUG-CC-PVTZ AUX)
    Blend: AUG-CC-PVTZ-JKFIT

    Orbital Energies [Eh]
    ---------------------

    Doubly Occupied:

       1A    -20.513597     2A    -15.581870     3A    -11.343906
       4A    -11.278674     5A    -11.261645     6A    -11.243816
       7A    -11.242015     8A    -11.218513     9A     -1.367655
      10A     -1.253896    11A     -1.081516    12A     -1.003356
      13A     -0.960822    14A     -0.875939    15A     -0.837085
      16A     -0.724853    17A     -0.691952    18A     -0.660863
      19A     -0.646660    20A     -0.611845    21A     -0.591160
      22A     -0.574606    23A     -0.571003    24A     -0.556495
      25A     -0.530109    26A     -0.512710    27A     -0.499122
      28A     -0.481151    29A     -0.457447    30A     -0.414742
      31A     -0.368142

  @DF-RHF Final Energy:  -363.05050644853287

   => Energetics <=

    Nuclear Repulsion Energy =            392.0008569119323170
    One-Electron Energy =               -1270.1883992897169264
    Two-Electron Energy =                 515.1370359292517378
    Total Energy =                       -363.0505064485329285
  Basis Set: (AUG-CC-PVTZ AUX)
    Blend: AUG-CC-PVTZ-RI
    Molecular point group: c1

    Geometry (in Angstrom), charge = 0, multiplicity = 1:

       Center              X                  Y                   Z               Mass
    ------------   -----------------  -----------------  -----------------  -----------------
         O            0.022723078234     2.017053239655    -0.106356283055    15.994914619570
         N            0.268066078234    -0.271539760345    -0.350687283055    14.003074004430
         C           -0.457966921766    -1.488122760345    -0.021393283055    12.000000000000
         C           -2.064569921766    -1.012563360345     0.022374416945    12.000000000000
         C           -1.816041921766     0.446139239655     0.408779716945    12.000000000000
         C           -0.425425921766     0.872734239655    -0.043298283055    12.000000000000
         C            1.694597078234    -0.238299760345    -0.613803283055    12.000000000000
         C            2.530757078234    -0.385230760345     0.653748716945    12.000000000000
         H           -0.173182921766    -1.875151760345     0.968565716945     1.007825032230
         H           -0.252517921766    -2.269990760345    -0.760995283055     1.007825032230
         H           -2.562311921766    -1.624923760345     0.594521716945     1.007825032230
         H           -2.299793921766    -1.062467760345    -1.064376283055     1.007825032230
         H           -1.858822921766     0.539345239655     1.501055716945     1.007825032230
         H           -2.577789921766     1.108355239655    -0.008786283055     1.007825032230
         H            1.928095078234    -1.031324760345    -1.333401283055     1.007825032230
         H            1.895165078234     0.725000239655    -1.089195283055     1.007825032230
         H            2.305332078234     0.433900239655     1.340882716945     1.007825032230
         H            2.326033078234    -1.333748760345     1.158094716945     1.007825032230
         H            3.598178078234    -0.352311760345     0.415126716945     1.007825032230

  Basis Set: AUG-CC-PVTZ
    Blend: AUG-CC-PVTZ
  Basis Set: (AUG-CC-PVTZ AUX)
    Blend: AUG-CC-PVTZ-JKFIT
	 Reference Energy          =    -363.0505064485328717 [Eh]
	 Singles Energy            =      -0.0000000000000000 [Eh]
	 Same-Spin Energy          =      -0.3769899549669431 [Eh]
	 Opposite-Spin Energy      =      -1.2483891289241966 [Eh]
	 Correlation Energy        =      -1.6253790838911397 [Eh]
	 Total Energy              =    -364.6758855324239903 [Eh]

	 ================> DF-SCS-MP2 Energies <==================
	-----------------------------------------------------------
	 SCS Same-Spin Scale       =       0.3333333333333333 [-]
	 SCS Opposite-Spin Scale   =       1.2000000000000000 [-]
	 SCS Same-Spin Energy      =      -0.1256633183223144 [Eh]
	 SCS Opposite-Spin Energy  =      -1.4980669547090359 [Eh]
	 SCS Correlation Energy    =      -1.6237302730313503 [Eh]
	 SCS Total Energy          =    -364.6742367215642275 [Eh]
	-----------------------------------------------------------

  Dipole Moment: [D]
     X:    -0.4453      Y:    -3.9456      Z:     0.2847     Total:     3.9809

*** Psi4 exiting successfully. Buy a developer a beer!
