                               Psi4 1.3.2 release

  ==> Input File <==

--------------------------------------------------------------------------
#psi4
#
memory 32 gb

molecule  {
0 1
  O       -0.0101440     2.0708820    -0.1140410
  N        0.2351990    -0.2177110    -0.3583720
  C       -0.4908340    -1.4342940    -0.0290780
  C       -1.9502640    -0.9583450    -0.0482810
  C       -1.8489090     0.4999680     0.4010950
  C       -0.4582930     0.9265630    -0.0509830
  C        1.6617300    -0.1844710    -0.6214880
  C        2.4978900    -0.3314020     0.6460640
  H       -0.1954405    -1.8542584     0.9442075
  H       -0.2853850    -2.2161620    -0.7686800
  H       -2.5951790    -1.5710950     0.5868370
  H       -2.3326610    -1.0086390    -1.0720610
  H       -1.8916900     0.5931740     1.4933710
  H       -2.6106570     1.1621840    -0.0164710
  H        1.8952280    -0.9774960    -1.3410860
  H        1.8622980     0.7788290    -1.0968800
  H        2.2724650     0.4877290     1.3331980
  H        2.2931660    -1.2799200     1.1504100
  H        3.5653110    -0.2984830     0.4074420
units angstrom
no_reorient  #important for SAPT in psi4, default
symmetry c1  #important for SAPT in psi4, default
}

set PROPERTIES_ORIGIN ["COM"]
properties('MP2/aug-cc-pvtz', properties = ['dipole'])
--------------------------------------------------------------------------

    Molecular point group: c1
  Charge       = 0
  Multiplicity = 1
  Basis Set: AUG-CC-PVTZ
    Blend: AUG-CC-PVTZ
  Basis Set: (AUG-CC-PVTZ AUX)
    Blend: AUG-CC-PVTZ-JKFIT

    Orbital Energies [Eh]
    ---------------------

    Doubly Occupied:

       1A    -20.511758     2A    -15.581387     3A    -11.341500
       4A    -11.274796     5A    -11.260975     6A    -11.242666
       7A    -11.239978     8A    -11.218703     9A     -1.366988
      10A     -1.258497    11A     -1.087823    12A     -1.000557
      13A     -0.972211    14A     -0.870268    15A     -0.829814
      16A     -0.726669    17A     -0.693147    18A     -0.667660
      19A     -0.639469    20A     -0.604585    21A     -0.589262
      22A     -0.571719    23A     -0.563155    24A     -0.554805
      25A     -0.523042    26A     -0.513083    27A     -0.509687
      28A     -0.490187    29A     -0.477245    30A     -0.409580
      31A     -0.369633

  @DF-RHF Final Energy:  -363.07581175051462

   => Energetics <=

    Nuclear Repulsion Energy =            394.2366744342320999
    One-Electron Energy =               -1274.7032742919204793
    Two-Electron Energy =                 517.3907881071737620
    Total Energy =                       -363.0758117505146174
  Basis Set: (AUG-CC-PVTZ AUX)
    Blend: AUG-CC-PVTZ-RI
    Molecular point group: c1

    Geometry (in Angstrom), charge = 0, multiplicity = 1:

       Center              X                  Y                   Z               Mass
    ------------   -----------------  -----------------  -----------------  -----------------
         O            0.007011151574     2.017305423027    -0.099525502983    15.994914619570
         N            0.252354151574    -0.271287576973    -0.343856502983    14.003074004430
         C           -0.473678848426    -1.487870576973    -0.014562502983    12.000000000000
         C           -1.933108848426    -1.011921576973    -0.033765502983    12.000000000000
         C           -1.831753848426     0.446391423027     0.415610497017    12.000000000000
         C           -0.441137848426     0.872986423027    -0.036467502983    12.000000000000
         C            1.678885151574    -0.238047576973    -0.606972502983    12.000000000000
         C            2.515045151574    -0.384978576973     0.660579497017    12.000000000000
         H           -0.178285348426    -1.907834976973     0.958722997017     1.007825032230
         H           -0.268229848426    -2.269738576973    -0.754164502983     1.007825032230
         H           -2.578023848426    -1.624671576973     0.601352497017     1.007825032230
         H           -2.315505848426    -1.062215576973    -1.057545502983     1.007825032230
         H           -1.874534848426     0.539597423027     1.507886497017     1.007825032230
         H           -2.593501848426     1.108607423027    -0.001955502983     1.007825032230
         H            1.912383151574    -1.031072576973    -1.326570502983     1.007825032230
         H            1.879453151574     0.725252423027    -1.082364502983     1.007825032230
         H            2.289620151574     0.434152423027     1.347713497017     1.007825032230
         H            2.310321151574    -1.333496576973     1.164925497017     1.007825032230
         H            3.582466151574    -0.352059576973     0.421957497017     1.007825032230

  Basis Set: AUG-CC-PVTZ
    Blend: AUG-CC-PVTZ
  Basis Set: (AUG-CC-PVTZ AUX)
    Blend: AUG-CC-PVTZ-JKFIT
	 Reference Energy          =    -363.0758117505146174 [Eh]
	 Singles Energy            =      -0.0000000000000000 [Eh]
	 Same-Spin Energy          =      -0.3767619122758127 [Eh]
	 Opposite-Spin Energy      =      -1.2468716748307838 [Eh]
	 Correlation Energy        =      -1.6236335871065966 [Eh]
	 Total Energy              =    -364.6994453376212277 [Eh]

	 ================> DF-SCS-MP2 Energies <==================
	-----------------------------------------------------------
	 SCS Same-Spin Scale       =       0.3333333333333333 [-]
	 SCS Opposite-Spin Scale   =       1.2000000000000000 [-]
	 SCS Same-Spin Energy      =      -0.1255873040919376 [Eh]
	 SCS Opposite-Spin Energy  =      -1.4962460097969406 [Eh]
	 SCS Correlation Energy    =      -1.6218333138888781 [Eh]
	 SCS Total Energy          =    -364.6976450644035026 [Eh]
	-----------------------------------------------------------

  Dipole Moment: [D]
     X:    -0.4581      Y:    -3.9456      Z:     0.2544     Total:     3.9802

*** Psi4 exiting successfully. Buy a developer a beer!
