                               Psi4 1.3.2 release

  ==> Input File <==

--------------------------------------------------------------------------
#psi4
#
memory 32 gb

molecule  {
0 1
  O       -0.0101440     2.0708820    -0.1140410
  N        0.2351990    -0.2177110    -0.3583720
  C       -0.4908340    -1.4342940    -0.0290780
  C       -1.9502640    -0.9583450    -0.0482810
  C       -1.8489090     0.4999680     0.4010950
  C       -0.5495881     0.8985567    -0.0213037
  C        1.6617300    -0.1844710    -0.6214880
  C        2.4978900    -0.3314020     0.6460640
  H       -0.2060500    -1.8213230     0.9608810
  H       -0.2853850    -2.2161620    -0.7686800
  H       -2.5951790    -1.5710950     0.5868370
  H       -2.3326610    -1.0086390    -1.0720610
  H       -1.8916900     0.5931740     1.4933710
  H       -2.6106570     1.1621840    -0.0164710
  H        1.8952280    -0.9774960    -1.3410860
  H        1.8622980     0.7788290    -1.0968800
  H        2.2724650     0.4877290     1.3331980
  H        2.2931660    -1.2799200     1.1504100
  H        3.5653110    -0.2984830     0.4074420
units angstrom
no_reorient  #important for SAPT in psi4, default
symmetry c1  #important for SAPT in psi4, default
}

set PROPERTIES_ORIGIN ["COM"]
properties('MP2/aug-cc-pvtz', properties = ['dipole'])
--------------------------------------------------------------------------

    Molecular point group: c1
  Charge       = 0
  Multiplicity = 1
  Basis Set: AUG-CC-PVTZ
    Blend: AUG-CC-PVTZ
  Basis Set: (AUG-CC-PVTZ AUX)
    Blend: AUG-CC-PVTZ-JKFIT

    Orbital Energies [Eh]
    ---------------------

    Doubly Occupied:

       1A    -20.506026     2A    -15.582040     3A    -11.348644
       4A    -11.273562     5A    -11.260818     6A    -11.247676
       7A    -11.244468     8A    -11.217220     9A     -1.336450
      10A     -1.243430    11A     -1.100853    12A     -1.003676
      13A     -0.979753    14A     -0.871224    15A     -0.832905
      16A     -0.730766    17A     -0.694581    18A     -0.667747
      19A     -0.634880    20A     -0.606945    21A     -0.594943
      22A     -0.566396    23A     -0.562973    24A     -0.545122
      25A     -0.522764    26A     -0.514791    27A     -0.511972
      28A     -0.487306    29A     -0.464507    30A     -0.411499
      31A     -0.362555

  @DF-RHF Final Energy:  -363.05539951280565

   => Energetics <=

    Nuclear Repulsion Energy =            393.8856721885240972
    One-Electron Energy =               -1274.0251543093741020
    Two-Electron Energy =                 517.0840826080443549
    Total Energy =                       -363.0553995128057068
  Basis Set: (AUG-CC-PVTZ AUX)
    Blend: AUG-CC-PVTZ-RI
    Molecular point group: c1

    Geometry (in Angstrom), charge = 0, multiplicity = 1:

       Center              X                  Y                   Z               Mass
    ------------   -----------------  -----------------  -----------------  -----------------
         O            0.016793553097     2.019983806424    -0.102823541253    15.994914619570
         N            0.262136553097    -0.268609193576    -0.347154541253    14.003074004430
         C           -0.463896446903    -1.485192193576    -0.017860541253    12.000000000000
         C           -1.923326446903    -1.009243193576    -0.037063541253    12.000000000000
         C           -1.821971446903     0.449069806424     0.412312458747    12.000000000000
         C           -0.522650546903     0.847658506424    -0.010086241253    12.000000000000
         C            1.688667553097    -0.235369193576    -0.610270541253    12.000000000000
         C            2.524827553097    -0.382300193576     0.657281458747    12.000000000000
         H           -0.179112446903    -1.872221193576     0.972098458747     1.007825032230
         H           -0.258447446903    -2.267060193576    -0.757462541253     1.007825032230
         H           -2.568241446903    -1.621993193576     0.598054458747     1.007825032230
         H           -2.305723446903    -1.059537193576    -1.060843541253     1.007825032230
         H           -1.864752446903     0.542275806424     1.504588458747     1.007825032230
         H           -2.583719446903     1.111285806424    -0.005253541253     1.007825032230
         H            1.922165553097    -1.028394193576    -1.329868541253     1.007825032230
         H            1.889235553097     0.727930806424    -1.085662541253     1.007825032230
         H            2.299402553097     0.436830806424     1.344415458747     1.007825032230
         H            2.320103553097    -1.330818193576     1.161627458747     1.007825032230
         H            3.592248553097    -0.349381193576     0.418659458747     1.007825032230

  Basis Set: AUG-CC-PVTZ
    Blend: AUG-CC-PVTZ
  Basis Set: (AUG-CC-PVTZ AUX)
    Blend: AUG-CC-PVTZ-JKFIT
	 Reference Energy          =    -363.0553995128056499 [Eh]
	 Singles Energy            =      -0.0000000000000000 [Eh]
	 Same-Spin Energy          =      -0.3791451984604005 [Eh]
	 Opposite-Spin Energy      =      -1.2511942950703161 [Eh]
	 Correlation Energy        =      -1.6303394935307165 [Eh]
	 Total Energy              =    -364.6857390063363482 [Eh]

	 ================> DF-SCS-MP2 Energies <==================
	-----------------------------------------------------------
	 SCS Same-Spin Scale       =       0.3333333333333333 [-]
	 SCS Opposite-Spin Scale   =       1.2000000000000000 [-]
	 SCS Same-Spin Energy      =      -0.1263817328201335 [Eh]
	 SCS Opposite-Spin Energy  =      -1.5014331540843793 [Eh]
	 SCS Correlation Energy    =      -1.6278148869045128 [Eh]
	 SCS Total Energy          =    -364.6832143997101525 [Eh]
	-----------------------------------------------------------

  Dipole Moment: [D]
     X:    -0.8162      Y:    -4.1282      Z:     0.3578     Total:     4.2233

*** Psi4 exiting successfully. Buy a developer a beer!
