                               Psi4 1.3.2 release

  ==> Input File <==

--------------------------------------------------------------------------
#psi4
#
memory 32 gb

molecule  {
0 1
  O       -0.0101440     2.0708820    -0.1140410
  N        0.2351990    -0.2177110    -0.3583720
  C       -0.4713332    -1.4480219    -0.0377789
  C       -1.9502640    -0.9583450    -0.0482810
  C       -1.8489090     0.4999680     0.4010950
  C       -0.4582930     0.9265630    -0.0509830
  C        1.6617300    -0.1844710    -0.6214880
  C        2.4978900    -0.3314020     0.6460640
  H       -0.2060500    -1.8213230     0.9608810
  H       -0.2853850    -2.2161620    -0.7686800
  H       -2.5951790    -1.5710950     0.5868370
  H       -2.3326610    -1.0086390    -1.0720610
  H       -1.8916900     0.5931740     1.4933710
  H       -2.6106570     1.1621840    -0.0164710
  H        1.8952280    -0.9774960    -1.3410860
  H        1.8622980     0.7788290    -1.0968800
  H        2.2724650     0.4877290     1.3331980
  H        2.2931660    -1.2799200     1.1504100
  H        3.5653110    -0.2984830     0.4074420
units angstrom
no_reorient  #important for SAPT in psi4, default
symmetry c1  #important for SAPT in psi4, default
}

set PROPERTIES_ORIGIN ["COM"]
properties('MP2/aug-cc-pvtz', properties = ['dipole'])
--------------------------------------------------------------------------

    Molecular point group: c1
  Charge       = 0
  Multiplicity = 1
  Basis Set: AUG-CC-PVTZ
    Blend: AUG-CC-PVTZ
  Basis Set: (AUG-CC-PVTZ AUX)
    Blend: AUG-CC-PVTZ-JKFIT

    Orbital Energies [Eh]
    ---------------------

    Doubly Occupied:

       1A    -20.511868     2A    -15.581137     3A    -11.341791
       4A    -11.274242     5A    -11.260330     6A    -11.243207
       7A    -11.239862     8A    -11.218475     9A     -1.366905
      10A     -1.257823    11A     -1.085535    12A     -0.999906
      13A     -0.972269    14A     -0.869776    15A     -0.830095
      16A     -0.726733    17A     -0.692328    18A     -0.668536
      19A     -0.640410    20A     -0.604628    21A     -0.589971
      22A     -0.574057    23A     -0.562245    24A     -0.552966
      25A     -0.523020    26A     -0.513286    27A     -0.508417
      28A     -0.487515    29A     -0.477798    30A     -0.409726
      31A     -0.370007

  @DF-RHF Final Energy:  -363.07539652108687

   => Energetics <=

    Nuclear Repulsion Energy =            394.0510913352665625
    One-Electron Energy =               -1274.3432493693878769
    Two-Electron Energy =                 517.2167615130343847
    Total Energy =                       -363.0753965210868728
  Basis Set: (AUG-CC-PVTZ AUX)
    Blend: AUG-CC-PVTZ-RI
    Molecular point group: c1

    Geometry (in Angstrom), charge = 0, multiplicity = 1:

       Center              X                  Y                   Z               Mass
    ------------   -----------------  -----------------  -----------------  -----------------
         O            0.005036363328     2.018468643332    -0.098750797633    15.994914619570
         N            0.250379363328    -0.270124356668    -0.343081797633    14.003074004430
         C           -0.456152836672    -1.500435256668    -0.022488697633    12.000000000000
         C           -1.935083636672    -1.010758356668    -0.032990797633    12.000000000000
         C           -1.833728636672     0.447554643332     0.416385202367    12.000000000000
         C           -0.443112636672     0.874149643332    -0.035692797633    12.000000000000
         C            1.676910363328    -0.236884356668    -0.606197797633    12.000000000000
         C            2.513070363328    -0.383815356668     0.661354202367    12.000000000000
         H           -0.190869636672    -1.873736356668     0.976171202367     1.007825032230
         H           -0.270204636672    -2.268575356668    -0.753389797633     1.007825032230
         H           -2.579998636672    -1.623508356668     0.602127202367     1.007825032230
         H           -2.317480636672    -1.061052356668    -1.056770797633     1.007825032230
         H           -1.876509636672     0.540760643332     1.508661202367     1.007825032230
         H           -2.595476636672     1.109770643332    -0.001180797633     1.007825032230
         H            1.910408363328    -1.029909356668    -1.325795797633     1.007825032230
         H            1.877478363328     0.726415643332    -1.081589797633     1.007825032230
         H            2.287645363328     0.435315643332     1.348488202367     1.007825032230
         H            2.308346363328    -1.332333356668     1.165700202367     1.007825032230
         H            3.580491363328    -0.350896356668     0.422732202367     1.007825032230

  Basis Set: AUG-CC-PVTZ
    Blend: AUG-CC-PVTZ
  Basis Set: (AUG-CC-PVTZ AUX)
    Blend: AUG-CC-PVTZ-JKFIT
	 Reference Energy          =    -363.0753965210868728 [Eh]
	 Singles Energy            =      -0.0000000000000000 [Eh]
	 Same-Spin Energy          =      -0.3767081647823979 [Eh]
	 Opposite-Spin Energy      =      -1.2469341901089659 [Eh]
	 Correlation Energy        =      -1.6236423548913639 [Eh]
	 Total Energy              =    -364.6990388759782604 [Eh]

	 ================> DF-SCS-MP2 Energies <==================
	-----------------------------------------------------------
	 SCS Same-Spin Scale       =       0.3333333333333333 [-]
	 SCS Opposite-Spin Scale   =       1.2000000000000000 [-]
	 SCS Same-Spin Energy      =      -0.1255693882607993 [Eh]
	 SCS Opposite-Spin Energy  =      -1.4963210281307591 [Eh]
	 SCS Correlation Energy    =      -1.6218904163915584 [Eh]
	 SCS Total Energy          =    -364.6972869374784523 [Eh]
	-----------------------------------------------------------

  Dipole Moment: [D]
     X:    -0.4587      Y:    -3.9571      Z:     0.2447     Total:     3.9911

*** Psi4 exiting successfully. Buy a developer a beer!
