                               Psi4 1.3.2 release

  ==> Input File <==

--------------------------------------------------------------------------
#psi4
#
memory 32 gb

molecule  {
0 1
  O       -0.0101440     2.0708820    -0.1140410
  N        0.2351990    -0.2177110    -0.3583720
  C       -0.4908340    -1.4342940    -0.0290780
  C       -1.9502640    -0.9583450    -0.0482810
  C       -1.8489090     0.4999680     0.4010950
  C       -0.3854565     1.1125463    -0.0612317
  C        1.6617300    -0.1844710    -0.6214880
  C        2.4978900    -0.3314020     0.6460640
  H       -0.2060500    -1.8213230     0.9608810
  H       -0.2853850    -2.2161620    -0.7686800
  H       -2.5951790    -1.5710950     0.5868370
  H       -2.3326610    -1.0086390    -1.0720610
  H       -1.8916900     0.5931740     1.4933710
  H       -2.6106570     1.1621840    -0.0164710
  H        1.8952280    -0.9774960    -1.3410860
  H        1.8622980     0.7788290    -1.0968800
  H        2.2724650     0.4877290     1.3331980
  H        2.2931660    -1.2799200     1.1504100
  H        3.5653110    -0.2984830     0.4074420
units angstrom
no_reorient  #important for SAPT in psi4, default
symmetry c1  #important for SAPT in psi4, default
}

set PROPERTIES_ORIGIN ["COM"]
properties('MP2/aug-cc-pvtz', properties = ['dipole'])
--------------------------------------------------------------------------

    Molecular point group: c1
  Charge       = 0
  Multiplicity = 1
  Basis Set: AUG-CC-PVTZ
    Blend: AUG-CC-PVTZ
  Basis Set: (AUG-CC-PVTZ AUX)
    Blend: AUG-CC-PVTZ-JKFIT

    Orbital Energies [Eh]
    ---------------------

    Doubly Occupied:

       1A    -20.556868     2A    -15.548535     3A    -11.338116
       4A    -11.261671     5A    -11.247235     6A    -11.231701
       7A    -11.229592     8A    -11.210991     9A     -1.534002
      10A     -1.225995    11A     -1.065266    12A     -0.981890
      13A     -0.943246    14A     -0.851029    15A     -0.808303
      16A     -0.735346    17A     -0.692804    18A     -0.682734
      19A     -0.659903    20A     -0.622707    21A     -0.619456
      22A     -0.590608    23A     -0.579390    24A     -0.551116
      25A     -0.529972    26A     -0.504366    27A     -0.495113
      28A     -0.486958    29A     -0.479518    30A     -0.382077
      31A     -0.351289

  @DF-RHF Final Energy:  -362.99556846764631

   => Energetics <=

    Nuclear Repulsion Energy =            394.3580113213662344
    One-Electron Energy =               -1274.7115657208375978
    Two-Electron Energy =                 517.3579859318250556
    Total Energy =                       -362.9955684676463079
  Basis Set: (AUG-CC-PVTZ AUX)
    Blend: AUG-CC-PVTZ-RI
    Molecular point group: c1

    Geometry (in Angstrom), charge = 0, multiplicity = 1:

       Center              X                  Y                   Z               Mass
    ------------   -----------------  -----------------  -----------------  -----------------
         O           -0.000623394356     1.997276140024    -0.098586551679    15.994914619570
         N            0.244719605644    -0.291316859976    -0.342917551679    14.003074004430
         C           -0.481313394356    -1.507899859976    -0.013623551679    12.000000000000
         C           -1.940743394356    -1.031950859976    -0.032826551679    12.000000000000
         C           -1.839388394356     0.426362140024     0.416549448321    12.000000000000
         C           -0.375935894356     1.038940440024    -0.045777251679    12.000000000000
         C            1.671250605644    -0.258076859976    -0.606033551679    12.000000000000
         C            2.507410605644    -0.405007859976     0.661518448321    12.000000000000
         H           -0.196529394356    -1.894928859976     0.976335448321     1.007825032230
         H           -0.275864394356    -2.289767859976    -0.753225551679     1.007825032230
         H           -2.585658394356    -1.644700859976     0.602291448321     1.007825032230
         H           -2.323140394356    -1.082244859976    -1.056606551679     1.007825032230
         H           -1.882169394356     0.519568140024     1.508825448321     1.007825032230
         H           -2.601136394356     1.088578140024    -0.001016551679     1.007825032230
         H            1.904748605644    -1.051101859976    -1.325631551679     1.007825032230
         H            1.871818605644     0.705223140024    -1.081425551679     1.007825032230
         H            2.281985605644     0.414123140024     1.348652448321     1.007825032230
         H            2.302686605644    -1.353525859976     1.165864448321     1.007825032230
         H            3.574831605644    -0.372088859976     0.422896448321     1.007825032230

  Basis Set: AUG-CC-PVTZ
    Blend: AUG-CC-PVTZ
  Basis Set: (AUG-CC-PVTZ AUX)
    Blend: AUG-CC-PVTZ-JKFIT
	 Reference Energy          =    -362.9955684676463079 [Eh]
	 Singles Energy            =      -0.0000000000000000 [Eh]
	 Same-Spin Energy          =      -0.3736338965675011 [Eh]
	 Opposite-Spin Energy      =      -1.2407157849116510 [Eh]
	 Correlation Energy        =      -1.6143496814791520 [Eh]
	 Total Energy              =    -364.6099181491254626 [Eh]

	 ================> DF-SCS-MP2 Energies <==================
	-----------------------------------------------------------
	 SCS Same-Spin Scale       =       0.3333333333333333 [-]
	 SCS Opposite-Spin Scale   =       1.2000000000000000 [-]
	 SCS Same-Spin Energy      =      -0.1245446321891670 [Eh]
	 SCS Opposite-Spin Energy  =      -1.4888589418939813 [Eh]
	 SCS Correlation Energy    =      -1.6134035740831483 [Eh]
	 SCS Total Energy          =    -364.6089720417294302 [Eh]
	-----------------------------------------------------------

  Dipole Moment: [D]
     X:    -0.3057      Y:    -2.0595      Z:     0.2284     Total:     2.0945

*** Psi4 exiting successfully. Buy a developer a beer!
