                               Psi4 1.3.2 release

  ==> Input File <==

--------------------------------------------------------------------------
#psi4
#
memory 32 gb

molecule  {
0 1
  O       -0.0101440     2.0708820    -0.1140410
  N        0.2351990    -0.2177110    -0.3583720
  C       -0.4908340    -1.4342940    -0.0290780
  C       -1.9502640    -0.9583450    -0.0482810
  C       -1.8489090     0.4999680     0.4010950
  C       -0.5755364     0.8439919    -0.0417064
  C        1.6617300    -0.1844710    -0.6214880
  C        2.4978900    -0.3314020     0.6460640
  H       -0.2060500    -1.8213230     0.9608810
  H       -0.2853850    -2.2161620    -0.7686800
  H       -2.5951790    -1.5710950     0.5868370
  H       -2.3326610    -1.0086390    -1.0720610
  H       -1.8916900     0.5931740     1.4933710
  H       -2.6106570     1.1621840    -0.0164710
  H        1.8952280    -0.9774960    -1.3410860
  H        1.8622980     0.7788290    -1.0968800
  H        2.2724650     0.4877290     1.3331980
  H        2.2931660    -1.2799200     1.1504100
  H        3.5653110    -0.2984830     0.4074420
units angstrom
no_reorient  #important for SAPT in psi4, default
symmetry c1  #important for SAPT in psi4, default
}

set PROPERTIES_ORIGIN ["COM"]
properties('MP2/aug-cc-pvtz', properties = ['dipole'])
--------------------------------------------------------------------------

    Molecular point group: c1
  Charge       = 0
  Multiplicity = 1
  Basis Set: AUG-CC-PVTZ
    Blend: AUG-CC-PVTZ
  Basis Set: (AUG-CC-PVTZ AUX)
    Blend: AUG-CC-PVTZ-JKFIT

    Orbital Energies [Eh]
    ---------------------

    Doubly Occupied:

       1A    -20.492872     2A    -15.591801     3A    -11.347661
       4A    -11.277163     5A    -11.265303     6A    -11.250257
       7A    -11.244650     8A    -11.219747     9A     -1.325430
      10A     -1.229456    11A     -1.109632    12A     -1.009652
      13A     -0.985075    14A     -0.876292    15A     -0.840573
      16A     -0.735286    17A     -0.699887    18A     -0.669696
      19A     -0.635798    20A     -0.612153    21A     -0.597767
      22A     -0.568564    23A     -0.563707    24A     -0.529602
      25A     -0.523945    26A     -0.516537    27A     -0.514341
      28A     -0.488605    29A     -0.454314    30A     -0.401693
      31A     -0.361015

  @DF-RHF Final Energy:  -363.03526561104053

   => Energetics <=

    Nuclear Repulsion Energy =            394.2028704680826650
    One-Electron Energy =               -1274.5993203379732677
    Two-Electron Energy =                 517.3611842588501304
    Total Energy =                       -363.0352656110404723
  Basis Set: (AUG-CC-PVTZ AUX)
    Blend: AUG-CC-PVTZ-RI
    Molecular point group: c1

    Geometry (in Angstrom), charge = 0, multiplicity = 1:

       Center              X                  Y                   Z               Mass
    ------------   -----------------  -----------------  -----------------  -----------------
         O            0.019547076352     2.025773990973    -0.100658493487    15.994914619570
         N            0.264890076352    -0.262819009027    -0.344989493487    14.003074004430
         C           -0.461142923648    -1.479402009027    -0.015695493487    12.000000000000
         C           -1.920572923648    -1.003453009027    -0.034898493487    12.000000000000
         C           -1.819217923648     0.454859990973     0.414477506513    12.000000000000
         C           -0.545845323648     0.798883890973    -0.028323893487    12.000000000000
         C            1.691421076352    -0.229579009027    -0.608105493487    12.000000000000
         C            2.527581076352    -0.376510009027     0.659446506513    12.000000000000
         H           -0.176358923648    -1.866431009027     0.974263506513     1.007825032230
         H           -0.255693923648    -2.261270009027    -0.755297493487     1.007825032230
         H           -2.565487923648    -1.616203009027     0.600219506513     1.007825032230
         H           -2.302969923648    -1.053747009027    -1.058678493487     1.007825032230
         H           -1.861998923648     0.548065990973     1.506753506513     1.007825032230
         H           -2.580965923648     1.117075990973    -0.003088493487     1.007825032230
         H            1.924919076352    -1.022604009027    -1.327703493487     1.007825032230
         H            1.891989076352     0.733720990973    -1.083497493487     1.007825032230
         H            2.302156076352     0.442620990973     1.346580506513     1.007825032230
         H            2.322857076352    -1.325028009027     1.163792506513     1.007825032230
         H            3.595002076352    -0.343591009027     0.420824506513     1.007825032230

  Basis Set: AUG-CC-PVTZ
    Blend: AUG-CC-PVTZ
  Basis Set: (AUG-CC-PVTZ AUX)
    Blend: AUG-CC-PVTZ-JKFIT
	 Reference Energy          =    -363.0352656110405292 [Eh]
	 Singles Energy            =      -0.0000000000000000 [Eh]
	 Same-Spin Energy          =      -0.3805830688508334 [Eh]
	 Opposite-Spin Energy      =      -1.2538956682973024 [Eh]
	 Correlation Energy        =      -1.6344787371481357 [Eh]
	 Total Energy              =    -364.6697443481886580 [Eh]

	 ================> DF-SCS-MP2 Energies <==================
	-----------------------------------------------------------
	 SCS Same-Spin Scale       =       0.3333333333333333 [-]
	 SCS Opposite-Spin Scale   =       1.2000000000000000 [-]
	 SCS Same-Spin Energy      =      -0.1268610229502778 [Eh]
	 SCS Opposite-Spin Energy  =      -1.5046748019567628 [Eh]
	 SCS Correlation Energy    =      -1.6315358249070406 [Eh]
	 SCS Total Energy          =    -364.6668014359475478 [Eh]
	-----------------------------------------------------------

  Dipole Moment: [D]
     X:    -0.7947      Y:    -4.5837      Z:     0.3485     Total:     4.6651

*** Psi4 exiting successfully. Buy a developer a beer!
