                               Psi4 1.3.2 release

  ==> Input File <==

--------------------------------------------------------------------------
#psi4
#
memory 32 gb

molecule  {
0 1
  O        0.0994440     2.0183622    -0.1567365
  N        0.2351990    -0.2177110    -0.3583720
  C       -0.4908340    -1.4342940    -0.0290780
  C       -1.9502640    -0.9583450    -0.0482810
  C       -1.8489090     0.4999680     0.4010950
  C       -0.4582930     0.9265630    -0.0509830
  C        1.6617300    -0.1844710    -0.6214880
  C        2.4978900    -0.3314020     0.6460640
  H       -0.2060500    -1.8213230     0.9608810
  H       -0.2853850    -2.2161620    -0.7686800
  H       -2.5951790    -1.5710950     0.5868370
  H       -2.3326610    -1.0086390    -1.0720610
  H       -1.8916900     0.5931740     1.4933710
  H       -2.6106570     1.1621840    -0.0164710
  H        1.8952280    -0.9774960    -1.3410860
  H        1.8622980     0.7788290    -1.0968800
  H        2.2724650     0.4877290     1.3331980
  H        2.2931660    -1.2799200     1.1504100
  H        3.5653110    -0.2984830     0.4074420
units angstrom
no_reorient  #important for SAPT in psi4, default
symmetry c1  #important for SAPT in psi4, default
}

set PROPERTIES_ORIGIN ["COM"]
properties('MP2/aug-cc-pvtz', properties = ['dipole'])
--------------------------------------------------------------------------

    Molecular point group: c1
  Charge       = 0
  Multiplicity = 1
  Basis Set: AUG-CC-PVTZ
    Blend: AUG-CC-PVTZ
  Basis Set: (AUG-CC-PVTZ AUX)
    Blend: AUG-CC-PVTZ-JKFIT

    Orbital Energies [Eh]
    ---------------------

    Doubly Occupied:

       1A    -20.509731     2A    -15.575310     3A    -11.341359
       4A    -11.272792     5A    -11.256658     6A    -11.246305
       7A    -11.244408     8A    -11.216019     9A     -1.369249
      10A     -1.252420    11A     -1.088329    12A     -0.998639
      13A     -0.972329    14A     -0.868184    15A     -0.829490
      16A     -0.724343    17A     -0.692838    18A     -0.667623
      19A     -0.639745    20A     -0.603507    21A     -0.589160
      22A     -0.570056    23A     -0.562435    24A     -0.554848
      25A     -0.521494    26A     -0.510723    27A     -0.509517
      28A     -0.488013    29A     -0.478404    30A     -0.411096
      31A     -0.365013

  @DF-RHF Final Energy:  -363.07259908515789

   => Energetics <=

    Nuclear Repulsion Energy =            395.1677811908062949
    One-Electron Energy =               -1276.6206830614237333
    Two-Electron Energy =                 518.3803027854595484
    Total Energy =                       -363.0725990851578899
  Basis Set: (AUG-CC-PVTZ AUX)
    Blend: AUG-CC-PVTZ-RI
    Molecular point group: c1

    Geometry (in Angstrom), charge = 0, multiplicity = 1:

       Center              X                  Y                   Z               Mass
    ------------   -----------------  -----------------  -----------------  -----------------
         O            0.101193283387     1.971920638943    -0.136330633615    15.994914619570
         N            0.236948283387    -0.264152561057    -0.337966133615    14.003074004430
         C           -0.489084716613    -1.480735561057    -0.008672133615    12.000000000000
         C           -1.948514716613    -1.004786561057    -0.027875133615    12.000000000000
         C           -1.847159716613     0.453526438943     0.421500866385    12.000000000000
         C           -0.456543716613     0.880121438943    -0.030577133615    12.000000000000
         C            1.663479283387    -0.230912561057    -0.601082133615    12.000000000000
         C            2.499639283387    -0.377843561057     0.666469866385    12.000000000000
         H           -0.204300716613    -1.867764561057     0.981286866385     1.007825032230
         H           -0.283635716613    -2.262603561057    -0.748274133615     1.007825032230
         H           -2.593429716613    -1.617536561057     0.607242866385     1.007825032230
         H           -2.330911716613    -1.055080561057    -1.051655133615     1.007825032230
         H           -1.889940716613     0.546732438943     1.513776866385     1.007825032230
         H           -2.608907716613     1.115742438943     0.003934866385     1.007825032230
         H            1.896977283387    -1.023937561057    -1.320680133615     1.007825032230
         H            1.864047283387     0.732387438943    -1.076474133615     1.007825032230
         H            2.274214283387     0.441287438943     1.353603866385     1.007825032230
         H            2.294915283387    -1.326361561057     1.170815866385     1.007825032230
         H            3.567060283387    -0.344924561057     0.427847866385     1.007825032230

  Basis Set: AUG-CC-PVTZ
    Blend: AUG-CC-PVTZ
  Basis Set: (AUG-CC-PVTZ AUX)
    Blend: AUG-CC-PVTZ-JKFIT
	 Reference Energy          =    -363.0725990851578899 [Eh]
	 Singles Energy            =      -0.0000000000000000 [Eh]
	 Same-Spin Energy          =      -0.3771677019501274 [Eh]
	 Opposite-Spin Energy      =      -1.2472963283552603 [Eh]
	 Correlation Energy        =      -1.6244640303053877 [Eh]
	 Total Energy              =    -364.6970631154632656 [Eh]

	 ================> DF-SCS-MP2 Energies <==================
	-----------------------------------------------------------
	 SCS Same-Spin Scale       =       0.3333333333333333 [-]
	 SCS Opposite-Spin Scale   =       1.2000000000000000 [-]
	 SCS Same-Spin Energy      =      -0.1257225673167091 [Eh]
	 SCS Opposite-Spin Energy  =      -1.4967555940263122 [Eh]
	 SCS Correlation Energy    =      -1.6224781613430213 [Eh]
	 SCS Total Energy          =    -364.6950772465008868 [Eh]
	-----------------------------------------------------------

  Dipole Moment: [D]
     X:    -0.7815      Y:    -3.8117      Z:     0.3472     Total:     3.9065

*** Psi4 exiting successfully. Buy a developer a beer!
