                               Psi4 1.4a3.dev225

  ==> Input File <==

--------------------------------------------------------------------------
#psi4
#
memory 32 gb

molecule  {
0 1
  O       -0.0101440     2.0708820    -0.1140410
  N        0.2351990    -0.2177110    -0.3583720
  C       -0.4908340    -1.4342940    -0.0290780
  C       -1.9502640    -0.9583450    -0.0482810
  C       -1.8489090     0.4999680     0.4010950
  C       -0.4330361     0.8848886    -0.0621781
  C        1.6617300    -0.1844710    -0.6214880
  C        2.4978900    -0.3314020     0.6460640
  H       -0.2060500    -1.8213230     0.9608810
  H       -0.2853850    -2.2161620    -0.7686800
  H       -2.5951790    -1.5710950     0.5868370
  H       -2.3326610    -1.0086390    -1.0720610
  H       -1.8916900     0.5931740     1.4933710
  H       -2.6106570     1.1621840    -0.0164710
  H        1.8952280    -0.9774960    -1.3410860
  H        1.8622980     0.7788290    -1.0968800
  H        2.2724650     0.4877290     1.3331980
  H        2.2931660    -1.2799200     1.1504100
  H        3.5653110    -0.2984830     0.4074420
units angstrom
no_reorient  #important for SAPT in psi4, default
symmetry c1  #important for SAPT in psi4, default
}

set PROPERTIES_ORIGIN ["COM"]
properties('MP2/aug-cc-pvtz', properties = ['dipole'])
--------------------------------------------------------------------------

    Molecular point group: c1
  Charge       = 0
  Multiplicity = 1
  Basis Set: AUG-CC-PVTZ
    Blend: AUG-CC-PVTZ
  Basis Set: (AUG-CC-PVTZ AUX)
    Blend: AUG-CC-PVTZ-JKFIT

    Orbital Energies [Eh]
    ---------------------

    Doubly Occupied:

       1A    -20.501260     2A    -15.589628     3A    -11.337781
       4A    -11.279275     5A    -11.265325     6A    -11.242727
       7A    -11.239019     8A    -11.221885     9A     -1.354438
      10A     -1.263808    11A     -1.090223    12A     -1.007316
      13A     -0.974125    14A     -0.875857    15A     -0.834241
      16A     -0.728459    17A     -0.698484    18A     -0.668642
      19A     -0.637797    20A     -0.608125    21A     -0.589379
      22A     -0.570004    23A     -0.565055    24A     -0.544671
      25A     -0.524517    26A     -0.515264    27A     -0.510754
      28A     -0.493359    29A     -0.473493    30A     -0.402165
      31A     -0.373381

  @DF-RHF Final Energy:  -363.07187607466290

   => Energetics <=

    Nuclear Repulsion Energy =            394.7427249205300086
    One-Electron Energy =               -1275.6682890971235338
    Two-Electron Energy =                 517.8536881019306293
    Total Energy =                       -363.0718760746628959
  Basis Set: (AUG-CC-PVTZ AUX)
    Blend: AUG-CC-PVTZ-RI
    Molecular point group: c1

    Geometry (in Angstrom), charge = 0, multiplicity = 1:

       Center              X                  Y                   Z               Mass
    ------------   -----------------  -----------------  -----------------  -----------------
         O            0.004425550473     2.021434207075    -0.098486123736    15.994914619570
         N            0.249768550473    -0.267158792925    -0.342817123736    14.003074004430
         C           -0.476264449527    -1.483741792925    -0.013523123736    12.000000000000
         C           -1.935694449527    -1.007792792925    -0.032726123736    12.000000000000
         C           -1.834339449527     0.450520207075     0.416649876264    12.000000000000
         C           -0.418466549527     0.835440807075    -0.046623223736    12.000000000000
         C            1.676299550473    -0.233918792925    -0.605933123736    12.000000000000
         C            2.512459550473    -0.380849792925     0.661618876264    12.000000000000
         H           -0.191480449527    -1.870770792925     0.976435876264     1.007825032230
         H           -0.270815449527    -2.265609792925    -0.753125123736     1.007825032230
         H           -2.580609449527    -1.620542792925     0.602391876264     1.007825032230
         H           -2.318091449527    -1.058086792925    -1.056506123736     1.007825032230
         H           -1.877120449527     0.543726207075     1.508925876264     1.007825032230
         H           -2.596087449527     1.112736207075    -0.000916123736     1.007825032230
         H            1.909797550473    -1.026943792925    -1.325531123736     1.007825032230
         H            1.876867550473     0.729381207075    -1.081325123736     1.007825032230
         H            2.287034550473     0.438281207075     1.348752876264     1.007825032230
         H            2.307735550473    -1.329367792925     1.165964876264     1.007825032230
         H            3.579880550473    -0.347930792925     0.422996876264     1.007825032230

  Basis Set: AUG-CC-PVTZ
    Blend: AUG-CC-PVTZ
  Basis Set: (AUG-CC-PVTZ AUX)
    Blend: AUG-CC-PVTZ-JKFIT
	 Reference Energy          =    -363.0718760746628959 [Eh]
	 Singles Energy            =      -0.0000000000000000 [Eh]
	 Same-Spin Energy          =      -0.3770731926385382 [Eh]
	 Opposite-Spin Energy      =      -1.2475457324480927 [Eh]
	 Correlation Energy        =      -1.6246189250866310 [Eh]
	 Total Energy              =    -364.6964949997495182 [Eh]

	 ================> DF-SCS-MP2 Energies <==================
	-----------------------------------------------------------
	 SCS Same-Spin Scale       =       0.3333333333333333 [-]
	 SCS Opposite-Spin Scale   =       1.2000000000000000 [-]
	 SCS Same-Spin Energy      =      -0.1256910642128460 [Eh]
	 SCS Opposite-Spin Energy  =      -1.4970548789377112 [Eh]
	 SCS Correlation Energy    =      -1.6227459431505573 [Eh]
	 SCS Total Energy          =    -364.6946220178134581 [Eh]
	-----------------------------------------------------------

  Dipole Moment: [D]
     X:    -0.2996      Y:    -4.3426      Z:     0.2055     Total:     4.3578

*** Psi4 exiting successfully. Buy a developer a beer!
