                               Psi4 1.3.2 release

  ==> Input File <==

--------------------------------------------------------------------------
#psi4
#
memory 32 gb

molecule  {
0 1
  O       -0.0101440     2.0708820    -0.1140410
  N        0.2351990    -0.2177110    -0.3583720
  C       -0.4832416    -1.4099295    -0.0209146
  C       -1.9502640    -0.9583450    -0.0482810
  C       -1.8489090     0.4999680     0.4010950
  C       -0.4582930     0.9265630    -0.0509830
  C        1.6617300    -0.1844710    -0.6214880
  C        2.4978900    -0.3314020     0.6460640
  H       -0.2060500    -1.8213230     0.9608810
  H       -0.2853850    -2.2161620    -0.7686800
  H       -2.5951790    -1.5710950     0.5868370
  H       -2.3326610    -1.0086390    -1.0720610
  H       -1.8916900     0.5931740     1.4933710
  H       -2.6106570     1.1621840    -0.0164710
  H        1.8952280    -0.9774960    -1.3410860
  H        1.8622980     0.7788290    -1.0968800
  H        2.2724650     0.4877290     1.3331980
  H        2.2931660    -1.2799200     1.1504100
  H        3.5653110    -0.2984830     0.4074420
units angstrom
no_reorient  #important for SAPT in psi4, default
symmetry c1  #important for SAPT in psi4, default
}

set PROPERTIES_ORIGIN ["COM"]
properties('MP2/aug-cc-pvtz', properties = ['dipole'])
--------------------------------------------------------------------------

    Molecular point group: c1
  Charge       = 0
  Multiplicity = 1
  Basis Set: AUG-CC-PVTZ
    Blend: AUG-CC-PVTZ
  Basis Set: (AUG-CC-PVTZ AUX)
    Blend: AUG-CC-PVTZ-JKFIT

    Orbital Energies [Eh]
    ---------------------

    Doubly Occupied:

       1A    -20.512528     2A    -15.581501     3A    -11.342000
       4A    -11.274634     5A    -11.261805     6A    -11.242117
       7A    -11.239883     8A    -11.219184     9A     -1.368325
      10A     -1.263473    11A     -1.088568    12A     -1.001811
      13A     -0.970594    14A     -0.871550    15A     -0.829656
      16A     -0.727940    17A     -0.695416    18A     -0.667341
      19A     -0.639187    20A     -0.605211    21A     -0.589565
      22A     -0.572354    23A     -0.563972    24A     -0.555578
      25A     -0.523928    26A     -0.514111    27A     -0.506287
      28A     -0.490456    29A     -0.477114    30A     -0.410265
      31A     -0.369501

  @DF-RHF Final Energy:  -363.07516904449432

   => Energetics <=

    Nuclear Repulsion Energy =            394.7603126689811006
    One-Electron Energy =               -1275.7192539385096097
    Two-Electron Energy =                 517.8837722250342495
    Total Energy =                       -363.0751690444942597
  Basis Set: (AUG-CC-PVTZ AUX)
    Blend: AUG-CC-PVTZ-RI
    Molecular point group: c1

    Geometry (in Angstrom), charge = 0, multiplicity = 1:

       Center              X                  Y                   Z               Mass
    ------------   -----------------  -----------------  -----------------  -----------------
         O            0.006300032098     2.014426439825    -0.100540365437    15.994914619570
         N            0.251643032098    -0.274166560175    -0.344871365437    14.003074004430
         C           -0.466797567902    -1.466385060175    -0.007413965437    12.000000000000
         C           -1.933819967902    -1.014800560175    -0.034780365437    12.000000000000
         C           -1.832464967902     0.443512439825     0.414595634563    12.000000000000
         C           -0.441848967902     0.870107439825    -0.037482365437    12.000000000000
         C            1.678174032098    -0.240926560175    -0.607987365437    12.000000000000
         C            2.514334032098    -0.387857560175     0.659564634563    12.000000000000
         H           -0.189605967902    -1.877778560175     0.974381634563     1.007825032230
         H           -0.268940967902    -2.272617560175    -0.755179365437     1.007825032230
         H           -2.578734967902    -1.627550560175     0.600337634563     1.007825032230
         H           -2.316216967902    -1.065094560175    -1.058560365437     1.007825032230
         H           -1.875245967902     0.536718439825     1.506871634563     1.007825032230
         H           -2.594212967902     1.105728439825    -0.002970365437     1.007825032230
         H            1.911672032098    -1.033951560175    -1.327585365437     1.007825032230
         H            1.878742032098     0.722373439825    -1.083379365437     1.007825032230
         H            2.288909032098     0.431273439825     1.346698634563     1.007825032230
         H            2.309610032098    -1.336375560175     1.163910634563     1.007825032230
         H            3.581755032098    -0.354938560175     0.420942634563     1.007825032230

  Basis Set: AUG-CC-PVTZ
    Blend: AUG-CC-PVTZ
  Basis Set: (AUG-CC-PVTZ AUX)
    Blend: AUG-CC-PVTZ-JKFIT
	 Reference Energy          =    -363.0751690444943165 [Eh]
	 Singles Energy            =      -0.0000000000000000 [Eh]
	 Same-Spin Energy          =      -0.3769235269477763 [Eh]
	 Opposite-Spin Energy      =      -1.2469380118164708 [Eh]
	 Correlation Energy        =      -1.6238615387642472 [Eh]
	 Total Energy              =    -364.6990305832585477 [Eh]

	 ================> DF-SCS-MP2 Energies <==================
	-----------------------------------------------------------
	 SCS Same-Spin Scale       =       0.3333333333333333 [-]
	 SCS Opposite-Spin Scale   =       1.2000000000000000 [-]
	 SCS Same-Spin Energy      =      -0.1256411756492588 [Eh]
	 SCS Opposite-Spin Energy  =      -1.4963256141797650 [Eh]
	 SCS Correlation Energy    =      -1.6219667898290238 [Eh]
	 SCS Total Energy          =    -364.6971358343233192 [Eh]
	-----------------------------------------------------------

  Dipole Moment: [D]
     X:    -0.4396      Y:    -3.8761      Z:     0.2609     Total:     3.9096

*** Psi4 exiting successfully. Buy a developer a beer!
