                               Psi4 1.3.2 release

  ==> Input File <==

--------------------------------------------------------------------------
#psi4
#
memory 32 gb

molecule  {
0 1
  O       -0.0290888     2.0784686    -0.1073476
  N        0.2351990    -0.2177110    -0.3583720
  C       -0.4908340    -1.4342940    -0.0290780
  C       -1.9502640    -0.9583450    -0.0482810
  C       -1.8489090     0.4999680     0.4010950
  C       -0.4582930     0.9265630    -0.0509830
  C        1.6617300    -0.1844710    -0.6214880
  C        2.4978900    -0.3314020     0.6460640
  H       -0.2060500    -1.8213230     0.9608810
  H       -0.2853850    -2.2161620    -0.7686800
  H       -2.5951790    -1.5710950     0.5868370
  H       -2.3326610    -1.0086390    -1.0720610
  H       -1.8916900     0.5931740     1.4933710
  H       -2.6106570     1.1621840    -0.0164710
  H        1.8952280    -0.9774960    -1.3410860
  H        1.8622980     0.7788290    -1.0968800
  H        2.2724650     0.4877290     1.3331980
  H        2.2931660    -1.2799200     1.1504100
  H        3.5653110    -0.2984830     0.4074420
units angstrom
no_reorient  #important for SAPT in psi4, default
symmetry c1  #important for SAPT in psi4, default
}

set PROPERTIES_ORIGIN ["COM"]
properties('MP2/aug-cc-pvtz', properties = ['dipole'])
--------------------------------------------------------------------------

    Molecular point group: c1
  Charge       = 0
  Multiplicity = 1
  Basis Set: AUG-CC-PVTZ
    Blend: AUG-CC-PVTZ
  Basis Set: (AUG-CC-PVTZ AUX)
    Blend: AUG-CC-PVTZ-JKFIT

    Orbital Energies [Eh]
    ---------------------

    Doubly Occupied:

       1A    -20.511857     2A    -15.581881     3A    -11.341368
       4A    -11.275198     5A    -11.261577     6A    -11.242053
       7A    -11.238908     8A    -11.219086     9A     -1.366568
      10A     -1.259432    11A     -1.087762    12A     -1.000795
      13A     -0.971968    14A     -0.870583    15A     -0.829409
      16A     -0.726689    17A     -0.693340    18A     -0.667712
      19A     -0.639419    20A     -0.604813    21A     -0.589364
      22A     -0.572498    23A     -0.563311    24A     -0.554588
      25A     -0.523152    26A     -0.513508    27A     -0.509539
      28A     -0.490485    29A     -0.477174    30A     -0.408877
      31A     -0.370213

  @DF-RHF Final Energy:  -363.07593995487963

   => Energetics <=

    Nuclear Repulsion Energy =            394.1623543031469694
    One-Electron Energy =               -1274.5503321763733311
    Two-Electron Energy =                 517.3120379183467321
    Total Energy =                       -363.0759399548796864
  Basis Set: (AUG-CC-PVTZ AUX)
    Blend: AUG-CC-PVTZ-RI
    Molecular point group: c1

    Geometry (in Angstrom), charge = 0, multiplicity = 1:

       Center              X                  Y                   Z               Mass
    ------------   -----------------  -----------------  -----------------  -----------------
         O           -0.009159491157     2.023525427820    -0.093927432668    15.994914619570
         N            0.255128308843    -0.272654172180    -0.344951832668    14.003074004430
         C           -0.470904691157    -1.489237172180    -0.015657832668    12.000000000000
         C           -1.930334691157    -1.013288172180    -0.034860832668    12.000000000000
         C           -1.828979691157     0.445024827820     0.414515167332    12.000000000000
         C           -0.438363691157     0.871619827820    -0.037562832668    12.000000000000
         C            1.681659308843    -0.239414172180    -0.608067832668    12.000000000000
         C            2.517819308843    -0.386345172180     0.659484167332    12.000000000000
         H           -0.186120691157    -1.876266172180     0.974301167332     1.007825032230
         H           -0.265455691157    -2.271105172180    -0.755259832668     1.007825032230
         H           -2.575249691157    -1.626038172180     0.600257167332     1.007825032230
         H           -2.312731691157    -1.063582172180    -1.058640832668     1.007825032230
         H           -1.871760691157     0.538230827820     1.506791167332     1.007825032230
         H           -2.590727691157     1.107240827820    -0.003050832668     1.007825032230
         H            1.915157308843    -1.032439172180    -1.327665832668     1.007825032230
         H            1.882227308843     0.723885827820    -1.083459832668     1.007825032230
         H            2.292394308843     0.432785827820     1.346618167332     1.007825032230
         H            2.313095308843    -1.334863172180     1.163830167332     1.007825032230
         H            3.585240308843    -0.353426172180     0.420862167332     1.007825032230

  Basis Set: AUG-CC-PVTZ
    Blend: AUG-CC-PVTZ
  Basis Set: (AUG-CC-PVTZ AUX)
    Blend: AUG-CC-PVTZ-JKFIT
	 Reference Energy          =    -363.0759399548796296 [Eh]
	 Singles Energy            =      -0.0000000000000000 [Eh]
	 Same-Spin Energy          =      -0.3767465560617985 [Eh]
	 Opposite-Spin Energy      =      -1.2469035616515662 [Eh]
	 Correlation Energy        =      -1.6236501177133646 [Eh]
	 Total Energy              =    -364.6995900725929687 [Eh]

	 ================> DF-SCS-MP2 Energies <==================
	-----------------------------------------------------------
	 SCS Same-Spin Scale       =       0.3333333333333333 [-]
	 SCS Opposite-Spin Scale   =       1.2000000000000000 [-]
	 SCS Same-Spin Energy      =      -0.1255821853539328 [Eh]
	 SCS Opposite-Spin Energy  =      -1.4962842739818794 [Eh]
	 SCS Correlation Energy    =      -1.6218664593358121 [Eh]
	 SCS Total Energy          =    -364.6978064142154494 [Eh]
	-----------------------------------------------------------

  Dipole Moment: [D]
     X:    -0.4083      Y:    -3.9652      Z:     0.2385     Total:     3.9933

*** Psi4 exiting successfully. Buy a developer a beer!
