                               Psi4 1.3.2 release

  ==> Input File <==

--------------------------------------------------------------------------
#psi4
#
memory 32 gb

molecule  {
0 1
  O       -0.0101440     2.0708820    -0.1140410
  N        0.2351990    -0.2177110    -0.3583720
  C       -0.4760961    -1.3854275    -0.0127595
  C       -1.9502640    -0.9583450    -0.0482810
  C       -1.8489090     0.4999680     0.4010950
  C       -0.4582930     0.9265630    -0.0509830
  C        1.6617300    -0.1844710    -0.6214880
  C        2.4978900    -0.3314020     0.6460640
  H       -0.2060500    -1.8213230     0.9608810
  H       -0.2853850    -2.2161620    -0.7686800
  H       -2.5951790    -1.5710950     0.5868370
  H       -2.3326610    -1.0086390    -1.0720610
  H       -1.8916900     0.5931740     1.4933710
  H       -2.6106570     1.1621840    -0.0164710
  H        1.8952280    -0.9774960    -1.3410860
  H        1.8622980     0.7788290    -1.0968800
  H        2.2724650     0.4877290     1.3331980
  H        2.2931660    -1.2799200     1.1504100
  H        3.5653110    -0.2984830     0.4074420
units angstrom
no_reorient  #important for SAPT in psi4, default
symmetry c1  #important for SAPT in psi4, default
}

set PROPERTIES_ORIGIN ["COM"]
properties('MP2/aug-cc-pvtz', properties = ['dipole'])
--------------------------------------------------------------------------

    Molecular point group: c1
  Charge       = 0
  Multiplicity = 1
  Basis Set: AUG-CC-PVTZ
    Blend: AUG-CC-PVTZ
  Basis Set: (AUG-CC-PVTZ AUX)
    Blend: AUG-CC-PVTZ-JKFIT

    Orbital Energies [Eh]
    ---------------------

    Doubly Occupied:

       1A    -20.513499     2A    -15.582018     3A    -11.342685
       4A    -11.274609     5A    -11.262731     6A    -11.241888
       7A    -11.239861     8A    -11.219732     9A     -1.369930
      10A     -1.268696    11A     -1.089368    12A     -1.003230
      13A     -0.969180    14A     -0.872957    15A     -0.830050
      16A     -0.729548    17A     -0.697639    18A     -0.667252
      19A     -0.638966    20A     -0.605888    21A     -0.590065
      22A     -0.573707    23A     -0.563458    24A     -0.556496
      25A     -0.524974    26A     -0.515029    27A     -0.503773
      28A     -0.489913    29A     -0.476477    30A     -0.411127
      31A     -0.369248

  @DF-RHF Final Energy:  -363.07282287430780

   => Energetics <=

    Nuclear Repulsion Energy =            395.2397274804400809
    One-Electron Energy =               -1276.6371161761348958
    Two-Electron Energy =                 518.3245658213870684
    Total Energy =                       -363.0728228743078034
  Basis Set: (AUG-CC-PVTZ AUX)
    Blend: AUG-CC-PVTZ-RI
    Molecular point group: c1

    Geometry (in Angstrom), charge = 0, multiplicity = 1:

       Center              X                  Y                   Z               Mass
    ------------   -----------------  -----------------  -----------------  -----------------
         O            0.005541782023     2.011826391776    -0.101405749971    15.994914619570
         N            0.250884782023    -0.276766608224    -0.345736749971    14.003074004430
         C           -0.460410317977    -1.444483108224    -0.000124249971    12.000000000000
         C           -1.934578217977    -1.017400608224    -0.035645749971    12.000000000000
         C           -1.833223217977     0.440912391776     0.413730250029    12.000000000000
         C           -0.442607217977     0.867507391776    -0.038347749971    12.000000000000
         C            1.677415782023    -0.243526608224    -0.608852749971    12.000000000000
         C            2.513575782023    -0.390457608224     0.658699250029    12.000000000000
         H           -0.190364217977    -1.880378608224     0.973516250029     1.007825032230
         H           -0.269699217977    -2.275217608224    -0.756044749971     1.007825032230
         H           -2.579493217977    -1.630150608224     0.599472250029     1.007825032230
         H           -2.316975217977    -1.067694608224    -1.059425749971     1.007825032230
         H           -1.876004217977     0.534118391776     1.506006250029     1.007825032230
         H           -2.594971217977     1.103128391776    -0.003835749971     1.007825032230
         H            1.910913782023    -1.036551608224    -1.328450749971     1.007825032230
         H            1.877983782023     0.719773391776    -1.084244749971     1.007825032230
         H            2.288150782023     0.428673391776     1.345833250029     1.007825032230
         H            2.308851782023    -1.338975608224     1.163045250029     1.007825032230
         H            3.580996782023    -0.357538608224     0.420077250029     1.007825032230

  Basis Set: AUG-CC-PVTZ
    Blend: AUG-CC-PVTZ
  Basis Set: (AUG-CC-PVTZ AUX)
    Blend: AUG-CC-PVTZ-JKFIT
	 Reference Energy          =    -363.0728228743078034 [Eh]
	 Singles Energy            =      -0.0000000000000000 [Eh]
	 Same-Spin Energy          =      -0.3771102660848135 [Eh]
	 Opposite-Spin Energy      =      -1.2470519527325350 [Eh]
	 Correlation Energy        =      -1.6241622188173483 [Eh]
	 Total Energy              =    -364.6969850931251358 [Eh]

	 ================> DF-SCS-MP2 Energies <==================
	-----------------------------------------------------------
	 SCS Same-Spin Scale       =       0.3333333333333333 [-]
	 SCS Opposite-Spin Scale   =       1.2000000000000000 [-]
	 SCS Same-Spin Energy      =      -0.1257034220282711 [Eh]
	 SCS Opposite-Spin Energy  =      -1.4964623432790420 [Eh]
	 SCS Correlation Energy    =      -1.6221657653073132 [Eh]
	 SCS Total Energy          =    -364.6949886396151328 [Eh]
	-----------------------------------------------------------

  Dipole Moment: [D]
     X:    -0.4163      Y:    -3.8004      Z:     0.2692     Total:     3.8326

*** Psi4 exiting successfully. Buy a developer a beer!
