                               Psi4 1.3.2 release

  ==> Input File <==

--------------------------------------------------------------------------
#psi4
#
memory 32 gb

molecule  {
0 1
  O       -0.0101440     2.0708820    -0.1140410
  N        0.3211297    -0.2713090    -0.3512788
  C       -0.4908340    -1.4342940    -0.0290780
  C       -1.9502640    -0.9583450    -0.0482810
  C       -1.8489090     0.4999680     0.4010950
  C       -0.4582930     0.9265630    -0.0509830
  C        1.6617300    -0.1844710    -0.6214880
  C        2.4978900    -0.3314020     0.6460640
  H       -0.2060500    -1.8213230     0.9608810
  H       -0.2853850    -2.2161620    -0.7686800
  H       -2.5951790    -1.5710950     0.5868370
  H       -2.3326610    -1.0086390    -1.0720610
  H       -1.8916900     0.5931740     1.4933710
  H       -2.6106570     1.1621840    -0.0164710
  H        1.8952280    -0.9774960    -1.3410860
  H        1.8622980     0.7788290    -1.0968800
  H        2.2724650     0.4877290     1.3331980
  H        2.2931660    -1.2799200     1.1504100
  H        3.5653110    -0.2984830     0.4074420
units angstrom
no_reorient  #important for SAPT in psi4, default
symmetry c1  #important for SAPT in psi4, default
}

set PROPERTIES_ORIGIN ["COM"]
properties('MP2/aug-cc-pvtz', properties = ['dipole'])
--------------------------------------------------------------------------

    Molecular point group: c1
  Charge       = 0
  Multiplicity = 1
  Basis Set: AUG-CC-PVTZ
    Blend: AUG-CC-PVTZ
  Basis Set: (AUG-CC-PVTZ AUX)
    Blend: AUG-CC-PVTZ-JKFIT

    Orbital Energies [Eh]
    ---------------------

    Doubly Occupied:

       1A    -20.525133     2A    -15.573599     3A    -11.353421
       4A    -11.273591     5A    -11.251045     6A    -11.246948
       7A    -11.245655     8A    -11.211532     9A     -1.369856
      10A     -1.257118    11A     -1.097316    12A     -0.994924
      13A     -0.963547    14A     -0.874477    15A     -0.821594
      16A     -0.730128    17A     -0.690777    18A     -0.668652
      19A     -0.642270    20A     -0.607049    21A     -0.589353
      22A     -0.574445    23A     -0.563215    24A     -0.556504
      25A     -0.522661    26A     -0.515064    27A     -0.509918
      28A     -0.489252    29A     -0.478505    30A     -0.412672
      31A     -0.356933

  @DF-RHF Final Energy:  -363.06042662084792

   => Energetics <=

    Nuclear Repulsion Energy =            393.7134220959962931
    One-Electron Energy =               -1273.6133930495150253
    Two-Electron Energy =                 516.8395443326708119
    Total Energy =                       -363.0604266208479203
  Basis Set: (AUG-CC-PVTZ AUX)
    Blend: AUG-CC-PVTZ-RI
    Molecular point group: c1

    Geometry (in Angstrom), charge = 0, multiplicity = 1:

       Center              X                  Y                   Z               Mass
    ------------   -----------------  -----------------  -----------------  -----------------
         O           -0.003534997810     2.023648877752    -0.100552443218    15.994914619570
         N            0.327738702190    -0.318542122248    -0.337790243218    14.003074004430
         C           -0.484224997810    -1.481527122248    -0.015589443218    12.000000000000
         C           -1.943654997810    -1.005578122248    -0.034792443218    12.000000000000
         C           -1.842299997810     0.452734877752     0.414583556782    12.000000000000
         C           -0.451683997810     0.879329877752    -0.037494443218    12.000000000000
         C            1.668339002190    -0.231704122248    -0.607999443218    12.000000000000
         C            2.504499002190    -0.378635122248     0.659552556782    12.000000000000
         H           -0.199440997810    -1.868556122248     0.974369556782     1.007825032230
         H           -0.278775997810    -2.263395122248    -0.755191443218     1.007825032230
         H           -2.588569997810    -1.618328122248     0.600325556782     1.007825032230
         H           -2.326051997810    -1.055872122248    -1.058572443218     1.007825032230
         H           -1.885080997810     0.545940877752     1.506859556782     1.007825032230
         H           -2.604047997810     1.114950877752    -0.002982443218     1.007825032230
         H            1.901837002190    -1.024729122248    -1.327597443218     1.007825032230
         H            1.868907002190     0.731595877752    -1.083391443218     1.007825032230
         H            2.279074002190     0.440495877752     1.346686556782     1.007825032230
         H            2.299775002190    -1.327153122248     1.163898556782     1.007825032230
         H            3.571920002190    -0.345716122248     0.420930556782     1.007825032230

  Basis Set: AUG-CC-PVTZ
    Blend: AUG-CC-PVTZ
  Basis Set: (AUG-CC-PVTZ AUX)
    Blend: AUG-CC-PVTZ-JKFIT
	 Reference Energy          =    -363.0604266208479203 [Eh]
	 Singles Energy            =      -0.0000000000000000 [Eh]
	 Same-Spin Energy          =      -0.3780628024163709 [Eh]
	 Opposite-Spin Energy      =      -1.2491150515966007 [Eh]
	 Correlation Energy        =      -1.6271778540129715 [Eh]
	 Total Energy              =    -364.6876044748609047 [Eh]

	 ================> DF-SCS-MP2 Energies <==================
	-----------------------------------------------------------
	 SCS Same-Spin Scale       =       0.3333333333333333 [-]
	 SCS Opposite-Spin Scale   =       1.2000000000000000 [-]
	 SCS Same-Spin Energy      =      -0.1260209341387903 [Eh]
	 SCS Opposite-Spin Energy  =      -1.4989380619159209 [Eh]
	 SCS Correlation Energy    =      -1.6249589960547113 [Eh]
	 SCS Total Energy          =    -364.6853856169026358 [Eh]
	-----------------------------------------------------------

  Dipole Moment: [D]
     X:    -0.8946      Y:    -3.5450      Z:     0.2868     Total:     3.6674

*** Psi4 exiting successfully. Buy a developer a beer!
