                               Psi4 1.3.2 release

  ==> Input File <==

--------------------------------------------------------------------------
#psi4
#
memory 32 gb

molecule  {
0 1
  O       -0.0101440     2.0708820    -0.1140410
  N        0.2351990    -0.2177110    -0.3583720
  C       -0.4908340    -1.4342940    -0.0290780
  C       -1.9502640    -0.9583450    -0.0482810
  C       -1.8489090     0.4999680     0.4010950
  C       -0.4582930     0.9265630    -0.0509830
  C        1.6617300    -0.1844710    -0.6214880
  C        2.4978900    -0.3314020     0.6460640
  H       -0.1851908    -1.8866822     0.9263483
  H       -0.2853850    -2.2161620    -0.7686800
  H       -2.5951790    -1.5710950     0.5868370
  H       -2.3326610    -1.0086390    -1.0720610
  H       -1.8916900     0.5931740     1.4933710
  H       -2.6106570     1.1621840    -0.0164710
  H        1.8952280    -0.9774960    -1.3410860
  H        1.8622980     0.7788290    -1.0968800
  H        2.2724650     0.4877290     1.3331980
  H        2.2931660    -1.2799200     1.1504100
  H        3.5653110    -0.2984830     0.4074420
units angstrom
no_reorient  #important for SAPT in psi4, default
symmetry c1  #important for SAPT in psi4, default
}

set PROPERTIES_ORIGIN ["COM"]
properties('MP2/aug-cc-pvtz', properties = ['dipole'])
--------------------------------------------------------------------------

    Molecular point group: c1
  Charge       = 0
  Multiplicity = 1
  Basis Set: AUG-CC-PVTZ
    Blend: AUG-CC-PVTZ
  Basis Set: (AUG-CC-PVTZ AUX)
    Blend: AUG-CC-PVTZ-JKFIT

    Orbital Energies [Eh]
    ---------------------

    Doubly Occupied:

       1A    -20.511909     2A    -15.581812     3A    -11.341650
       4A    -11.274705     5A    -11.261040     6A    -11.242900
       7A    -11.240002     8A    -11.218749     9A     -1.367117
      10A     -1.258516    11A     -1.087797    12A     -1.000614
      13A     -0.972383    14A     -0.870296    15A     -0.830188
      16A     -0.726983    17A     -0.693118    18A     -0.667602
      19A     -0.639540    20A     -0.604589    21A     -0.589190
      22A     -0.571169    23A     -0.563083    24A     -0.554971
      25A     -0.523172    26A     -0.513100    27A     -0.509716
      28A     -0.490249    29A     -0.476945    30A     -0.409770
      31A     -0.369681

  @DF-RHF Final Energy:  -363.07534114670216

   => Energetics <=

    Nuclear Repulsion Energy =            394.1884107217654787
    One-Electron Energy =               -1274.6023934625145557
    Two-Electron Energy =                 517.3386415940469760
    Total Energy =                       -363.0753411467021579
  Basis Set: (AUG-CC-PVTZ AUX)
    Blend: AUG-CC-PVTZ-RI
    Molecular point group: c1

    Geometry (in Angstrom), charge = 0, multiplicity = 1:

       Center              X                  Y                   Z               Mass
    ------------   -----------------  -----------------  -----------------  -----------------
         O            0.006919804448     2.017594389625    -0.099366338657    15.994914619570
         N            0.252262804448    -0.270998610375    -0.343697338657    14.003074004430
         C           -0.473770195552    -1.487581610375    -0.014403338657    12.000000000000
         C           -1.933200195552    -1.011632610375    -0.033606338657    12.000000000000
         C           -1.831845195552     0.446680389625     0.415769661343    12.000000000000
         C           -0.441229195552     0.873275389625    -0.036308338657    12.000000000000
         C            1.678793804448    -0.237758610375    -0.606813338657    12.000000000000
         C            2.514953804448    -0.384689610375     0.660738661343    12.000000000000
         H           -0.168126995552    -1.939969810375     0.941022961343     1.007825032230
         H           -0.268321195552    -2.269449610375    -0.754005338657     1.007825032230
         H           -2.578115195552    -1.624382610375     0.601511661343     1.007825032230
         H           -2.315597195552    -1.061926610375    -1.057386338657     1.007825032230
         H           -1.874626195552     0.539886389625     1.508045661343     1.007825032230
         H           -2.593593195552     1.108896389625    -0.001796338657     1.007825032230
         H            1.912291804448    -1.030783610375    -1.326411338657     1.007825032230
         H            1.879361804448     0.725541389625    -1.082205338657     1.007825032230
         H            2.289528804448     0.434441389625     1.347872661343     1.007825032230
         H            2.310229804448    -1.333207610375     1.165084661343     1.007825032230
         H            3.582374804448    -0.351770610375     0.422116661343     1.007825032230

  Basis Set: AUG-CC-PVTZ
    Blend: AUG-CC-PVTZ
  Basis Set: (AUG-CC-PVTZ AUX)
    Blend: AUG-CC-PVTZ-JKFIT
	 Reference Energy          =    -363.0753411467021579 [Eh]
	 Singles Energy            =      -0.0000000000000000 [Eh]
	 Same-Spin Energy          =      -0.3767543515996601 [Eh]
	 Opposite-Spin Energy      =      -1.2468435587929994 [Eh]
	 Correlation Energy        =      -1.6235979103926594 [Eh]
	 Total Energy              =    -364.6989390570948331 [Eh]

	 ================> DF-SCS-MP2 Energies <==================
	-----------------------------------------------------------
	 SCS Same-Spin Scale       =       0.3333333333333333 [-]
	 SCS Opposite-Spin Scale   =       1.2000000000000000 [-]
	 SCS Same-Spin Energy      =      -0.1255847838665534 [Eh]
	 SCS Opposite-Spin Energy  =      -1.4962122705515992 [Eh]
	 SCS Correlation Energy    =      -1.6217970544181526 [Eh]
	 SCS Total Energy          =    -364.6971382011203104 [Eh]
	-----------------------------------------------------------

  Dipole Moment: [D]
     X:    -0.4533      Y:    -3.9450      Z:     0.2545     Total:     3.9791

*** Psi4 exiting successfully. Buy a developer a beer!
