                               Psi4 1.3.2 release

  ==> Input File <==

--------------------------------------------------------------------------
#psi4
#
memory 32 gb

molecule  {
0 1
  O       -0.0101440     2.0708820    -0.1140410
  N        0.2307880    -0.2148195    -0.3831406
  C       -0.4908340    -1.4342940    -0.0290780
  C       -1.9502640    -0.9583450    -0.0482810
  C       -1.8489090     0.4999680     0.4010950
  C       -0.4582930     0.9265630    -0.0509830
  C        1.6617300    -0.1844710    -0.6214880
  C        2.4978900    -0.3314020     0.6460640
  H       -0.2060500    -1.8213230     0.9608810
  H       -0.2853850    -2.2161620    -0.7686800
  H       -2.5951790    -1.5710950     0.5868370
  H       -2.3326610    -1.0086390    -1.0720610
  H       -1.8916900     0.5931740     1.4933710
  H       -2.6106570     1.1621840    -0.0164710
  H        1.8952280    -0.9774960    -1.3410860
  H        1.8622980     0.7788290    -1.0968800
  H        2.2724650     0.4877290     1.3331980
  H        2.2931660    -1.2799200     1.1504100
  H        3.5653110    -0.2984830     0.4074420
units angstrom
no_reorient  #important for SAPT in psi4, default
symmetry c1  #important for SAPT in psi4, default
}

set PROPERTIES_ORIGIN ["COM"]
properties('MP2/aug-cc-pvtz', properties = ['dipole'])
--------------------------------------------------------------------------

    Molecular point group: c1
  Charge       = 0
  Multiplicity = 1
  Basis Set: AUG-CC-PVTZ
    Blend: AUG-CC-PVTZ
  Basis Set: (AUG-CC-PVTZ AUX)
    Blend: AUG-CC-PVTZ-JKFIT

    Orbital Energies [Eh]
    ---------------------

    Doubly Occupied:

       1A    -20.512145     2A    -15.581180     3A    -11.341558
       4A    -11.275078     5A    -11.260529     6A    -11.242367
       7A    -11.240189     8A    -11.219066     9A     -1.367048
      10A     -1.257350    11A     -1.087716    12A     -1.000481
      13A     -0.971557    14A     -0.870484    15A     -0.829117
      16A     -0.725532    17A     -0.693195    18A     -0.666928
      19A     -0.639283    20A     -0.604394    21A     -0.590184
      22A     -0.570834    23A     -0.563673    24A     -0.554573
      25A     -0.524089    26A     -0.511760    27A     -0.509477
      28A     -0.489462    29A     -0.477757    30A     -0.409892
      31A     -0.370561

  @DF-RHF Final Energy:  -363.07567108343574

   => Energetics <=

    Nuclear Repulsion Energy =            394.1268325100123207
    One-Electron Energy =               -1274.4900872068162698
    Two-Electron Energy =                 517.2875836133682697
    Total Energy =                       -363.0756710834357364
  Basis Set: (AUG-CC-PVTZ AUX)
    Blend: AUG-CC-PVTZ-RI
    Molecular point group: c1

    Geometry (in Angstrom), charge = 0, multiplicity = 1:

       Center              X                  Y                   Z               Mass
    ------------   -----------------  -----------------  -----------------  -----------------
         O            0.007651914530     2.016653845727    -0.096607031923    15.994914619570
         N            0.248583914530    -0.269047654273    -0.365706631923    14.003074004430
         C           -0.473038085470    -1.488522154273    -0.011644031923    12.000000000000
         C           -1.932468085470    -1.012573154273    -0.030847031923    12.000000000000
         C           -1.831113085470     0.445739845727     0.418528968077    12.000000000000
         C           -0.440497085470     0.872334845727    -0.033549031923    12.000000000000
         C            1.679525914530    -0.238699154273    -0.604054031923    12.000000000000
         C            2.515685914530    -0.385630154273     0.663497968077    12.000000000000
         H           -0.188254085470    -1.875551154273     0.978314968077     1.007825032230
         H           -0.267589085470    -2.270390154273    -0.751246031923     1.007825032230
         H           -2.577383085470    -1.625323154273     0.604270968077     1.007825032230
         H           -2.314865085470    -1.062867154273    -1.054627031923     1.007825032230
         H           -1.873894085470     0.538945845727     1.510804968077     1.007825032230
         H           -2.592861085470     1.107955845727     0.000962968077     1.007825032230
         H            1.913023914530    -1.031724154273    -1.323652031923     1.007825032230
         H            1.880093914530     0.724600845727    -1.079446031923     1.007825032230
         H            2.290260914530     0.433500845727     1.350631968077     1.007825032230
         H            2.310961914530    -1.334148154273     1.167843968077     1.007825032230
         H            3.583106914530    -0.352711154273     0.424875968077     1.007825032230

  Basis Set: AUG-CC-PVTZ
    Blend: AUG-CC-PVTZ
  Basis Set: (AUG-CC-PVTZ AUX)
    Blend: AUG-CC-PVTZ-JKFIT
	 Reference Energy          =    -363.0756710834357364 [Eh]
	 Singles Energy            =      -0.0000000000000000 [Eh]
	 Same-Spin Energy          =      -0.3767501895285457 [Eh]
	 Opposite-Spin Energy      =      -1.2469631121937450 [Eh]
	 Correlation Energy        =      -1.6237133017222907 [Eh]
	 Total Energy              =    -364.6993843851580550 [Eh]

	 ================> DF-SCS-MP2 Energies <==================
	-----------------------------------------------------------
	 SCS Same-Spin Scale       =       0.3333333333333333 [-]
	 SCS Opposite-Spin Scale   =       1.2000000000000000 [-]
	 SCS Same-Spin Energy      =      -0.1255833965095152 [Eh]
	 SCS Opposite-Spin Energy  =      -1.4963557346324941 [Eh]
	 SCS Correlation Energy    =      -1.6219391311420093 [Eh]
	 SCS Total Energy          =    -364.6976102145777645 [Eh]
	-----------------------------------------------------------

  Dipole Moment: [D]
     X:    -0.4639      Y:    -3.9303      Z:     0.2973     Total:     3.9688

*** Psi4 exiting successfully. Buy a developer a beer!
