                               Psi4 1.3.2 release

  ==> Input File <==

--------------------------------------------------------------------------
#psi4
#
memory 32 gb

molecule  {
0 1
  O       -0.0101440     2.0708820    -0.1140410
  N        0.2351990    -0.2177110    -0.3583720
  C       -0.4908340    -1.4342940    -0.0290780
  C       -1.9502640    -0.9583450    -0.0482810
  C       -1.8489090     0.4999680     0.4010950
  C       -0.4021332     0.8041939     0.0344111
  C        1.6617300    -0.1844710    -0.6214880
  C        2.4978900    -0.3314020     0.6460640
  H       -0.2060500    -1.8213230     0.9608810
  H       -0.2853850    -2.2161620    -0.7686800
  H       -2.5951790    -1.5710950     0.5868370
  H       -2.3326610    -1.0086390    -1.0720610
  H       -1.8916900     0.5931740     1.4933710
  H       -2.6106570     1.1621840    -0.0164710
  H        1.8952280    -0.9774960    -1.3410860
  H        1.8622980     0.7788290    -1.0968800
  H        2.2724650     0.4877290     1.3331980
  H        2.2931660    -1.2799200     1.1504100
  H        3.5653110    -0.2984830     0.4074420
units angstrom
no_reorient  #important for SAPT in psi4, default
symmetry c1  #important for SAPT in psi4, default
}

set PROPERTIES_ORIGIN ["COM"]
properties('MP2/aug-cc-pvtz', properties = ['dipole'])
--------------------------------------------------------------------------

    Molecular point group: c1
  Charge       = 0
  Multiplicity = 1
  Basis Set: AUG-CC-PVTZ
    Blend: AUG-CC-PVTZ
  Basis Set: (AUG-CC-PVTZ AUX)
    Blend: AUG-CC-PVTZ-JKFIT

    Orbital Energies [Eh]
    ---------------------

    Doubly Occupied:

       1A    -20.484754     2A    -15.601594     3A    -11.334605
       4A    -11.284692     5A    -11.271334     6A    -11.245160
       7A    -11.240907     8A    -11.226464     9A     -1.351923
      10A     -1.240453    11A     -1.097653    12A     -1.017687
      13A     -0.979425    14A     -0.885350    15A     -0.842134
      16A     -0.733465    17A     -0.706888    18A     -0.672592
      19A     -0.633323    20A     -0.611146    21A     -0.596868
      22A     -0.573170    23A     -0.564906    24A     -0.530424
      25A     -0.521555    26A     -0.515051    27A     -0.512013
      28A     -0.497815    29A     -0.465049    30A     -0.390181
      31A     -0.370375

  @DF-RHF Final Energy:  -363.04468677280209

   => Energetics <=

    Nuclear Repulsion Energy =            395.3391320468219874
    One-Electron Energy =               -1276.7697285857027509
    Two-Electron Energy =                 518.3859097660786119
    Total Energy =                       -363.0446867728021516
  Basis Set: (AUG-CC-PVTZ AUX)
    Blend: AUG-CC-PVTZ-RI
    Molecular point group: c1

    Geometry (in Angstrom), charge = 0, multiplicity = 1:

       Center              X                  Y                   Z               Mass
    ------------   -----------------  -----------------  -----------------  -----------------
         O            0.001146266134     2.029997185500    -0.108735758912    15.994914619570
         N            0.246489266134    -0.258595814500    -0.353066758912    14.003074004430
         C           -0.479543733866    -1.475178814500    -0.023772758912    12.000000000000
         C           -1.938973733866    -0.999229814500    -0.042975758912    12.000000000000
         C           -1.837618733866     0.459083185500     0.406400241088    12.000000000000
         C           -0.390842933866     0.763309085500     0.039716341088    12.000000000000
         C            1.673020266134    -0.225355814500    -0.616182758912    12.000000000000
         C            2.509180266134    -0.372286814500     0.651369241088    12.000000000000
         H           -0.194759733866    -1.862207814500     0.966186241088     1.007825032230
         H           -0.274094733866    -2.257046814500    -0.763374758912     1.007825032230
         H           -2.583888733866    -1.611979814500     0.592142241088     1.007825032230
         H           -2.321370733866    -1.049523814500    -1.066755758912     1.007825032230
         H           -1.880399733866     0.552289185500     1.498676241088     1.007825032230
         H           -2.599366733866     1.121299185500    -0.011165758912     1.007825032230
         H            1.906518266134    -1.018380814500    -1.335780758912     1.007825032230
         H            1.873588266134     0.737944185500    -1.091574758912     1.007825032230
         H            2.283755266134     0.446844185500     1.338503241088     1.007825032230
         H            2.304456266134    -1.320804814500     1.155715241088     1.007825032230
         H            3.576601266134    -0.339367814500     0.412747241088     1.007825032230

  Basis Set: AUG-CC-PVTZ
    Blend: AUG-CC-PVTZ
  Basis Set: (AUG-CC-PVTZ AUX)
    Blend: AUG-CC-PVTZ-JKFIT
	 Reference Energy          =    -363.0446867728020948 [Eh]
	 Singles Energy            =      -0.0000000000000000 [Eh]
	 Same-Spin Energy          =      -0.3784656110808522 [Eh]
	 Opposite-Spin Energy      =      -1.2505500413887978 [Eh]
	 Correlation Energy        =      -1.6290156524696500 [Eh]
	 Total Energy              =    -364.6737024252717561 [Eh]

	 ================> DF-SCS-MP2 Energies <==================
	-----------------------------------------------------------
	 SCS Same-Spin Scale       =       0.3333333333333333 [-]
	 SCS Opposite-Spin Scale   =       1.2000000000000000 [-]
	 SCS Same-Spin Energy      =      -0.1261552036936174 [Eh]
	 SCS Opposite-Spin Energy  =      -1.5006600496665572 [Eh]
	 SCS Correlation Energy    =      -1.6268152533601745 [Eh]
	 SCS Total Energy          =    -364.6715020261622726 [Eh]
	-----------------------------------------------------------

  Dipole Moment: [D]
     X:    -0.2252      Y:    -4.9594      Z:     0.2026     Total:     4.9687

*** Psi4 exiting successfully. Buy a developer a beer!
