                               Psi4 1.3.2 release

  ==> Input File <==

--------------------------------------------------------------------------
#psi4
#
memory 32 gb

molecule  {
0 1
  O       -0.0101440     2.0708820    -0.1140410
  N        0.2351990    -0.2177110    -0.3583720
  C       -0.4908340    -1.4342940    -0.0290780
  C       -1.9570026    -0.9869124     0.0547760
  C       -1.8489090     0.4999680     0.4010950
  C       -0.4582930     0.9265630    -0.0509830
  C        1.6617300    -0.1844710    -0.6214880
  C        2.4978900    -0.3314020     0.6460640
  H       -0.2060500    -1.8213230     0.9608810
  H       -0.2853850    -2.2161620    -0.7686800
  H       -2.5951790    -1.5710950     0.5868370
  H       -2.3326610    -1.0086390    -1.0720610
  H       -1.8916900     0.5931740     1.4933710
  H       -2.6106570     1.1621840    -0.0164710
  H        1.8952280    -0.9774960    -1.3410860
  H        1.8622980     0.7788290    -1.0968800
  H        2.2724650     0.4877290     1.3331980
  H        2.2931660    -1.2799200     1.1504100
  H        3.5653110    -0.2984830     0.4074420
units angstrom
no_reorient  #important for SAPT in psi4, default
symmetry c1  #important for SAPT in psi4, default
}

set PROPERTIES_ORIGIN ["COM"]
properties('MP2/aug-cc-pvtz', properties = ['dipole'])
--------------------------------------------------------------------------

    Molecular point group: c1
  Charge       = 0
  Multiplicity = 1
  Basis Set: AUG-CC-PVTZ
    Blend: AUG-CC-PVTZ
  Basis Set: (AUG-CC-PVTZ AUX)
    Blend: AUG-CC-PVTZ-JKFIT

    Orbital Energies [Eh]
    ---------------------

    Doubly Occupied:

       1A    -20.512636     2A    -15.582396     3A    -11.343062
       4A    -11.276166     5A    -11.261865     6A    -11.245077
       7A    -11.241443     8A    -11.218864     9A     -1.367687
      10A     -1.258614    11A     -1.088336    12A     -1.001786
      13A     -0.973063    14A     -0.871884    15A     -0.830779
      16A     -0.728489    17A     -0.692416    18A     -0.666909
      19A     -0.643210    20A     -0.605401    21A     -0.587658
      22A     -0.573553    23A     -0.570818    24A     -0.559791
      25A     -0.523575    26A     -0.510472    27A     -0.509147
      28A     -0.492432    29A     -0.460117    30A     -0.412070
      31A     -0.369647

  @DF-RHF Final Energy:  -363.06326187073262

   => Energetics <=

    Nuclear Repulsion Energy =            393.9777639121415973
    One-Electron Energy =               -1274.1233213492396317
    Two-Electron Energy =                 517.0822955663653602
    Total Energy =                       -363.0632618707326174
  Basis Set: (AUG-CC-PVTZ AUX)
    Blend: AUG-CC-PVTZ-RI
    Molecular point group: c1

    Geometry (in Angstrom), charge = 0, multiplicity = 1:

       Center              X                  Y                   Z               Mass
    ------------   -----------------  -----------------  -----------------  -----------------
         O            0.007820776878     2.020043347970    -0.110610070751    15.994914619570
         N            0.253163776878    -0.268549652030    -0.354941070751    14.003074004430
         C           -0.472869223122    -1.485132652030    -0.025647070751    12.000000000000
         C           -1.939037823122    -1.037751052030     0.058206929249    12.000000000000
         C           -1.830944223122     0.449129347970     0.404525929249    12.000000000000
         C           -0.440328223122     0.875724347970    -0.047552070751    12.000000000000
         C            1.679694776878    -0.235309652030    -0.618057070751    12.000000000000
         C            2.515854776878    -0.382240652030     0.649494929249    12.000000000000
         H           -0.188085223122    -1.872161652030     0.964311929249     1.007825032230
         H           -0.267420223122    -2.267000652030    -0.765249070751     1.007825032230
         H           -2.577214223122    -1.621933652030     0.590267929249     1.007825032230
         H           -2.314696223122    -1.059477652030    -1.068630070751     1.007825032230
         H           -1.873725223122     0.542335347970     1.496801929249     1.007825032230
         H           -2.592692223122     1.111345347970    -0.013040070751     1.007825032230
         H            1.913192776878    -1.028334652030    -1.337655070751     1.007825032230
         H            1.880262776878     0.727990347970    -1.093449070751     1.007825032230
         H            2.290429776878     0.436890347970     1.336628929249     1.007825032230
         H            2.311130776878    -1.330758652030     1.153840929249     1.007825032230
         H            3.583275776878    -0.349321652030     0.410872929249     1.007825032230

  Basis Set: AUG-CC-PVTZ
    Blend: AUG-CC-PVTZ
  Basis Set: (AUG-CC-PVTZ AUX)
    Blend: AUG-CC-PVTZ-JKFIT
	 Reference Energy          =    -363.0632618707326174 [Eh]
	 Singles Energy            =      -0.0000000000000000 [Eh]
	 Same-Spin Energy          =      -0.3769174711464277 [Eh]
	 Opposite-Spin Energy      =      -1.2474957273632805 [Eh]
	 Correlation Energy        =      -1.6244131985097083 [Eh]
	 Total Energy              =    -364.6876750692423457 [Eh]

	 ================> DF-SCS-MP2 Energies <==================
	-----------------------------------------------------------
	 SCS Same-Spin Scale       =       0.3333333333333333 [-]
	 SCS Opposite-Spin Scale   =       1.2000000000000000 [-]
	 SCS Same-Spin Energy      =      -0.1256391570488092 [Eh]
	 SCS Opposite-Spin Energy  =      -1.4969948728359366 [Eh]
	 SCS Correlation Energy    =      -1.6226340298847459 [Eh]
	 SCS Total Energy          =    -364.6858959006173677 [Eh]
	-----------------------------------------------------------

  Dipole Moment: [D]
     X:    -0.4416      Y:    -3.9513      Z:     0.3294     Total:     3.9895

*** Psi4 exiting successfully. Buy a developer a beer!
