                               Psi4 1.3.2 release

  ==> Input File <==

--------------------------------------------------------------------------
#psi4
#
memory 32 gb

molecule  {
0 1
  O       -0.0101440     2.0708820    -0.1140410
  N        0.2351990    -0.2177110    -0.3583720
  C       -0.4908340    -1.4342940    -0.0290780
  C       -1.8219989    -0.9866675     0.0432135
  C       -1.8489090     0.4999680     0.4010950
  C       -0.4582930     0.9265630    -0.0509830
  C        1.6617300    -0.1844710    -0.6214880
  C        2.4978900    -0.3314020     0.6460640
  H       -0.2060500    -1.8213230     0.9608810
  H       -0.2853850    -2.2161620    -0.7686800
  H       -2.5951790    -1.5710950     0.5868370
  H       -2.3326610    -1.0086390    -1.0720610
  H       -1.8916900     0.5931740     1.4933710
  H       -2.6106570     1.1621840    -0.0164710
  H        1.8952280    -0.9774960    -1.3410860
  H        1.8622980     0.7788290    -1.0968800
  H        2.2724650     0.4877290     1.3331980
  H        2.2931660    -1.2799200     1.1504100
  H        3.5653110    -0.2984830     0.4074420
units angstrom
no_reorient  #important for SAPT in psi4, default
symmetry c1  #important for SAPT in psi4, default
}

set PROPERTIES_ORIGIN ["COM"]
properties('MP2/aug-cc-pvtz', properties = ['dipole'])
--------------------------------------------------------------------------

    Molecular point group: c1
  Charge       = 0
  Multiplicity = 1
  Basis Set: AUG-CC-PVTZ
    Blend: AUG-CC-PVTZ
  Basis Set: (AUG-CC-PVTZ AUX)
    Blend: AUG-CC-PVTZ-JKFIT

    Orbital Energies [Eh]
    ---------------------

    Doubly Occupied:

       1A    -20.511684     2A    -15.582580     3A    -11.341938
       4A    -11.271076     5A    -11.261690     6A    -11.249138
       7A    -11.242002     8A    -11.219194     9A     -1.368142
      10A     -1.266050    11A     -1.098403    12A     -1.000448
      13A     -0.987986    14A     -0.867983    15A     -0.821529
      16A     -0.731108    17A     -0.697136    18A     -0.675214
      19A     -0.639783    20A     -0.603376    21A     -0.588503
      22A     -0.573169    23A     -0.566086    24A     -0.559114
      25A     -0.538516    26A     -0.516359    27A     -0.506809
      28A     -0.494429    29A     -0.445818    30A     -0.407958
      31A     -0.370866

  @DF-RHF Final Energy:  -363.04879506798636

   => Energetics <=

    Nuclear Repulsion Energy =            396.2392748262773807
    One-Electron Energy =               -1278.5679628125917588
    Two-Electron Energy =                 519.2798929183280734
    Total Energy =                       -363.0487950679863616
  Basis Set: (AUG-CC-PVTZ AUX)
    Blend: AUG-CC-PVTZ-RI
    Molecular point group: c1

    Geometry (in Angstrom), charge = 0, multiplicity = 1:

       Center              X                  Y                   Z               Mass
    ------------   -----------------  -----------------  -----------------  -----------------
         O           -0.006505241688     2.020017360224    -0.109383107419    15.994914619570
         N            0.238837758312    -0.268575639776    -0.353714107419    14.003074004430
         C           -0.487195241688    -1.485158639776    -0.024420107419    12.000000000000
         C           -1.818360141688    -1.037532139776     0.047871392581    12.000000000000
         C           -1.845270241688     0.449103360224     0.405752892581    12.000000000000
         C           -0.454654241688     0.875698360224    -0.046325107419    12.000000000000
         C            1.665368758312    -0.235335639776    -0.616830107419    12.000000000000
         C            2.501528758312    -0.382266639776     0.650721892581    12.000000000000
         H           -0.202411241688    -1.872187639776     0.965538892581     1.007825032230
         H           -0.281746241688    -2.267026639776    -0.764022107419     1.007825032230
         H           -2.591540241688    -1.621959639776     0.591494892581     1.007825032230
         H           -2.329022241688    -1.059503639776    -1.067403107419     1.007825032230
         H           -1.888051241688     0.542309360224     1.498028892581     1.007825032230
         H           -2.607018241688     1.111319360224    -0.011813107419     1.007825032230
         H            1.898866758312    -1.028360639776    -1.336428107419     1.007825032230
         H            1.865936758312     0.727964360224    -1.092222107419     1.007825032230
         H            2.276103758312     0.436864360224     1.337855892581     1.007825032230
         H            2.296804758312    -1.330784639776     1.155067892581     1.007825032230
         H            3.568949758312    -0.349347639776     0.412099892581     1.007825032230

  Basis Set: AUG-CC-PVTZ
    Blend: AUG-CC-PVTZ
  Basis Set: (AUG-CC-PVTZ AUX)
    Blend: AUG-CC-PVTZ-JKFIT
	 Reference Energy          =    -363.0487950679863616 [Eh]
	 Singles Energy            =      -0.0000000000000000 [Eh]
	 Same-Spin Energy          =      -0.3781437194975822 [Eh]
	 Opposite-Spin Energy      =      -1.2487886459829993 [Eh]
	 Correlation Energy        =      -1.6269323654805816 [Eh]
	 Total Energy              =    -364.6757274334669319 [Eh]

	 ================> DF-SCS-MP2 Energies <==================
	-----------------------------------------------------------
	 SCS Same-Spin Scale       =       0.3333333333333333 [-]
	 SCS Opposite-Spin Scale   =       1.2000000000000000 [-]
	 SCS Same-Spin Energy      =      -0.1260479064991941 [Eh]
	 SCS Opposite-Spin Energy  =      -1.4985463751795991 [Eh]
	 SCS Correlation Energy    =      -1.6245942816787933 [Eh]
	 SCS Total Energy          =    -364.6733893496651717 [Eh]
	-----------------------------------------------------------

  Dipole Moment: [D]
     X:    -0.4158      Y:    -3.9255      Z:     0.3343     Total:     3.9615

*** Psi4 exiting successfully. Buy a developer a beer!
