                               Psi4 1.3.2 release

  ==> Input File <==

--------------------------------------------------------------------------
#psi4
#
memory 32 gb

molecule  {
0 1
  O       -0.0101440     2.0708820    -0.1140410
  N        0.2351990    -0.2177110    -0.3583720
  C       -0.4908340    -1.4342940    -0.0290780
  C       -1.9502640    -0.9583450    -0.0482810
  C       -1.8489090     0.4999680     0.4010950
  C       -0.4582930     0.9265630    -0.0509830
  C        1.6617300    -0.1844710    -0.6214880
  C        2.4978900    -0.3314020     0.6460640
  H       -0.2282966    -1.7540782     0.9905908
  H       -0.2853850    -2.2161620    -0.7686800
  H       -2.5951790    -1.5710950     0.5868370
  H       -2.3326610    -1.0086390    -1.0720610
  H       -1.8916900     0.5931740     1.4933710
  H       -2.6106570     1.1621840    -0.0164710
  H        1.8952280    -0.9774960    -1.3410860
  H        1.8622980     0.7788290    -1.0968800
  H        2.2724650     0.4877290     1.3331980
  H        2.2931660    -1.2799200     1.1504100
  H        3.5653110    -0.2984830     0.4074420
units angstrom
no_reorient  #important for SAPT in psi4, default
symmetry c1  #important for SAPT in psi4, default
}

set PROPERTIES_ORIGIN ["COM"]
properties('MP2/aug-cc-pvtz', properties = ['dipole'])
--------------------------------------------------------------------------

    Molecular point group: c1
  Charge       = 0
  Multiplicity = 1
  Basis Set: AUG-CC-PVTZ
    Blend: AUG-CC-PVTZ
  Basis Set: (AUG-CC-PVTZ AUX)
    Blend: AUG-CC-PVTZ-JKFIT

    Orbital Energies [Eh]
    ---------------------

    Doubly Occupied:

       1A    -20.511292     2A    -15.580114     3A    -11.341052
       4A    -11.275102     5A    -11.260787     6A    -11.242033
       7A    -11.239944     8A    -11.218543     9A     -1.366608
      10A     -1.258514    11A     -1.087975    12A     -1.000397
      13A     -0.971847    14A     -0.870206    15A     -0.828791
      16A     -0.725857    17A     -0.693823    18A     -0.667781
      19A     -0.639371    20A     -0.604668    21A     -0.589473
      22A     -0.573015    23A     -0.563243    24A     -0.554260
      25A     -0.522758    26A     -0.513248    27A     -0.509128
      28A     -0.490037    29A     -0.477618    30A     -0.409004
      31A     -0.369041

  @DF-RHF Final Energy:  -363.07527170377284

   => Energetics <=

    Nuclear Repulsion Energy =            394.3946352035355858
    One-Electron Energy =               -1275.0287497488952795
    Two-Electron Energy =                 517.5588428415868520
    Total Energy =                       -363.0752717037728416
  Basis Set: (AUG-CC-PVTZ AUX)
    Blend: AUG-CC-PVTZ-RI
    Molecular point group: c1

    Geometry (in Angstrom), charge = 0, multiplicity = 1:

       Center              X                  Y                   Z               Mass
    ------------   -----------------  -----------------  -----------------  -----------------
         O            0.007303970905     2.016412599496    -0.099938879096    15.994914619570
         N            0.252646970905    -0.272180400504    -0.344269879096    14.003074004430
         C           -0.473386029095    -1.488763400504    -0.014975879096    12.000000000000
         C           -1.932816029095    -1.012814400504    -0.034178879096    12.000000000000
         C           -1.831461029095     0.445498599496     0.415197120904    12.000000000000
         C           -0.440845029095     0.872093599496    -0.036880879096    12.000000000000
         C            1.679177970905    -0.238940400504    -0.607385879096    12.000000000000
         C            2.515337970905    -0.385871400504     0.660166120904    12.000000000000
         H           -0.210848629095    -1.808547600504     1.004692920904     1.007825032230
         H           -0.267937029095    -2.270631400504    -0.754577879096     1.007825032230
         H           -2.577731029095    -1.625564400504     0.600939120904     1.007825032230
         H           -2.315213029095    -1.063108400504    -1.057958879096     1.007825032230
         H           -1.874242029095     0.538704599496     1.507473120904     1.007825032230
         H           -2.593209029095     1.107714599496    -0.002368879096     1.007825032230
         H            1.912675970905    -1.031965400504    -1.326983879096     1.007825032230
         H            1.879745970905     0.724359599496    -1.082777879096     1.007825032230
         H            2.289912970905     0.433259599496     1.347300120904     1.007825032230
         H            2.310613970905    -1.334389400504     1.164512120904     1.007825032230
         H            3.582758970905    -0.352952400504     0.421544120904     1.007825032230

  Basis Set: AUG-CC-PVTZ
    Blend: AUG-CC-PVTZ
  Basis Set: (AUG-CC-PVTZ AUX)
    Blend: AUG-CC-PVTZ-JKFIT
	 Reference Energy          =    -363.0752717037728416 [Eh]
	 Singles Energy            =      -0.0000000000000000 [Eh]
	 Same-Spin Energy          =      -0.3768765580040693 [Eh]
	 Opposite-Spin Energy      =      -1.2470854660567872 [Eh]
	 Correlation Energy        =      -1.6239620240608565 [Eh]
	 Total Energy              =    -364.6992337278337004 [Eh]

	 ================> DF-SCS-MP2 Energies <==================
	-----------------------------------------------------------
	 SCS Same-Spin Scale       =       0.3333333333333333 [-]
	 SCS Opposite-Spin Scale   =       1.2000000000000000 [-]
	 SCS Same-Spin Energy      =      -0.1256255193346897 [Eh]
	 SCS Opposite-Spin Energy  =      -1.4965025592681445 [Eh]
	 SCS Correlation Energy    =      -1.6221280786028343 [Eh]
	 SCS Total Energy          =    -364.6973997823756690 [Eh]
	-----------------------------------------------------------

  Dipole Moment: [D]
     X:    -0.4728      Y:    -3.9498      Z:     0.2494     Total:     3.9858

*** Psi4 exiting successfully. Buy a developer a beer!
