                               Psi4 1.3.2 release

  ==> Input File <==

--------------------------------------------------------------------------
#psi4
#
memory 32 gb

molecule  {
0 1
  O       -0.0101440     2.0708820    -0.1140410
  N        0.2351990    -0.2177110    -0.3583720
  C       -0.4908340    -1.4342940    -0.0290780
  C       -1.9749137    -0.9595218    -0.0381098
  C       -1.8489090     0.4999680     0.4010950
  C       -0.4582930     0.9265630    -0.0509830
  C        1.6617300    -0.1844710    -0.6214880
  C        2.4978900    -0.3314020     0.6460640
  H       -0.2060500    -1.8213230     0.9608810
  H       -0.2853850    -2.2161620    -0.7686800
  H       -2.5951790    -1.5710950     0.5868370
  H       -2.3326610    -1.0086390    -1.0720610
  H       -1.8916900     0.5931740     1.4933710
  H       -2.6106570     1.1621840    -0.0164710
  H        1.8952280    -0.9774960    -1.3410860
  H        1.8622980     0.7788290    -1.0968800
  H        2.2724650     0.4877290     1.3331980
  H        2.2931660    -1.2799200     1.1504100
  H        3.5653110    -0.2984830     0.4074420
units angstrom
no_reorient  #important for SAPT in psi4, default
symmetry c1  #important for SAPT in psi4, default
}

set PROPERTIES_ORIGIN ["COM"]
properties('MP2/aug-cc-pvtz', properties = ['dipole'])
--------------------------------------------------------------------------

    Molecular point group: c1
  Charge       = 0
  Multiplicity = 1
  Basis Set: AUG-CC-PVTZ
    Blend: AUG-CC-PVTZ
  Basis Set: (AUG-CC-PVTZ AUX)
    Blend: AUG-CC-PVTZ-JKFIT

    Orbital Energies [Eh]
    ---------------------

    Doubly Occupied:

       1A    -20.511859     2A    -15.581042     3A    -11.341681
       4A    -11.275592     5A    -11.261000     6A    -11.242202
       7A    -11.240081     8A    -11.218599     9A     -1.366886
      10A     -1.257448    11A     -1.086523    12A     -1.000908
      13A     -0.969801    14A     -0.871015    15A     -0.830602
      16A     -0.726034    17A     -0.692904    18A     -0.666303
      19A     -0.640149    20A     -0.605520    21A     -0.589017
      22A     -0.572015    23A     -0.563054    24A     -0.557242
      25A     -0.524924    26A     -0.512941    27A     -0.506094
      28A     -0.487824    29A     -0.477741    30A     -0.410312
      31A     -0.369280

  @DF-RHF Final Energy:  -363.07540153508273

   => Energetics <=

    Nuclear Repulsion Energy =            393.8857456835182802
    One-Electron Energy =               -1274.0091084415255409
    Two-Electron Energy =                 517.0479612229245276
    Total Energy =                       -363.0754015350827331
  Basis Set: (AUG-CC-PVTZ AUX)
    Blend: AUG-CC-PVTZ-RI
    Molecular point group: c1

    Geometry (in Angstrom), charge = 0, multiplicity = 1:

       Center              X                  Y                   Z               Mass
    ------------   -----------------  -----------------  -----------------  -----------------
         O            0.009721426646     2.017136773972    -0.100753424635    15.994914619570
         N            0.255064426646    -0.271456226028    -0.345084424635    14.003074004430
         C           -0.470968573354    -1.488039226028    -0.015790424635    12.000000000000
         C           -1.955048273354    -1.013267026028    -0.024822224635    12.000000000000
         C           -1.829043573354     0.446222773972     0.414382575365    12.000000000000
         C           -0.438427573354     0.872817773972    -0.037695424635    12.000000000000
         C            1.681595426646    -0.238216226028    -0.608200424635    12.000000000000
         C            2.517755426646    -0.385147226028     0.659351575365    12.000000000000
         H           -0.186184573354    -1.875068226028     0.974168575365     1.007825032230
         H           -0.265519573354    -2.269907226028    -0.755392424635     1.007825032230
         H           -2.575313573354    -1.624840226028     0.600124575365     1.007825032230
         H           -2.312795573354    -1.062384226028    -1.058773424635     1.007825032230
         H           -1.871824573354     0.539428773972     1.506658575365     1.007825032230
         H           -2.590791573354     1.108438773972    -0.003183424635     1.007825032230
         H            1.915093426646    -1.031241226028    -1.327798424635     1.007825032230
         H            1.882163426646     0.725083773972    -1.083592424635     1.007825032230
         H            2.292330426646     0.433983773972     1.346485575365     1.007825032230
         H            2.313031426646    -1.333665226028     1.163697575365     1.007825032230
         H            3.585176426646    -0.352228226028     0.420729575365     1.007825032230

  Basis Set: AUG-CC-PVTZ
    Blend: AUG-CC-PVTZ
  Basis Set: (AUG-CC-PVTZ AUX)
    Blend: AUG-CC-PVTZ-JKFIT
	 Reference Energy          =    -363.0754015350827331 [Eh]
	 Singles Energy            =      -0.0000000000000000 [Eh]
	 Same-Spin Energy          =      -0.3766974012410966 [Eh]
	 Opposite-Spin Energy      =      -1.2469145345889081 [Eh]
	 Correlation Energy        =      -1.6236119358300047 [Eh]
	 Total Energy              =    -364.6990134709127460 [Eh]

	 ================> DF-SCS-MP2 Energies <==================
	-----------------------------------------------------------
	 SCS Same-Spin Scale       =       0.3333333333333333 [-]
	 SCS Opposite-Spin Scale   =       1.2000000000000000 [-]
	 SCS Same-Spin Energy      =      -0.1255658004136989 [Eh]
	 SCS Opposite-Spin Energy  =      -1.4962974415066896 [Eh]
	 SCS Correlation Energy    =      -1.6218632419203884 [Eh]
	 SCS Total Energy          =    -364.6972647770031131 [Eh]
	-----------------------------------------------------------

  Dipole Moment: [D]
     X:    -0.4667      Y:    -3.9512      Z:     0.2600     Total:     3.9872

*** Psi4 exiting successfully. Buy a developer a beer!
