                               Psi4 1.3.2 release

  ==> Input File <==

--------------------------------------------------------------------------
#psi4
#
memory 32 gb

molecule  {
0 1
  O       -0.0101440     2.0708820    -0.1140410
  N        0.2351990    -0.2177110    -0.3583720
  C       -0.5256239    -1.5302286    -0.0617653
  C       -1.9502640    -0.9583450    -0.0482810
  C       -1.8489090     0.4999680     0.4010950
  C       -0.4582930     0.9265630    -0.0509830
  C        1.6617300    -0.1844710    -0.6214880
  C        2.4978900    -0.3314020     0.6460640
  H       -0.2060500    -1.8213230     0.9608810
  H       -0.2853850    -2.2161620    -0.7686800
  H       -2.5951790    -1.5710950     0.5868370
  H       -2.3326610    -1.0086390    -1.0720610
  H       -1.8916900     0.5931740     1.4933710
  H       -2.6106570     1.1621840    -0.0164710
  H        1.8952280    -0.9774960    -1.3410860
  H        1.8622980     0.7788290    -1.0968800
  H        2.2724650     0.4877290     1.3331980
  H        2.2931660    -1.2799200     1.1504100
  H        3.5653110    -0.2984830     0.4074420
units angstrom
no_reorient  #important for SAPT in psi4, default
symmetry c1  #important for SAPT in psi4, default
}

set PROPERTIES_ORIGIN ["COM"]
properties('MP2/aug-cc-pvtz', properties = ['dipole'])
--------------------------------------------------------------------------

    Molecular point group: c1
  Charge       = 0
  Multiplicity = 1
  Basis Set: AUG-CC-PVTZ
    Blend: AUG-CC-PVTZ
  Basis Set: (AUG-CC-PVTZ AUX)
    Blend: AUG-CC-PVTZ-JKFIT

    Orbital Energies [Eh]
    ---------------------

    Doubly Occupied:

       1A    -20.508246     2A    -15.578328     3A    -11.338935
       4A    -11.278207     5A    -11.257556     6A    -11.244739
       7A    -11.240739     8A    -11.216640     9A     -1.362003
      10A     -1.240905    11A     -1.085881    12A     -0.996332
      13A     -0.978457    14A     -0.865996    15A     -0.830697
      16A     -0.720890    17A     -0.686699    18A     -0.671122
      19A     -0.639784    20A     -0.602757    21A     -0.591244
      22A     -0.574264    23A     -0.556238    24A     -0.550166
      25A     -0.524155    26A     -0.519150    27A     -0.508482
      28A     -0.484051    29A     -0.477188    30A     -0.405680
      31A     -0.367790

  @DF-RHF Final Energy:  -363.06390660814128

   => Energetics <=

    Nuclear Repulsion Energy =            392.4580428491412363
    One-Electron Energy =               -1271.2372613949869447
    Two-Electron Energy =                 515.7153119377044277
    Total Energy =                       -363.0639066081412238
  Basis Set: (AUG-CC-PVTZ AUX)
    Blend: AUG-CC-PVTZ-RI
    Molecular point group: c1

    Geometry (in Angstrom), charge = 0, multiplicity = 1:

       Center              X                  Y                   Z               Mass
    ------------   -----------------  -----------------  -----------------  -----------------
         O            0.010797461551     2.027192068767    -0.096205462863    15.994914619570
         N            0.256140461551    -0.261400931233    -0.340536462863    14.003074004430
         C           -0.504682438449    -1.573918531233    -0.043929762863    12.000000000000
         C           -1.929322538449    -1.002034931233    -0.030445462863    12.000000000000
         C           -1.827967538449     0.456278068767     0.418930537137    12.000000000000
         C           -0.437351538449     0.882873068767    -0.033147462863    12.000000000000
         C            1.682671461551    -0.228160931233    -0.603652462863    12.000000000000
         C            2.518831461551    -0.375091931233     0.663899537137    12.000000000000
         H           -0.185108538449    -1.865012931233     0.978716537137     1.007825032230
         H           -0.264443538449    -2.259851931233    -0.750844462863     1.007825032230
         H           -2.574237538449    -1.614784931233     0.604672537137     1.007825032230
         H           -2.311719538449    -1.052328931233    -1.054225462863     1.007825032230
         H           -1.870748538449     0.549484068767     1.511206537137     1.007825032230
         H           -2.589715538449     1.118494068767     0.001364537137     1.007825032230
         H            1.916169461551    -1.021185931233    -1.323250462863     1.007825032230
         H            1.883239461551     0.735139068767    -1.079044462863     1.007825032230
         H            2.293406461551     0.444039068767     1.351033537137     1.007825032230
         H            2.314107461551    -1.323609931233     1.168245537137     1.007825032230
         H            3.586252461551    -0.342172931233     0.425277537137     1.007825032230

  Basis Set: AUG-CC-PVTZ
    Blend: AUG-CC-PVTZ
  Basis Set: (AUG-CC-PVTZ AUX)
    Blend: AUG-CC-PVTZ-JKFIT
	 Reference Energy          =    -363.0639066081412807 [Eh]
	 Singles Energy            =      -0.0000000000000000 [Eh]
	 Same-Spin Energy          =      -0.3766939820159726 [Eh]
	 Opposite-Spin Energy      =      -1.2478112574023883 [Eh]
	 Correlation Energy        =      -1.6245052394183608 [Eh]
	 Total Energy              =    -364.6884118475596210 [Eh]

	 ================> DF-SCS-MP2 Energies <==================
	-----------------------------------------------------------
	 SCS Same-Spin Scale       =       0.3333333333333333 [-]
	 SCS Opposite-Spin Scale   =       1.2000000000000000 [-]
	 SCS Same-Spin Energy      =      -0.1255646606719908 [Eh]
	 SCS Opposite-Spin Energy  =      -1.4973735088828659 [Eh]
	 SCS Correlation Energy    =      -1.6229381695548568 [Eh]
	 SCS Total Energy          =    -364.6868447776961375 [Eh]
	-----------------------------------------------------------

  Dipole Moment: [D]
     X:    -0.5586      Y:    -4.1839      Z:     0.2311     Total:     4.2274

*** Psi4 exiting successfully. Buy a developer a beer!
