                               Psi4 1.3.2 release

  ==> Input File <==

--------------------------------------------------------------------------
#psi4
#
memory 32 gb

molecule  {
0 1
  O       -0.0101440     2.0708820    -0.1140410
  N        0.2310772    -0.2566356    -0.3905108
  C       -0.4908340    -1.4342940    -0.0290780
  C       -1.9502640    -0.9583450    -0.0482810
  C       -1.8489090     0.4999680     0.4010950
  C       -0.4582930     0.9265630    -0.0509830
  C        1.6617300    -0.1844710    -0.6214880
  C        2.4978900    -0.3314020     0.6460640
  H       -0.2060500    -1.8213230     0.9608810
  H       -0.2853850    -2.2161620    -0.7686800
  H       -2.5951790    -1.5710950     0.5868370
  H       -2.3326610    -1.0086390    -1.0720610
  H       -1.8916900     0.5931740     1.4933710
  H       -2.6106570     1.1621840    -0.0164710
  H        1.8952280    -0.9774960    -1.3410860
  H        1.8622980     0.7788290    -1.0968800
  H        2.2724650     0.4877290     1.3331980
  H        2.2931660    -1.2799200     1.1504100
  H        3.5653110    -0.2984830     0.4074420
units angstrom
no_reorient  #important for SAPT in psi4, default
symmetry c1  #important for SAPT in psi4, default
}

set PROPERTIES_ORIGIN ["COM"]
properties('MP2/aug-cc-pvtz', properties = ['dipole'])
--------------------------------------------------------------------------

    Molecular point group: c1
  Charge       = 0
  Multiplicity = 1
  Basis Set: AUG-CC-PVTZ
    Blend: AUG-CC-PVTZ
  Basis Set: (AUG-CC-PVTZ AUX)
    Blend: AUG-CC-PVTZ-JKFIT

    Orbital Energies [Eh]
    ---------------------

    Doubly Occupied:

       1A    -20.519833     2A    -15.579033     3A    -11.347302
       4A    -11.271326     5A    -11.259646     6A    -11.242078
       7A    -11.241049     8A    -11.218217     9A     -1.368492
      10A     -1.259079    11A     -1.087061    12A     -0.999622
      13A     -0.969557    14A     -0.869311    15A     -0.826149
      16A     -0.727087    17A     -0.693019    18A     -0.668258
      19A     -0.639480    20A     -0.602708    21A     -0.590204
      22A     -0.575283    23A     -0.562070    24A     -0.554769
      25A     -0.524040    26A     -0.511489    27A     -0.508680
      28A     -0.491011    29A     -0.478268    30A     -0.412221
      31A     -0.367838

  @DF-RHF Final Energy:  -363.07236962887441

   => Energetics <=

    Nuclear Repulsion Energy =            393.8564540557591158
    One-Electron Energy =               -1273.9292873570175288
    Two-Electron Energy =                 517.0004636723840576
    Total Energy =                       -363.0723696288744122
  Basis Set: (AUG-CC-PVTZ AUX)
    Blend: AUG-CC-PVTZ-RI
    Molecular point group: c1

    Geometry (in Angstrom), charge = 0, multiplicity = 1:

       Center              X                  Y                   Z               Mass
    ------------   -----------------  -----------------  -----------------  -----------------
         O            0.007616103215     2.021831886932    -0.095694388245    15.994914619570
         N            0.248837303215    -0.305685713068    -0.372164188245    14.003074004430
         C           -0.473073896785    -1.483344113068    -0.010731388245    12.000000000000
         C           -1.932503896785    -1.007395113068    -0.029934388245    12.000000000000
         C           -1.831148896785     0.450917886932     0.419441611755    12.000000000000
         C           -0.440532896785     0.877512886932    -0.032636388245    12.000000000000
         C            1.679490103215    -0.233521113068    -0.603141388245    12.000000000000
         C            2.515650103215    -0.380452113068     0.664410611755    12.000000000000
         H           -0.188289896785    -1.870373113068     0.979227611755     1.007825032230
         H           -0.267624896785    -2.265212113068    -0.750333388245     1.007825032230
         H           -2.577418896785    -1.620145113068     0.605183611755     1.007825032230
         H           -2.314900896785    -1.057689113068    -1.053714388245     1.007825032230
         H           -1.873929896785     0.544123886932     1.511717611755     1.007825032230
         H           -2.592896896785     1.113133886932     0.001875611755     1.007825032230
         H            1.912988103215    -1.026546113068    -1.322739388245     1.007825032230
         H            1.880058103215     0.729778886932    -1.078533388245     1.007825032230
         H            2.290225103215     0.438678886932     1.351544611755     1.007825032230
         H            2.310926103215    -1.328970113068     1.168756611755     1.007825032230
         H            3.583071103215    -0.347533113068     0.425788611755     1.007825032230

  Basis Set: AUG-CC-PVTZ
    Blend: AUG-CC-PVTZ
  Basis Set: (AUG-CC-PVTZ AUX)
    Blend: AUG-CC-PVTZ-JKFIT
	 Reference Energy          =    -363.0723696288744122 [Eh]
	 Singles Energy            =      -0.0000000000000000 [Eh]
	 Same-Spin Energy          =      -0.3772031457571461 [Eh]
	 Opposite-Spin Energy      =      -1.2477214775370937 [Eh]
	 Correlation Energy        =      -1.6249246232942398 [Eh]
	 Total Energy              =    -364.6972942521686605 [Eh]

	 ================> DF-SCS-MP2 Energies <==================
	-----------------------------------------------------------
	 SCS Same-Spin Scale       =       0.3333333333333333 [-]
	 SCS Opposite-Spin Scale   =       1.2000000000000000 [-]
	 SCS Same-Spin Energy      =      -0.1257343819190487 [Eh]
	 SCS Opposite-Spin Energy  =      -1.4972657730445125 [Eh]
	 SCS Correlation Energy    =      -1.6230001549635611 [Eh]
	 SCS Total Energy          =    -364.6953697838379753 [Eh]
	-----------------------------------------------------------

  Dipole Moment: [D]
     X:    -0.5054      Y:    -3.6921      Z:     0.3184     Total:     3.7401

*** Psi4 exiting successfully. Buy a developer a beer!
