                               Psi4 1.3.2 release

  ==> Input File <==

--------------------------------------------------------------------------
#psi4
#
memory 32 gb

molecule  {
0 1
  O       -0.0101440     2.0708820    -0.1140410
  N        0.2351990    -0.2177110    -0.3583720
  C       -0.4908340    -1.4342940    -0.0290780
  C       -2.0486027    -0.9603839    -0.0068060
  C       -1.8489090     0.4999680     0.4010950
  C       -0.4582930     0.9265630    -0.0509830
  C        1.6617300    -0.1844710    -0.6214880
  C        2.4978900    -0.3314020     0.6460640
  H       -0.2060500    -1.8213230     0.9608810
  H       -0.2853850    -2.2161620    -0.7686800
  H       -2.5951790    -1.5710950     0.5868370
  H       -2.3326610    -1.0086390    -1.0720610
  H       -1.8916900     0.5931740     1.4933710
  H       -2.6106570     1.1621840    -0.0164710
  H        1.8952280    -0.9774960    -1.3410860
  H        1.8622980     0.7788290    -1.0968800
  H        2.2724650     0.4877290     1.3331980
  H        2.2931660    -1.2799200     1.1504100
  H        3.5653110    -0.2984830     0.4074420
units angstrom
no_reorient  #important for SAPT in psi4, default
symmetry c1  #important for SAPT in psi4, default
}

set PROPERTIES_ORIGIN ["COM"]
properties('MP2/aug-cc-pvtz', properties = ['dipole'])
--------------------------------------------------------------------------

    Molecular point group: c1
  Charge       = 0
  Multiplicity = 1
  Basis Set: AUG-CC-PVTZ
    Blend: AUG-CC-PVTZ
  Basis Set: (AUG-CC-PVTZ AUX)
    Blend: AUG-CC-PVTZ-JKFIT

    Orbital Energies [Eh]
    ---------------------

    Doubly Occupied:

       1A    -20.512815     2A    -15.581464     3A    -11.342912
       4A    -11.277526     5A    -11.261352     6A    -11.242611
       7A    -11.240970     8A    -11.218512     9A     -1.367231
      10A     -1.255024    11A     -1.083193    12A     -1.002296
      13A     -0.963933    14A     -0.873750    15A     -0.834334
      16A     -0.725220    17A     -0.692170    18A     -0.662718
      19A     -0.643422    20A     -0.609060    21A     -0.589552
      22A     -0.571863    23A     -0.569335    24A     -0.558084
      25A     -0.528795    26A     -0.512841    27A     -0.500381
      28A     -0.481785    29A     -0.469737    30A     -0.412995
      31A     -0.368618

  @DF-RHF Final Energy:  -363.06479378572806

   => Energetics <=

    Nuclear Repulsion Energy =            392.7311806802045453
    One-Electron Energy =               -1271.6829503214964916
    Two-Electron Energy =                 515.8869758555639464
    Total Energy =                       -363.0647937857280567
  Basis Set: (AUG-CC-PVTZ AUX)
    Blend: AUG-CC-PVTZ-RI
    Molecular point group: c1

    Geometry (in Angstrom), charge = 0, multiplicity = 1:

       Center              X                  Y                   Z               Mass
    ------------   -----------------  -----------------  -----------------  -----------------
         O            0.017540989977     2.017228256358    -0.104075250778    15.994914619570
         N            0.262883989977    -0.271364743642    -0.348406250778    14.003074004430
         C           -0.463149010023    -1.487947743642    -0.019112250778    12.000000000000
         C           -2.020917710023    -1.014037643642     0.003159749222    12.000000000000
         C           -1.821224010023     0.446314256358     0.411060749222    12.000000000000
         C           -0.430608010023     0.872909256358    -0.041017250778    12.000000000000
         C            1.689414989977    -0.238124743642    -0.611522250778    12.000000000000
         C            2.525574989977    -0.385055743642     0.656029749222    12.000000000000
         H           -0.178365010023    -1.874976743642     0.970846749222     1.007825032230
         H           -0.257700010023    -2.269815743642    -0.758714250778     1.007825032230
         H           -2.567494010023    -1.624748743642     0.596802749222     1.007825032230
         H           -2.304976010023    -1.062292743642    -1.062095250778     1.007825032230
         H           -1.864005010023     0.539520256358     1.503336749222     1.007825032230
         H           -2.582972010023     1.108530256358    -0.006505250778     1.007825032230
         H            1.922912989977    -1.031149743642    -1.331120250778     1.007825032230
         H            1.889982989977     0.725175256358    -1.086914250778     1.007825032230
         H            2.300149989977     0.434075256358     1.343163749222     1.007825032230
         H            2.320850989977    -1.333573743642     1.160375749222     1.007825032230
         H            3.592995989977    -0.352136743642     0.417407749222     1.007825032230

  Basis Set: AUG-CC-PVTZ
    Blend: AUG-CC-PVTZ
  Basis Set: (AUG-CC-PVTZ AUX)
    Blend: AUG-CC-PVTZ-JKFIT
	 Reference Energy          =    -363.0647937857280567 [Eh]
	 Singles Energy            =      -0.0000000000000000 [Eh]
	 Same-Spin Energy          =      -0.3767309183297075 [Eh]
	 Opposite-Spin Energy      =      -1.2474963714962204 [Eh]
	 Correlation Energy        =      -1.6242272898259280 [Eh]
	 Total Energy              =    -364.6890210755539670 [Eh]

	 ================> DF-SCS-MP2 Energies <==================
	-----------------------------------------------------------
	 SCS Same-Spin Scale       =       0.3333333333333333 [-]
	 SCS Opposite-Spin Scale   =       1.2000000000000000 [-]
	 SCS Same-Spin Energy      =      -0.1255769727765692 [Eh]
	 SCS Opposite-Spin Energy  =      -1.4969956457954645 [Eh]
	 SCS Correlation Energy    =      -1.6225726185720337 [Eh]
	 SCS Total Energy          =    -364.6873664043000645 [Eh]
	-----------------------------------------------------------

  Dipole Moment: [D]
     X:    -0.4620      Y:    -3.9534      Z:     0.2760     Total:     3.9899

*** Psi4 exiting successfully. Buy a developer a beer!
