                               Psi4 1.4a3.dev225

  ==> Input File <==

--------------------------------------------------------------------------
#psi4
#
memory 32 gb

molecule  {
0 1
  O       -0.0101440     2.0708820    -0.1140410
  N        0.2351990    -0.2177110    -0.3583720
  C       -0.4908340    -1.4342940    -0.0290780
  C       -1.9502640    -0.9583450    -0.0482810
  C       -1.8489090     0.4999680     0.4010950
  C       -0.4582930     0.9265630    -0.0509830
  C        1.6617300    -0.1844710    -0.6214880
  C        2.4978900    -0.3314020     0.6460640
  H       -0.2189899    -1.8037374     0.9158998
  H       -0.2853850    -2.2161620    -0.7686800
  H       -2.5951790    -1.5710950     0.5868370
  H       -2.3326610    -1.0086390    -1.0720610
  H       -1.8916900     0.5931740     1.4933710
  H       -2.6106570     1.1621840    -0.0164710
  H        1.8952280    -0.9774960    -1.3410860
  H        1.8622980     0.7788290    -1.0968800
  H        2.2724650     0.4877290     1.3331980
  H        2.2931660    -1.2799200     1.1504100
  H        3.5653110    -0.2984830     0.4074420
units angstrom
no_reorient  #important for SAPT in psi4, default
symmetry c1  #important for SAPT in psi4, default
}

set PROPERTIES_ORIGIN ["COM"]
properties('MP2/aug-cc-pvtz', properties = ['dipole'])
--------------------------------------------------------------------------

    Molecular point group: c1
  Charge       = 0
  Multiplicity = 1
  Basis Set: AUG-CC-PVTZ
    Blend: AUG-CC-PVTZ
  Basis Set: (AUG-CC-PVTZ AUX)
    Blend: AUG-CC-PVTZ-JKFIT

    Orbital Energies [Eh]
    ---------------------

    Doubly Occupied:

       1A    -20.511136     2A    -15.580177     3A    -11.340943
       4A    -11.268696     5A    -11.260716     6A    -11.241970
       7A    -11.239728     8A    -11.218739     9A     -1.366452
      10A     -1.258354    11A     -1.087887    12A     -1.000357
      13A     -0.974900    14A     -0.870528    15A     -0.830857
      16A     -0.727351    17A     -0.697034    18A     -0.667283
      19A     -0.639140    20A     -0.604525    21A     -0.592951
      22A     -0.572219    23A     -0.563132    24A     -0.554574
      25A     -0.523778    26A     -0.513108    27A     -0.509217
      28A     -0.489886    29A     -0.478159    30A     -0.409061
      31A     -0.369849

  @DF-RHF Final Energy:  -363.07520033212126

   => Energetics <=

    Nuclear Repulsion Energy =            394.5370535661844542
    One-Electron Energy =               -1275.2990934558044955
    Two-Electron Energy =                 517.6868395574987289
    Total Energy =                       -363.0752003321213124
  Basis Set: (AUG-CC-PVTZ AUX)
    Blend: AUG-CC-PVTZ-RI
    Molecular point group: c1

    Geometry (in Angstrom), charge = 0, multiplicity = 1:

       Center              X                  Y                   Z               Mass
    ------------   -----------------  -----------------  -----------------  -----------------
         O            0.007221027961     2.016855171005    -0.099273219791    15.994914619570
         N            0.252564027961    -0.271737828995    -0.343604219791    14.003074004430
         C           -0.473468972039    -1.488320828995    -0.014310219791    12.000000000000
         C           -1.932898972039    -1.012371828995    -0.033513219791    12.000000000000
         C           -1.831543972039     0.445941171005     0.415862780209    12.000000000000
         C           -0.440927972039     0.872536171005    -0.036215219791    12.000000000000
         C            1.679095027961    -0.238497828995    -0.606720219791    12.000000000000
         C            2.515255027961    -0.385428828995     0.660831780209    12.000000000000
         H           -0.201624872039    -1.857764228995     0.930667580209     1.007825032230
         H           -0.268019972039    -2.270188828995    -0.753912219791     1.007825032230
         H           -2.577813972039    -1.625121828995     0.601604780209     1.007825032230
         H           -2.315295972039    -1.062665828995    -1.057293219791     1.007825032230
         H           -1.874324972039     0.539147171005     1.508138780209     1.007825032230
         H           -2.593291972039     1.108157171005    -0.001703219791     1.007825032230
         H            1.912593027961    -1.031522828995    -1.326318219791     1.007825032230
         H            1.879663027961     0.724802171005    -1.082112219791     1.007825032230
         H            2.289830027961     0.433702171005     1.347965780209     1.007825032230
         H            2.310531027961    -1.333946828995     1.165177780209     1.007825032230
         H            3.582676027961    -0.352509828995     0.422209780209     1.007825032230

  Basis Set: AUG-CC-PVTZ
    Blend: AUG-CC-PVTZ
  Basis Set: (AUG-CC-PVTZ AUX)
    Blend: AUG-CC-PVTZ-JKFIT
	 Reference Energy          =    -363.0752003321212555 [Eh]
	 Singles Energy            =      -0.0000000000000000 [Eh]
	 Same-Spin Energy          =      -0.3767294773035901 [Eh]
	 Opposite-Spin Energy      =      -1.2465923101810814 [Eh]
	 Correlation Energy        =      -1.6233217874846715 [Eh]
	 Total Energy              =    -364.6985221196059115 [Eh]

	 ================> DF-SCS-MP2 Energies <==================
	-----------------------------------------------------------
	 SCS Same-Spin Scale       =       0.3333333333333333 [-]
	 SCS Opposite-Spin Scale   =       1.2000000000000000 [-]
	 SCS Same-Spin Energy      =      -0.1255764924345300 [Eh]
	 SCS Opposite-Spin Energy  =      -1.4959107722172977 [Eh]
	 SCS Correlation Energy    =      -1.6214872646518277 [Eh]
	 SCS Total Energy          =    -364.6966875967730743 [Eh]
	-----------------------------------------------------------

  Dipole Moment: [D]
     X:    -0.4567      Y:    -3.9799      Z:     0.2829     Total:     4.0160

*** Psi4 exiting successfully. Buy a developer a beer!
