                               Psi4 1.3.2 release

  ==> Input File <==

--------------------------------------------------------------------------
#psi4
#
memory 32 gb

molecule  {
0 1
  O       -0.0101440     2.0708820    -0.1140410
  N        0.2229957    -0.2167123    -0.3806099
  C       -0.4908340    -1.4342940    -0.0290780
  C       -1.9502640    -0.9583450    -0.0482810
  C       -1.8489090     0.4999680     0.4010950
  C       -0.4582930     0.9265630    -0.0509830
  C        1.6617300    -0.1844710    -0.6214880
  C        2.4978900    -0.3314020     0.6460640
  H       -0.2060500    -1.8213230     0.9608810
  H       -0.2853850    -2.2161620    -0.7686800
  H       -2.5951790    -1.5710950     0.5868370
  H       -2.3326610    -1.0086390    -1.0720610
  H       -1.8916900     0.5931740     1.4933710
  H       -2.6106570     1.1621840    -0.0164710
  H        1.8952280    -0.9774960    -1.3410860
  H        1.8622980     0.7788290    -1.0968800
  H        2.2724650     0.4877290     1.3331980
  H        2.2931660    -1.2799200     1.1504100
  H        3.5653110    -0.2984830     0.4074420
units angstrom
no_reorient  #important for SAPT in psi4, default
symmetry c1  #important for SAPT in psi4, default
}

set PROPERTIES_ORIGIN ["COM"]
properties('MP2/aug-cc-pvtz', properties = ['dipole'])
--------------------------------------------------------------------------

    Molecular point group: c1
  Charge       = 0
  Multiplicity = 1
  Basis Set: AUG-CC-PVTZ
    Blend: AUG-CC-PVTZ
  Basis Set: (AUG-CC-PVTZ AUX)
    Blend: AUG-CC-PVTZ-JKFIT

    Orbital Energies [Eh]
    ---------------------

    Doubly Occupied:

       1A    -20.511950     2A    -15.581462     3A    -11.341178
       4A    -11.274702     5A    -11.261397     6A    -11.242025
       7A    -11.239619     8A    -11.219518     9A     -1.367041
      10A     -1.258223    11A     -1.086725    12A     -1.000954
      13A     -0.972259    14A     -0.869812    15A     -0.829354
      16A     -0.725603    17A     -0.693488    18A     -0.667327
      19A     -0.639036    20A     -0.604169    21A     -0.590327
      22A     -0.571635    23A     -0.562877    24A     -0.554502
      25A     -0.523894    26A     -0.511469    27A     -0.509513
      28A     -0.489797    29A     -0.477660    30A     -0.409685
      31A     -0.371069

  @DF-RHF Final Energy:  -363.07570091606834

   => Energetics <=

    Nuclear Repulsion Energy =            394.1756338801370134
    One-Electron Energy =               -1274.5861321674169631
    Two-Electron Energy =                 517.3347973712117209
    Total Energy =                       -363.0757009160682856
  Basis Set: (AUG-CC-PVTZ AUX)
    Blend: AUG-CC-PVTZ-RI
    Molecular point group: c1

    Geometry (in Angstrom), charge = 0, multiplicity = 1:

       Center              X                  Y                   Z               Mass
    ------------   -----------------  -----------------  -----------------  -----------------
         O            0.008616826381     2.016888229048    -0.096920405692    15.994914619570
         N            0.241756526381    -0.270706070952    -0.363489305692    14.003074004430
         C           -0.472073173619    -1.488287770952    -0.011957405692    12.000000000000
         C           -1.931503173619    -1.012338770952    -0.031160405692    12.000000000000
         C           -1.830148173619     0.445974229048     0.418215594308    12.000000000000
         C           -0.439532173619     0.872569229048    -0.033862405692    12.000000000000
         C            1.680490826381    -0.238464770952    -0.604367405692    12.000000000000
         C            2.516650826381    -0.385395770952     0.663184594308    12.000000000000
         H           -0.187289173619    -1.875316770952     0.978001594308     1.007825032230
         H           -0.266624173619    -2.270155770952    -0.751559405692     1.007825032230
         H           -2.576418173619    -1.625088770952     0.603957594308     1.007825032230
         H           -2.313900173619    -1.062632770952    -1.054940405692     1.007825032230
         H           -1.872929173619     0.539180229048     1.510491594308     1.007825032230
         H           -2.591896173619     1.108190229048     0.000649594308     1.007825032230
         H            1.913988826381    -1.031489770952    -1.323965405692     1.007825032230
         H            1.881058826381     0.724835229048    -1.079759405692     1.007825032230
         H            2.291225826381     0.433735229048     1.350318594308     1.007825032230
         H            2.311926826381    -1.333913770952     1.167530594308     1.007825032230
         H            3.584071826381    -0.352476770952     0.424562594308     1.007825032230

  Basis Set: AUG-CC-PVTZ
    Blend: AUG-CC-PVTZ
  Basis Set: (AUG-CC-PVTZ AUX)
    Blend: AUG-CC-PVTZ-JKFIT
	 Reference Energy          =    -363.0757009160683424 [Eh]
	 Singles Energy            =      -0.0000000000000000 [Eh]
	 Same-Spin Energy          =      -0.3767420242987571 [Eh]
	 Opposite-Spin Energy      =      -1.2469331004847930 [Eh]
	 Correlation Energy        =      -1.6236751247835501 [Eh]
	 Total Energy              =    -364.6993760408519165 [Eh]

	 ================> DF-SCS-MP2 Energies <==================
	-----------------------------------------------------------
	 SCS Same-Spin Scale       =       0.3333333333333333 [-]
	 SCS Opposite-Spin Scale   =       1.2000000000000000 [-]
	 SCS Same-Spin Energy      =      -0.1255806747662524 [Eh]
	 SCS Opposite-Spin Energy  =      -1.4963197205817516 [Eh]
	 SCS Correlation Energy    =      -1.6219003953480040 [Eh]
	 SCS Total Energy          =    -364.6976013114163493 [Eh]
	-----------------------------------------------------------

  Dipole Moment: [D]
     X:    -0.4311      Y:    -3.9360      Z:     0.2895     Total:     3.9701

*** Psi4 exiting successfully. Buy a developer a beer!
