                               Psi4 1.3.2 release

  ==> Input File <==

--------------------------------------------------------------------------
#psi4
#
memory 32 gb

molecule  {
0 1
  O       -0.0101440     2.0708820    -0.1140410
  N        0.2351990    -0.2177110    -0.3583720
  C       -0.4908340    -1.4342940    -0.0290780
  C       -1.9502640    -0.9583450    -0.0482810
  C       -1.8489090     0.4999680     0.4010950
  C       -0.4582930     0.9265630    -0.0509830
  C        1.8583608    -0.1798893    -0.6577555
  C        2.4978900    -0.3314020     0.6460640
  H       -0.2060500    -1.8213230     0.9608810
  H       -0.2853850    -2.2161620    -0.7686800
  H       -2.5951790    -1.5710950     0.5868370
  H       -2.3326610    -1.0086390    -1.0720610
  H       -1.8916900     0.5931740     1.4933710
  H       -2.6106570     1.1621840    -0.0164710
  H        1.8952280    -0.9774960    -1.3410860
  H        1.8622980     0.7788290    -1.0968800
  H        2.2724650     0.4877290     1.3331980
  H        2.2931660    -1.2799200     1.1504100
  H        3.5653110    -0.2984830     0.4074420
units angstrom
no_reorient  #important for SAPT in psi4, default
symmetry c1  #important for SAPT in psi4, default
}

set PROPERTIES_ORIGIN ["COM"]
properties('MP2/aug-cc-pvtz', properties = ['dipole'])
--------------------------------------------------------------------------

    Molecular point group: c1
  Charge       = 0
  Multiplicity = 1
  Basis Set: AUG-CC-PVTZ
    Blend: AUG-CC-PVTZ
  Basis Set: (AUG-CC-PVTZ AUX)
    Blend: AUG-CC-PVTZ-JKFIT

    Orbital Energies [Eh]
    ---------------------

    Doubly Occupied:

       1A    -20.502854     2A    -15.568780     3A    -11.332382
       4A    -11.273816     5A    -11.267634     6A    -11.236693
       7A    -11.233788     8A    -11.225672     9A     -1.355558
      10A     -1.231854    11A     -1.079820    12A     -1.015497
      13A     -0.963125    14A     -0.866240    15A     -0.821252
      16A     -0.714458    17A     -0.683014    18A     -0.657907
      19A     -0.647803    20A     -0.604905    21A     -0.584713
      22A     -0.576370    23A     -0.569294    24A     -0.548985
      25A     -0.532929    26A     -0.518891    27A     -0.501342
      28A     -0.476044    29A     -0.470094    30A     -0.398516
      31A     -0.363495

  @DF-RHF Final Energy:  -363.04657278315921

   => Energetics <=

    Nuclear Repulsion Energy =            391.2450073515763620
    One-Electron Energy =               -1268.9357139926587479
    Two-Electron Energy =                 514.6441338579231797
    Total Energy =                       -363.0465727831592631
  Basis Set: (AUG-CC-PVTZ AUX)
    Blend: AUG-CC-PVTZ-RI
    Molecular point group: c1

    Geometry (in Angstrom), charge = 0, multiplicity = 1:

       Center              X                  Y                   Z               Mass
    ------------   -----------------  -----------------  -----------------  -----------------
         O           -0.013759919059     2.016525706439    -0.095825547263    15.994914619570
         N            0.231583080941    -0.272067293561    -0.340156547263    14.003074004430
         C           -0.494449919059    -1.488650293561    -0.010862547263    12.000000000000
         C           -1.953879919059    -1.012701293561    -0.030065547263    12.000000000000
         C           -1.852524919059     0.445611706439     0.419310452737    12.000000000000
         C           -0.461908919059     0.872206706439    -0.032767547263    12.000000000000
         C            1.854744880941    -0.234245593561    -0.639540047263    12.000000000000
         C            2.494274080941    -0.385758293561     0.664279452737    12.000000000000
         H           -0.209665919059    -1.875679293561     0.979096452737     1.007825032230
         H           -0.289000919059    -2.270518293561    -0.750464547263     1.007825032230
         H           -2.598794919059    -1.625451293561     0.605052452737     1.007825032230
         H           -2.336276919059    -1.062995293561    -1.053845547263     1.007825032230
         H           -1.895305919059     0.538817706439     1.511586452737     1.007825032230
         H           -2.614272919059     1.107827706439     0.001744452737     1.007825032230
         H            1.891612080941    -1.031852293561    -1.322870547263     1.007825032230
         H            1.858682080941     0.724472706439    -1.078664547263     1.007825032230
         H            2.268849080941     0.433372706439     1.351413452737     1.007825032230
         H            2.289550080941    -1.334276293561     1.168625452737     1.007825032230
         H            3.561695080941    -0.352839293561     0.425657452737     1.007825032230

  Basis Set: AUG-CC-PVTZ
    Blend: AUG-CC-PVTZ
  Basis Set: (AUG-CC-PVTZ AUX)
    Blend: AUG-CC-PVTZ-JKFIT
	 Reference Energy          =    -363.0465727831592062 [Eh]
	 Singles Energy            =      -0.0000000000000000 [Eh]
	 Same-Spin Energy          =      -0.3775256581898507 [Eh]
	 Opposite-Spin Energy      =      -1.2493096892149151 [Eh]
	 Correlation Energy        =      -1.6268353474047659 [Eh]
	 Total Energy              =    -364.6734081305639847 [Eh]

	 ================> DF-SCS-MP2 Energies <==================
	-----------------------------------------------------------
	 SCS Same-Spin Scale       =       0.3333333333333333 [-]
	 SCS Opposite-Spin Scale   =       1.2000000000000000 [-]
	 SCS Same-Spin Energy      =      -0.1258418860632836 [Eh]
	 SCS Opposite-Spin Energy  =      -1.4991716270578981 [Eh]
	 SCS Correlation Energy    =      -1.6250135131211816 [Eh]
	 SCS Total Energy          =    -364.6715862962803953 [Eh]
	-----------------------------------------------------------

  Dipole Moment: [D]
     X:     0.1781      Y:    -4.0674      Z:     0.2276     Total:     4.0777

*** Psi4 exiting successfully. Buy a developer a beer!
