                               Psi4 1.3.2 release

  ==> Input File <==

--------------------------------------------------------------------------
#psi4
#
memory 32 gb

molecule  {
0 1
  O       -0.0101440     2.0708820    -0.1140410
  N        0.2351990    -0.2177110    -0.3583720
  C       -0.4908340    -1.4342940    -0.0290780
  C       -1.9526171    -0.9652747    -0.0225059
  C       -1.8489090     0.4999680     0.4010950
  C       -0.4582930     0.9265630    -0.0509830
  C        1.6617300    -0.1844710    -0.6214880
  C        2.4978900    -0.3314020     0.6460640
  H       -0.2060500    -1.8213230     0.9608810
  H       -0.2853850    -2.2161620    -0.7686800
  H       -2.5951790    -1.5710950     0.5868370
  H       -2.3326610    -1.0086390    -1.0720610
  H       -1.8916900     0.5931740     1.4933710
  H       -2.6106570     1.1621840    -0.0164710
  H        1.8952280    -0.9774960    -1.3410860
  H        1.8622980     0.7788290    -1.0968800
  H        2.2724650     0.4877290     1.3331980
  H        2.2931660    -1.2799200     1.1504100
  H        3.5653110    -0.2984830     0.4074420
units angstrom
no_reorient  #important for SAPT in psi4, default
symmetry c1  #important for SAPT in psi4, default
}

set PROPERTIES_ORIGIN ["COM"]
properties('MP2/aug-cc-pvtz', properties = ['dipole'])
--------------------------------------------------------------------------

    Molecular point group: c1
  Charge       = 0
  Multiplicity = 1
  Basis Set: AUG-CC-PVTZ
    Blend: AUG-CC-PVTZ
  Basis Set: (AUG-CC-PVTZ AUX)
    Blend: AUG-CC-PVTZ-JKFIT

    Orbital Energies [Eh]
    ---------------------

    Doubly Occupied:

       1A    -20.511816     2A    -15.581257     3A    -11.341724
       4A    -11.275044     5A    -11.261111     6A    -11.242804
       7A    -11.240134     8A    -11.218674     9A     -1.367017
      10A     -1.258450    11A     -1.087946    12A     -1.000769
      13A     -0.972193    14A     -0.870481    15A     -0.829265
      16A     -0.726795    17A     -0.693156    18A     -0.667262
      19A     -0.640189    20A     -0.604728    21A     -0.588715
      22A     -0.571999    23A     -0.562482    24A     -0.558349
      25A     -0.523147    26A     -0.512466    27A     -0.509714
      28A     -0.490748    29A     -0.474222    30A     -0.410084
      31A     -0.369525

  @DF-RHF Final Energy:  -363.07519227688886

   => Energetics <=

    Nuclear Repulsion Energy =            394.2120256156832738
    One-Electron Energy =               -1274.6499039409550278
    Two-Electron Energy =                 517.3626860483828978
    Total Energy =                       -363.0751922768888562
  Basis Set: (AUG-CC-PVTZ AUX)
    Blend: AUG-CC-PVTZ-RI
    Molecular point group: c1

    Geometry (in Angstrom), charge = 0, multiplicity = 1:

       Center              X                  Y                   Z               Mass
    ------------   -----------------  -----------------  -----------------  -----------------
         O            0.007355406266     2.017747247257    -0.102409244151    15.994914619570
         N            0.252698406266    -0.270845752743    -0.346740244151    14.003074004430
         C           -0.473334593734    -1.487428752743    -0.017446244151    12.000000000000
         C           -1.935117693734    -1.018409452743    -0.010874144151    12.000000000000
         C           -1.831409593734     0.446833247257     0.412726755849    12.000000000000
         C           -0.440793593734     0.873428247257    -0.039351244151    12.000000000000
         C            1.679229406266    -0.237605752743    -0.609856244151    12.000000000000
         C            2.515389406266    -0.384536752743     0.657695755849    12.000000000000
         H           -0.188550593734    -1.874457752743     0.972512755849     1.007825032230
         H           -0.267885593734    -2.269296752743    -0.757048244151     1.007825032230
         H           -2.577679593734    -1.624229752743     0.598468755849     1.007825032230
         H           -2.315161593734    -1.061773752743    -1.060429244151     1.007825032230
         H           -1.874190593734     0.540039247257     1.505002755849     1.007825032230
         H           -2.593157593734     1.109049247257    -0.004839244151     1.007825032230
         H            1.912727406266    -1.030630752743    -1.329454244151     1.007825032230
         H            1.879797406266     0.725694247257    -1.085248244151     1.007825032230
         H            2.289964406266     0.434594247257     1.344829755849     1.007825032230
         H            2.310665406266    -1.333054752743     1.162041755849     1.007825032230
         H            3.582810406266    -0.351617752743     0.419073755849     1.007825032230

  Basis Set: AUG-CC-PVTZ
    Blend: AUG-CC-PVTZ
  Basis Set: (AUG-CC-PVTZ AUX)
    Blend: AUG-CC-PVTZ-JKFIT
	 Reference Energy          =    -363.0751922768888562 [Eh]
	 Singles Energy            =      -0.0000000000000000 [Eh]
	 Same-Spin Energy          =      -0.3767819773431021 [Eh]
	 Opposite-Spin Energy      =      -1.2469519551705117 [Eh]
	 Correlation Energy        =      -1.6237339325136140 [Eh]
	 Total Energy              =    -364.6989262094024866 [Eh]

	 ================> DF-SCS-MP2 Energies <==================
	-----------------------------------------------------------
	 SCS Same-Spin Scale       =       0.3333333333333333 [-]
	 SCS Opposite-Spin Scale   =       1.2000000000000000 [-]
	 SCS Same-Spin Energy      =      -0.1255939924477007 [Eh]
	 SCS Opposite-Spin Energy  =      -1.4963423462046139 [Eh]
	 SCS Correlation Energy    =      -1.6219363386523147 [Eh]
	 SCS Total Energy          =    -364.6971286155411462 [Eh]
	-----------------------------------------------------------

  Dipole Moment: [D]
     X:    -0.4626      Y:    -3.9507      Z:     0.2709     Total:     3.9869

*** Psi4 exiting successfully. Buy a developer a beer!
