                               Psi4 1.3.2 release

  ==> Input File <==

--------------------------------------------------------------------------
#psi4
#
memory 32 gb

molecule  {
0 1
  O       -0.0101440     2.0708820    -0.1140410
  N        0.2351990    -0.2177110    -0.3583720
  C       -0.4908340    -1.4342940    -0.0290780
  C       -1.9502640    -0.9583450    -0.0482810
  C       -1.8489090     0.4999680     0.4010950
  C       -0.4582930     0.9265630    -0.0509830
  C        1.6617300    -0.1844710    -0.6214880
  C        2.4978900    -0.3314020     0.6460640
  H       -0.2060500    -1.8213230     0.9608810
  H       -0.2853850    -2.2161620    -0.7686800
  H       -2.5951790    -1.5710950     0.5868370
  H       -2.3326610    -1.0086390    -1.0720610
  H       -1.9201442     0.6184953     1.4894246
  H       -2.6106570     1.1621840    -0.0164710
  H        1.8952280    -0.9774960    -1.3410860
  H        1.8622980     0.7788290    -1.0968800
  H        2.2724650     0.4877290     1.3331980
  H        2.2931660    -1.2799200     1.1504100
  H        3.5653110    -0.2984830     0.4074420
units angstrom
no_reorient  #important for SAPT in psi4, default
symmetry c1  #important for SAPT in psi4, default
}

set PROPERTIES_ORIGIN ["COM"]
properties('MP2/aug-cc-pvtz', properties = ['dipole'])
--------------------------------------------------------------------------

    Molecular point group: c1
  Charge       = 0
  Multiplicity = 1
  Basis Set: AUG-CC-PVTZ
    Blend: AUG-CC-PVTZ
  Basis Set: (AUG-CC-PVTZ AUX)
    Blend: AUG-CC-PVTZ-JKFIT

    Orbital Energies [Eh]
    ---------------------

    Doubly Occupied:

       1A    -20.511578     2A    -15.581033     3A    -11.341503
       4A    -11.274877     5A    -11.260944     6A    -11.242609
       7A    -11.239747     8A    -11.218647     9A     -1.366834
      10A     -1.258487    11A     -1.087642    12A     -1.000479
      13A     -0.972043    14A     -0.870269    15A     -0.829875
      16A     -0.726668    17A     -0.693050    18A     -0.667421
      19A     -0.639712    20A     -0.604677    21A     -0.588119
      22A     -0.571893    23A     -0.563623    24A     -0.554438
      25A     -0.522924    26A     -0.513157    27A     -0.510388
      28A     -0.489939    29A     -0.476886    30A     -0.409503
      31A     -0.369479

  @DF-RHF Final Energy:  -363.07578770842150

   => Energetics <=

    Nuclear Repulsion Energy =            394.2314549878691992
    One-Electron Energy =               -1274.6976015681245826
    Two-Electron Energy =                 517.3903588718337687
    Total Energy =                       -363.0757877084215579
  Basis Set: (AUG-CC-PVTZ AUX)
    Blend: AUG-CC-PVTZ-RI
    Molecular point group: c1

    Geometry (in Angstrom), charge = 0, multiplicity = 1:

       Center              X                  Y                   Z               Mass
    ------------   -----------------  -----------------  -----------------  -----------------
         O            0.007359294126     2.016786229089    -0.099638929133    15.994914619570
         N            0.252702294126    -0.271806770911    -0.343969929133    14.003074004430
         C           -0.473330705874    -1.488389770911    -0.014675929133    12.000000000000
         C           -1.932760705874    -1.012440770911    -0.033878929133    12.000000000000
         C           -1.831405705874     0.445872229089     0.415497070867    12.000000000000
         C           -0.440789705874     0.872467229089    -0.036580929133    12.000000000000
         C            1.679233294126    -0.238566770911    -0.607085929133    12.000000000000
         C            2.515393294126    -0.385497770911     0.660466070867    12.000000000000
         H           -0.188546705874    -1.875418770911     0.975283070867     1.007825032230
         H           -0.267881705874    -2.270257770911    -0.754277929133     1.007825032230
         H           -2.577675705874    -1.625190770911     0.601239070867     1.007825032230
         H           -2.315157705874    -1.062734770911    -1.057658929133     1.007825032230
         H           -1.902640905874     0.564399529089     1.503826670867     1.007825032230
         H           -2.593153705874     1.108088229089    -0.002068929133     1.007825032230
         H            1.912731294126    -1.031591770911    -1.326683929133     1.007825032230
         H            1.879801294126     0.724733229089    -1.082477929133     1.007825032230
         H            2.289968294126     0.433633229089     1.347600070867     1.007825032230
         H            2.310669294126    -1.334015770911     1.164812070867     1.007825032230
         H            3.582814294126    -0.352578770911     0.421844070867     1.007825032230

  Basis Set: AUG-CC-PVTZ
    Blend: AUG-CC-PVTZ
  Basis Set: (AUG-CC-PVTZ AUX)
    Blend: AUG-CC-PVTZ-JKFIT
	 Reference Energy          =    -363.0757877084215011 [Eh]
	 Singles Energy            =      -0.0000000000000000 [Eh]
	 Same-Spin Energy          =      -0.3767789841055315 [Eh]
	 Opposite-Spin Energy      =      -1.2469002403607621 [Eh]
	 Correlation Energy        =      -1.6236792244662936 [Eh]
	 Total Energy              =    -364.6994669328877876 [Eh]

	 ================> DF-SCS-MP2 Energies <==================
	-----------------------------------------------------------
	 SCS Same-Spin Scale       =       0.3333333333333333 [-]
	 SCS Opposite-Spin Scale   =       1.2000000000000000 [-]
	 SCS Same-Spin Energy      =      -0.1255929947018438 [Eh]
	 SCS Opposite-Spin Energy  =      -1.4962802884329145 [Eh]
	 SCS Correlation Energy    =      -1.6218732831347582 [Eh]
	 SCS Total Energy          =    -364.6976609915562335 [Eh]
	-----------------------------------------------------------

  Dipole Moment: [D]
     X:    -0.4712      Y:    -3.9407      Z:     0.2574     Total:     3.9771

*** Psi4 exiting successfully. Buy a developer a beer!
