                               Psi4 1.3.2 release

  ==> Input File <==

--------------------------------------------------------------------------
#psi4
#
memory 32 gb

molecule  {
0 1
  O       -0.0101440     2.0708820    -0.1140410
  N        0.2351990    -0.2177110    -0.3583720
  C       -0.5291663    -1.4057307    -0.0119798
  C       -1.9502640    -0.9583450    -0.0482810
  C       -1.8489090     0.4999680     0.4010950
  C       -0.4582930     0.9265630    -0.0509830
  C        1.6617300    -0.1844710    -0.6214880
  C        2.4978900    -0.3314020     0.6460640
  H       -0.2060500    -1.8213230     0.9608810
  H       -0.2853850    -2.2161620    -0.7686800
  H       -2.5951790    -1.5710950     0.5868370
  H       -2.3326610    -1.0086390    -1.0720610
  H       -1.8916900     0.5931740     1.4933710
  H       -2.6106570     1.1621840    -0.0164710
  H        1.8952280    -0.9774960    -1.3410860
  H        1.8622980     0.7788290    -1.0968800
  H        2.2724650     0.4877290     1.3331980
  H        2.2931660    -1.2799200     1.1504100
  H        3.5653110    -0.2984830     0.4074420
units angstrom
no_reorient  #important for SAPT in psi4, default
symmetry c1  #important for SAPT in psi4, default
}

set PROPERTIES_ORIGIN ["COM"]
properties('MP2/aug-cc-pvtz', properties = ['dipole'])
--------------------------------------------------------------------------

    Molecular point group: c1
  Charge       = 0
  Multiplicity = 1
  Basis Set: AUG-CC-PVTZ
    Blend: AUG-CC-PVTZ
  Basis Set: (AUG-CC-PVTZ AUX)
    Blend: AUG-CC-PVTZ-JKFIT

    Orbital Energies [Eh]
    ---------------------

    Doubly Occupied:

       1A    -20.511165     2A    -15.580799     3A    -11.340587
       4A    -11.276700     5A    -11.262145     6A    -11.240978
       7A    -11.240212     8A    -11.219038     9A     -1.366900
      10A     -1.260110    11A     -1.093143    12A     -1.001988
      13A     -0.971852    14A     -0.871271    15A     -0.828082
      16A     -0.726243    17A     -0.695221    18A     -0.666776
      19A     -0.637504    20A     -0.604805    21A     -0.588248
      22A     -0.569161    23A     -0.565868    24A     -0.558187
      25A     -0.522885    26A     -0.517492    27A     -0.506755
      28A     -0.493685    29A     -0.475531    30A     -0.408763
      31A     -0.368223

  @DF-RHF Final Energy:  -363.07278564789323

   => Energetics <=

    Nuclear Repulsion Energy =            394.7846170529934966
    One-Electron Energy =               -1275.7741742739456186
    Two-Electron Energy =                 517.9167715730587815
    Total Energy =                       -363.0727856478932836
  Basis Set: (AUG-CC-PVTZ AUX)
    Blend: AUG-CC-PVTZ-RI
    Molecular point group: c1

    Geometry (in Angstrom), charge = 0, multiplicity = 1:

       Center              X                  Y                   Z               Mass
    ------------   -----------------  -----------------  -----------------  -----------------
         O            0.011173365975     2.013980881024    -0.101488488419    15.994914619570
         N            0.256516365975    -0.274612118976    -0.345819488419    14.003074004430
         C           -0.507848934025    -1.462631818976     0.000572711581    12.000000000000
         C           -1.928946634025    -1.015246118976    -0.035728488419    12.000000000000
         C           -1.827591634025     0.443066881024     0.413647511581    12.000000000000
         C           -0.436975634025     0.869661881024    -0.038430488419    12.000000000000
         C            1.683047365975    -0.241372118976    -0.608935488419    12.000000000000
         C            2.519207365975    -0.388303118976     0.658616511581    12.000000000000
         H           -0.184732634025    -1.878224118976     0.973433511581     1.007825032230
         H           -0.264067634025    -2.273063118976    -0.756127488419     1.007825032230
         H           -2.573861634025    -1.627996118976     0.599389511581     1.007825032230
         H           -2.311343634025    -1.065540118976    -1.059508488419     1.007825032230
         H           -1.870372634025     0.536272881024     1.505923511581     1.007825032230
         H           -2.589339634025     1.105282881024    -0.003918488419     1.007825032230
         H            1.916545365975    -1.034397118976    -1.328533488419     1.007825032230
         H            1.883615365975     0.721927881024    -1.084327488419     1.007825032230
         H            2.293782365975     0.430827881024     1.345750511581     1.007825032230
         H            2.314483365975    -1.336821118976     1.162962511581     1.007825032230
         H            3.586628365975    -0.355384118976     0.419994511581     1.007825032230

  Basis Set: AUG-CC-PVTZ
    Blend: AUG-CC-PVTZ
  Basis Set: (AUG-CC-PVTZ AUX)
    Blend: AUG-CC-PVTZ-JKFIT
	 Reference Energy          =    -363.0727856478932267 [Eh]
	 Singles Energy            =      -0.0000000000000000 [Eh]
	 Same-Spin Energy          =      -0.3771021824515192 [Eh]
	 Opposite-Spin Energy      =      -1.2472032369300512 [Eh]
	 Correlation Energy        =      -1.6243054193815705 [Eh]
	 Total Energy              =    -364.6970910672748118 [Eh]

	 ================> DF-SCS-MP2 Energies <==================
	-----------------------------------------------------------
	 SCS Same-Spin Scale       =       0.3333333333333333 [-]
	 SCS Opposite-Spin Scale   =       1.2000000000000000 [-]
	 SCS Same-Spin Energy      =      -0.1257007274838397 [Eh]
	 SCS Opposite-Spin Energy  =      -1.4966438843160614 [Eh]
	 SCS Correlation Energy    =      -1.6223446117999012 [Eh]
	 SCS Total Energy          =    -364.6951302596931441 [Eh]
	-----------------------------------------------------------

  Dipole Moment: [D]
     X:    -0.4754      Y:    -3.9153      Z:     0.2733     Total:     3.9535

*** Psi4 exiting successfully. Buy a developer a beer!
