                               Psi4 1.3.2 release

  ==> Input File <==

--------------------------------------------------------------------------
#psi4
#
memory 32 gb

molecule  {
0 1
  O       -0.0101440     2.0708820    -0.1140410
  N        0.0998063    -0.1485010    -0.3659952
  C       -0.4908340    -1.4342940    -0.0290780
  C       -1.9502640    -0.9583450    -0.0482810
  C       -1.8489090     0.4999680     0.4010950
  C       -0.4582930     0.9265630    -0.0509830
  C        1.6617300    -0.1844710    -0.6214880
  C        2.4978900    -0.3314020     0.6460640
  H       -0.2060500    -1.8213230     0.9608810
  H       -0.2853850    -2.2161620    -0.7686800
  H       -2.5951790    -1.5710950     0.5868370
  H       -2.3326610    -1.0086390    -1.0720610
  H       -1.8916900     0.5931740     1.4933710
  H       -2.6106570     1.1621840    -0.0164710
  H        1.8952280    -0.9774960    -1.3410860
  H        1.8622980     0.7788290    -1.0968800
  H        2.2724650     0.4877290     1.3331980
  H        2.2931660    -1.2799200     1.1504100
  H        3.5653110    -0.2984830     0.4074420
units angstrom
no_reorient  #important for SAPT in psi4, default
symmetry c1  #important for SAPT in psi4, default
}

set PROPERTIES_ORIGIN ["COM"]
properties('MP2/aug-cc-pvtz', properties = ['dipole'])
--------------------------------------------------------------------------

    Molecular point group: c1
  Charge       = 0
  Multiplicity = 1
  Basis Set: AUG-CC-PVTZ
    Blend: AUG-CC-PVTZ
  Basis Set: (AUG-CC-PVTZ AUX)
    Blend: AUG-CC-PVTZ-JKFIT

    Orbital Energies [Eh]
    ---------------------

    Doubly Occupied:

       1A    -20.492503     2A    -15.588736     3A    -11.320844
       4A    -11.280092     5A    -11.275010     6A    -11.238528
       7A    -11.229898     8A    -11.228079     9A     -1.370467
      10A     -1.268367    11A     -1.075087    12A     -1.017485
      13A     -0.981842    14A     -0.863848    15A     -0.835300
      16A     -0.724600    17A     -0.699132    18A     -0.673204
      19A     -0.633329    20A     -0.611381    21A     -0.590203
      22A     -0.576139    23A     -0.558591    24A     -0.549053
      25A     -0.525440    26A     -0.511632    27A     -0.503433
      28A     -0.480826    29A     -0.475845    30A     -0.398341
      31A     -0.381787

  @DF-RHF Final Energy:  -363.04943303868055

   => Energetics <=

    Nuclear Repulsion Energy =            395.4290881670997919
    One-Electron Energy =               -1277.0389970360020016
    Two-Electron Energy =                 518.5604758302217761
    Total Energy =                       -363.0494330386804904
  Basis Set: (AUG-CC-PVTZ AUX)
    Blend: AUG-CC-PVTZ-RI
    Molecular point group: c1

    Geometry (in Angstrom), charge = 0, multiplicity = 1:

       Center              X                  Y                   Z               Mass
    ------------   -----------------  -----------------  -----------------  -----------------
         O            0.023871232918     2.008441699553    -0.098730127756    15.994914619570
         N            0.133821532918    -0.210941300447    -0.350684327756    14.003074004430
         C           -0.456818767082    -1.496734300447    -0.013767127756    12.000000000000
         C           -1.916248767082    -1.020785300447    -0.032970127756    12.000000000000
         C           -1.814893767082     0.437527699553     0.416405872244    12.000000000000
         C           -0.424277767082     0.864122699553    -0.035672127756    12.000000000000
         C            1.695745232918    -0.246911300447    -0.606177127756    12.000000000000
         C            2.531905232918    -0.393842300447     0.661374872244    12.000000000000
         H           -0.172034767082    -1.883763300447     0.976191872244     1.007825032230
         H           -0.251369767082    -2.278602300447    -0.753369127756     1.007825032230
         H           -2.561163767082    -1.633535300447     0.602147872244     1.007825032230
         H           -2.298645767082    -1.071079300447    -1.056750127756     1.007825032230
         H           -1.857674767082     0.530733699553     1.508681872244     1.007825032230
         H           -2.576641767082     1.099743699553    -0.001160127756     1.007825032230
         H            1.929243232918    -1.039936300447    -1.325775127756     1.007825032230
         H            1.896313232918     0.716388699553    -1.081569127756     1.007825032230
         H            2.306480232918     0.425288699553     1.348508872244     1.007825032230
         H            2.327181232918    -1.342360300447     1.165720872244     1.007825032230
         H            3.599326232918    -0.360923300447     0.422752872244     1.007825032230

  Basis Set: AUG-CC-PVTZ
    Blend: AUG-CC-PVTZ
  Basis Set: (AUG-CC-PVTZ AUX)
    Blend: AUG-CC-PVTZ-JKFIT
	 Reference Energy          =    -363.0494330386805473 [Eh]
	 Singles Energy            =      -0.0000000000000000 [Eh]
	 Same-Spin Energy          =      -0.3766624877506521 [Eh]
	 Opposite-Spin Energy      =      -1.2470273675874370 [Eh]
	 Correlation Energy        =      -1.6236898553380892 [Eh]
	 Total Energy              =    -364.6731228940186611 [Eh]

	 ================> DF-SCS-MP2 Energies <==================
	-----------------------------------------------------------
	 SCS Same-Spin Scale       =       0.3333333333333333 [-]
	 SCS Opposite-Spin Scale   =       1.2000000000000000 [-]
	 SCS Same-Spin Energy      =      -0.1255541625835507 [Eh]
	 SCS Opposite-Spin Energy  =      -1.4964328411049244 [Eh]
	 SCS Correlation Energy    =      -1.6219870036884751 [Eh]
	 SCS Total Energy          =    -364.6714200423690500 [Eh]
	-----------------------------------------------------------

  Dipole Moment: [D]
     X:     0.0609      Y:    -4.5285      Z:     0.2061     Total:     4.5336

*** Psi4 exiting successfully. Buy a developer a beer!
