                               Psi4 1.4a3.dev225

  ==> Input File <==

--------------------------------------------------------------------------
#psi4
#
memory 32 gb

molecule  {
0 1
  O       -0.0101440     2.0708820    -0.1140410
  N        0.2351990    -0.2177110    -0.3583720
  C       -0.4908340    -1.4342940    -0.0290780
  C       -1.9502640    -0.9583450    -0.0482810
  C       -1.8489090     0.4999680     0.4010950
  C       -0.4400839     0.9730588    -0.0535452
  C        1.6617300    -0.1844710    -0.6214880
  C        2.4978900    -0.3314020     0.6460640
  H       -0.2060500    -1.8213230     0.9608810
  H       -0.2853850    -2.2161620    -0.7686800
  H       -2.5951790    -1.5710950     0.5868370
  H       -2.3326610    -1.0086390    -1.0720610
  H       -1.8916900     0.5931740     1.4933710
  H       -2.6106570     1.1621840    -0.0164710
  H        1.8952280    -0.9774960    -1.3410860
  H        1.8622980     0.7788290    -1.0968800
  H        2.2724650     0.4877290     1.3331980
  H        2.2931660    -1.2799200     1.1504100
  H        3.5653110    -0.2984830     0.4074420
units angstrom
no_reorient  #important for SAPT in psi4, default
symmetry c1  #important for SAPT in psi4, default
}

set PROPERTIES_ORIGIN ["COM"]
properties('MP2/aug-cc-pvtz', properties = ['dipole'])
--------------------------------------------------------------------------

    Molecular point group: c1
  Charge       = 0
  Multiplicity = 1
  Basis Set: AUG-CC-PVTZ
    Blend: AUG-CC-PVTZ
  Basis Set: (AUG-CC-PVTZ AUX)
    Blend: AUG-CC-PVTZ-JKFIT

    Orbital Energies [Eh]
    ---------------------

    Doubly Occupied:

       1A    -20.522686     2A    -15.573126     3A    -11.341102
       4A    -11.271769     5A    -11.257359     6A    -11.239958
       7A    -11.238003     8A    -11.216638     9A     -1.400195
      10A     -1.253826    11A     -1.081776    12A     -0.995501
      13A     -0.965650    14A     -0.865413    15A     -0.823408
      16A     -0.723891    17A     -0.689450    18A     -0.669706
      19A     -0.643093    20A     -0.602799    21A     -0.588841
      22A     -0.580197    23A     -0.568132    24A     -0.556476
      25A     -0.524313    26A     -0.511455    27A     -0.506087
      28A     -0.489422    29A     -0.482885    30A     -0.408697
      31A     -0.367238

  @DF-RHF Final Energy:  -363.07476889768446

   => Energetics <=

    Nuclear Repulsion Energy =            394.1602956506844748
    One-Electron Energy =               -1274.5519495894700412
    Two-Electron Energy =                 517.3168850411011590
    Total Energy =                       -363.0747688976844074
  Basis Set: (AUG-CC-PVTZ AUX)
    Blend: AUG-CC-PVTZ-RI
    Molecular point group: c1

    Geometry (in Angstrom), charge = 0, multiplicity = 1:

       Center              X                  Y                   Z               Mass
    ------------   -----------------  -----------------  -----------------  -----------------
         O            0.005173433039     2.012077960379    -0.099402210374    15.994914619570
         N            0.250516433039    -0.276515039621    -0.343733210374    14.003074004430
         C           -0.475516566961    -1.493098039621    -0.014439210374    12.000000000000
         C           -1.934946566961    -1.017149039621    -0.033642210374    12.000000000000
         C           -1.833591566961     0.441163960379     0.415733789626    12.000000000000
         C           -0.424766466961     0.914254760379    -0.038906410374    12.000000000000
         C            1.677047433039    -0.243275039621    -0.606849210374    12.000000000000
         C            2.513207433039    -0.390206039621     0.660702789626    12.000000000000
         H           -0.190732566961    -1.880127039621     0.975519789626     1.007825032230
         H           -0.270067566961    -2.274966039621    -0.754041210374     1.007825032230
         H           -2.579861566961    -1.629899039621     0.601475789626     1.007825032230
         H           -2.317343566961    -1.067443039621    -1.057422210374     1.007825032230
         H           -1.876372566961     0.534369960379     1.508009789626     1.007825032230
         H           -2.595339566961     1.103379960379    -0.001832210374     1.007825032230
         H            1.910545433039    -1.036300039621    -1.326447210374     1.007825032230
         H            1.877615433039     0.720024960379    -1.082241210374     1.007825032230
         H            2.287782433039     0.428924960379     1.347836789626     1.007825032230
         H            2.308483433039    -1.338724039621     1.165048789626     1.007825032230
         H            3.580628433039    -0.357287039621     0.422080789626     1.007825032230

  Basis Set: AUG-CC-PVTZ
    Blend: AUG-CC-PVTZ
  Basis Set: (AUG-CC-PVTZ AUX)
    Blend: AUG-CC-PVTZ-JKFIT
	 Reference Energy          =    -363.0747688976844643 [Eh]
	 Singles Energy            =      -0.0000000000000000 [Eh]
	 Same-Spin Energy          =      -0.3758490179954799 [Eh]
	 Opposite-Spin Energy      =      -1.2451273889018943 [Eh]
	 Correlation Energy        =      -1.6209764068973742 [Eh]
	 Total Energy              =    -364.6957453045818625 [Eh]

	 ================> DF-SCS-MP2 Energies <==================
	-----------------------------------------------------------
	 SCS Same-Spin Scale       =       0.3333333333333333 [-]
	 SCS Opposite-Spin Scale   =       1.2000000000000000 [-]
	 SCS Same-Spin Energy      =      -0.1252830059984933 [Eh]
	 SCS Opposite-Spin Energy  =      -1.4941528666822732 [Eh]
	 SCS Correlation Energy    =      -1.6194358726807665 [Eh]
	 SCS Total Energy          =    -364.6942047703652179 [Eh]
	-----------------------------------------------------------

  Dipole Moment: [D]
     X:    -0.4389      Y:    -3.5150      Z:     0.2490     Total:     3.5510

*** Psi4 exiting successfully. Buy a developer a beer!
