                               Psi4 1.3.2 release

  ==> Input File <==

--------------------------------------------------------------------------
#psi4
#
memory 32 gb

molecule  {
0 1
  O       -0.0101440     2.0708820    -0.1140410
  N        0.2351990    -0.2177110    -0.3583720
  C       -0.4908340    -1.4342940    -0.0290780
  C       -1.9502640    -0.9583450    -0.0482810
  C       -1.8489090     0.4999680     0.4010950
  C       -0.4582930     0.9265630    -0.0509830
  C        1.6617300    -0.1844710    -0.6214880
  C        2.4978900    -0.3314020     0.6460640
  H       -0.2060500    -1.8213230     0.9608810
  H       -0.2853850    -2.2161620    -0.7686800
  H       -2.5951790    -1.5710950     0.5868370
  H       -2.3326610    -1.0086390    -1.0720610
  H       -1.8774412     0.5804689     1.4948454
  H       -2.6106570     1.1621840    -0.0164710
  H        1.8952280    -0.9774960    -1.3410860
  H        1.8622980     0.7788290    -1.0968800
  H        2.2724650     0.4877290     1.3331980
  H        2.2931660    -1.2799200     1.1504100
  H        3.5653110    -0.2984830     0.4074420
units angstrom
no_reorient  #important for SAPT in psi4, default
symmetry c1  #important for SAPT in psi4, default
}

set PROPERTIES_ORIGIN ["COM"]
properties('MP2/aug-cc-pvtz', properties = ['dipole'])
--------------------------------------------------------------------------

    Molecular point group: c1
  Charge       = 0
  Multiplicity = 1
  Basis Set: AUG-CC-PVTZ
    Blend: AUG-CC-PVTZ
  Basis Set: (AUG-CC-PVTZ AUX)
    Blend: AUG-CC-PVTZ-JKFIT

    Orbital Energies [Eh]
    ---------------------

    Doubly Occupied:

       1A    -20.511614     2A    -15.580923     3A    -11.341276
       4A    -11.274903     5A    -11.260894     6A    -11.242366
       7A    -11.240070     8A    -11.218656     9A     -1.366872
      10A     -1.258491    11A     -1.087979    12A     -1.000517
      13A     -0.972084    14A     -0.870231    15A     -0.829256
      16A     -0.726238    17A     -0.693395    18A     -0.667868
      19A     -0.639283    20A     -0.604556    21A     -0.589944
      22A     -0.572362    23A     -0.562993    24A     -0.554721
      25A     -0.522939    26A     -0.513094    27A     -0.509169
      28A     -0.490244    29A     -0.477638    30A     -0.409326
      31A     -0.369525

  @DF-RHF Final Energy:  -363.07593784450006

   => Energetics <=

    Nuclear Repulsion Energy =            394.3158904739757986
    One-Electron Energy =               -1274.8648034215930238
    Two-Electron Energy =                 517.4729751031172782
    Total Energy =                       -363.0759378445000038
  Basis Set: (AUG-CC-PVTZ AUX)
    Blend: AUG-CC-PVTZ-RI
    Molecular point group: c1

    Geometry (in Angstrom), charge = 0, multiplicity = 1:

       Center              X                  Y                   Z               Mass
    ------------   -----------------  -----------------  -----------------  -----------------
         O            0.006978717493     2.017125127042    -0.099687240254    15.994914619570
         N            0.252321717493    -0.271467872958    -0.344018240254    14.003074004430
         C           -0.473711282507    -1.488050872958    -0.014724240254    12.000000000000
         C           -1.933141282507    -1.012101872958    -0.033927240254    12.000000000000
         C           -1.831786282507     0.446211127042     0.415448759746    12.000000000000
         C           -0.441170282507     0.872806127042    -0.036629240254    12.000000000000
         C            1.678852717493    -0.238227872958    -0.607134240254    12.000000000000
         C            2.515012717493    -0.385158872958     0.660417759746    12.000000000000
         H           -0.188927282507    -1.875079872958     0.975234759746     1.007825032230
         H           -0.268262282507    -2.269918872958    -0.754326240254     1.007825032230
         H           -2.578056282507    -1.624851872958     0.601190759746     1.007825032230
         H           -2.315538282507    -1.062395872958    -1.057707240254     1.007825032230
         H           -1.860318482507     0.526712027042     1.509199159746     1.007825032230
         H           -2.593534282507     1.108427127042    -0.002117240254     1.007825032230
         H            1.912350717493    -1.031252872958    -1.326732240254     1.007825032230
         H            1.879420717493     0.725072127042    -1.082526240254     1.007825032230
         H            2.289587717493     0.433972127042     1.347551759746     1.007825032230
         H            2.310288717493    -1.333676872958     1.164763759746     1.007825032230
         H            3.582433717493    -0.352239872958     0.421795759746     1.007825032230

  Basis Set: AUG-CC-PVTZ
    Blend: AUG-CC-PVTZ
  Basis Set: (AUG-CC-PVTZ AUX)
    Blend: AUG-CC-PVTZ-JKFIT
	 Reference Energy          =    -363.0759378445000607 [Eh]
	 Singles Energy            =      -0.0000000000000000 [Eh]
	 Same-Spin Energy          =      -0.3767928966877799 [Eh]
	 Opposite-Spin Energy      =      -1.2469378435894283 [Eh]
	 Correlation Energy        =      -1.6237307402772081 [Eh]
	 Total Energy              =    -364.6996685847772710 [Eh]

	 ================> DF-SCS-MP2 Energies <==================
	-----------------------------------------------------------
	 SCS Same-Spin Scale       =       0.3333333333333333 [-]
	 SCS Opposite-Spin Scale   =       1.2000000000000000 [-]
	 SCS Same-Spin Energy      =      -0.1255976322292600 [Eh]
	 SCS Opposite-Spin Energy  =      -1.4963254123073140 [Eh]
	 SCS Correlation Energy    =      -1.6219230445365740 [Eh]
	 SCS Total Energy          =    -364.6978608890366331 [Eh]
	-----------------------------------------------------------

  Dipole Moment: [D]
     X:    -0.4591      Y:    -3.9494      Z:     0.2513     Total:     3.9839

*** Psi4 exiting successfully. Buy a developer a beer!
