                               Psi4 1.3.2 release

  ==> Input File <==

--------------------------------------------------------------------------
#psi4
#
memory 32 gb

molecule  {
0 1
  O       -0.0101440     2.0708820    -0.1140410
  N        0.2351990    -0.2177110    -0.3583720
  C       -0.4908340    -1.4342940    -0.0290780
  C       -1.9502640    -0.9583450    -0.0482810
  C       -1.8489090     0.4999680     0.4010950
  C       -0.4218747     1.0195547    -0.0561073
  C        1.6617300    -0.1844710    -0.6214880
  C        2.4978900    -0.3314020     0.6460640
  H       -0.2060500    -1.8213230     0.9608810
  H       -0.2853850    -2.2161620    -0.7686800
  H       -2.5951790    -1.5710950     0.5868370
  H       -2.3326610    -1.0086390    -1.0720610
  H       -1.8916900     0.5931740     1.4933710
  H       -2.6106570     1.1621840    -0.0164710
  H        1.8952280    -0.9774960    -1.3410860
  H        1.8622980     0.7788290    -1.0968800
  H        2.2724650     0.4877290     1.3331980
  H        2.2931660    -1.2799200     1.1504100
  H        3.5653110    -0.2984830     0.4074420
units angstrom
no_reorient  #important for SAPT in psi4, default
symmetry c1  #important for SAPT in psi4, default
}

set PROPERTIES_ORIGIN ["COM"]
properties('MP2/aug-cc-pvtz', properties = ['dipole'])
--------------------------------------------------------------------------

    Molecular point group: c1
  Charge       = 0
  Multiplicity = 1
  Basis Set: AUG-CC-PVTZ
    Blend: AUG-CC-PVTZ
  Basis Set: (AUG-CC-PVTZ AUX)
    Blend: AUG-CC-PVTZ-JKFIT

    Orbital Energies [Eh]
    ---------------------

    Doubly Occupied:

       1A    -20.533842     2A    -15.565138     3A    -11.340353
       4A    -11.268536     5A    -11.253892     6A    -11.237340
       7A    -11.235599     8A    -11.214690     9A     -1.440666
      10A     -1.245579    11A     -1.075993    12A     -0.990744
      13A     -0.958623    14A     -0.860592    15A     -0.817638
      16A     -0.723176    17A     -0.686627    18A     -0.675343
      19A     -0.646027    20A     -0.605061    21A     -0.591315
      22A     -0.586435    23A     -0.577354    24A     -0.554998
      25A     -0.527897    26A     -0.509252    27A     -0.502441
      28A     -0.489826    29A     -0.483364    30A     -0.403306
      31A     -0.363235

  @DF-RHF Final Energy:  -363.06305936803216

   => Energetics <=

    Nuclear Repulsion Energy =            394.1212564369896540
    One-Electron Energy =               -1274.4388633855885473
    Two-Electron Energy =                 517.2545475805667365
    Total Energy =                       -363.0630593680322136
  Basis Set: (AUG-CC-PVTZ AUX)
    Blend: AUG-CC-PVTZ-RI
    Molecular point group: c1

    Geometry (in Angstrom), charge = 0, multiplicity = 1:

       Center              X                  Y                   Z               Mass
    ------------   -----------------  -----------------  -----------------  -----------------
         O            0.003241150167     2.007144013186    -0.099130331217    15.994914619570
         N            0.248584150167    -0.281448986814    -0.343461331217    14.003074004430
         C           -0.477448849833    -1.498031986814    -0.014167331217    12.000000000000
         C           -1.936878849833    -1.022082986814    -0.033370331217    12.000000000000
         C           -1.835523849833     0.436230013186     0.416005668783    12.000000000000
         C           -0.408489549833     0.955816713186    -0.041196631217    12.000000000000
         C            1.675115150167    -0.248208986814    -0.606577331217    12.000000000000
         C            2.511275150167    -0.395139986814     0.660974668783    12.000000000000
         H           -0.192664849833    -1.885060986814     0.975791668783     1.007825032230
         H           -0.271999849833    -2.279899986814    -0.753769331217     1.007825032230
         H           -2.581793849833    -1.634832986814     0.601747668783     1.007825032230
         H           -2.319275849833    -1.072376986814    -1.057150331217     1.007825032230
         H           -1.878304849833     0.529436013186     1.508281668783     1.007825032230
         H           -2.597271849833     1.098446013186    -0.001560331217     1.007825032230
         H            1.908613150167    -1.041233986814    -1.326175331217     1.007825032230
         H            1.875683150167     0.715091013186    -1.081969331217     1.007825032230
         H            2.285850150167     0.423991013186     1.348108668783     1.007825032230
         H            2.306551150167    -1.343657986814     1.165320668783     1.007825032230
         H            3.578696150167    -0.362220986814     0.422352668783     1.007825032230

  Basis Set: AUG-CC-PVTZ
    Blend: AUG-CC-PVTZ
  Basis Set: (AUG-CC-PVTZ AUX)
    Blend: AUG-CC-PVTZ-JKFIT
	 Reference Energy          =    -363.0630593680321567 [Eh]
	 Singles Energy            =      -0.0000000000000000 [Eh]
	 Same-Spin Energy          =      -0.3750038399305098 [Eh]
	 Opposite-Spin Energy      =      -1.2434924311585180 [Eh]
	 Correlation Energy        =      -1.6184962710890278 [Eh]
	 Total Energy              =    -364.6815556391211999 [Eh]

	 ================> DF-SCS-MP2 Energies <==================
	-----------------------------------------------------------
	 SCS Same-Spin Scale       =       0.3333333333333333 [-]
	 SCS Opposite-Spin Scale   =       1.2000000000000000 [-]
	 SCS Same-Spin Energy      =      -0.1250012799768366 [Eh]
	 SCS Opposite-Spin Energy  =      -1.4921909173902217 [Eh]
	 SCS Correlation Energy    =      -1.6171921973670582 [Eh]
	 SCS Total Energy          =    -364.6802515653992032 [Eh]
	-----------------------------------------------------------

  Dipole Moment: [D]
     X:    -0.4049      Y:    -3.0548      Z:     0.2434     Total:     3.0911

*** Psi4 exiting successfully. Buy a developer a beer!
