                               Psi4 1.3.2 release

  ==> Input File <==

--------------------------------------------------------------------------
#psi4
#
memory 32 gb

molecule  {
0 1
  O       -0.0101440     2.0708820    -0.1140410
  N        0.2268128    -0.2119187    -0.4079818
  C       -0.4908340    -1.4342940    -0.0290780
  C       -1.9502640    -0.9583450    -0.0482810
  C       -1.8489090     0.4999680     0.4010950
  C       -0.4582930     0.9265630    -0.0509830
  C        1.6617300    -0.1844710    -0.6214880
  C        2.4978900    -0.3314020     0.6460640
  H       -0.2060500    -1.8213230     0.9608810
  H       -0.2853850    -2.2161620    -0.7686800
  H       -2.5951790    -1.5710950     0.5868370
  H       -2.3326610    -1.0086390    -1.0720610
  H       -1.8916900     0.5931740     1.4933710
  H       -2.6106570     1.1621840    -0.0164710
  H        1.8952280    -0.9774960    -1.3410860
  H        1.8622980     0.7788290    -1.0968800
  H        2.2724650     0.4877290     1.3331980
  H        2.2931660    -1.2799200     1.1504100
  H        3.5653110    -0.2984830     0.4074420
units angstrom
no_reorient  #important for SAPT in psi4, default
symmetry c1  #important for SAPT in psi4, default
}

set PROPERTIES_ORIGIN ["COM"]
properties('MP2/aug-cc-pvtz', properties = ['dipole'])
--------------------------------------------------------------------------

    Molecular point group: c1
  Charge       = 0
  Multiplicity = 1
  Basis Set: AUG-CC-PVTZ
    Blend: AUG-CC-PVTZ
  Basis Set: (AUG-CC-PVTZ AUX)
    Blend: AUG-CC-PVTZ-JKFIT

    Orbital Energies [Eh]
    ---------------------

    Doubly Occupied:

       1A    -20.512862     2A    -15.581401     3A    -11.341863
       4A    -11.275238     5A    -11.260088     6A    -11.242302
       7A    -11.240468     8A    -11.219449     9A     -1.367284
      10A     -1.256035    11A     -1.087576    12A     -1.000404
      13A     -0.970959    14A     -0.870647    15A     -0.828687
      16A     -0.724718    17A     -0.692973    18A     -0.666145
      19A     -0.639146    20A     -0.604165    21A     -0.590990
      22A     -0.569457    23A     -0.564168    24A     -0.554488
      25A     -0.525152    26A     -0.510576    27A     -0.509126
      28A     -0.488678    29A     -0.478071    30A     -0.410487
      31A     -0.371674

  @DF-RHF Final Energy:  -363.07500287550056

   => Energetics <=

    Nuclear Repulsion Energy =            393.9456163476725692
    One-Electron Energy =               -1274.1306817616207354
    Two-Electron Energy =                 517.1100625384476643
    Total Energy =                       -363.0750028755005587
  Basis Set: (AUG-CC-PVTZ AUX)
    Blend: AUG-CC-PVTZ-RI
    Molecular point group: c1

    Geometry (in Angstrom), charge = 0, multiplicity = 1:

       Center              X                  Y                   Z               Mass
    ------------   -----------------  -----------------  -----------------  -----------------
         O            0.008144159129     2.016294642886    -0.093530973726    15.994914619570
         N            0.245100959129    -0.266506057114    -0.387471773726    14.003074004430
         C           -0.472545840871    -1.488881357114    -0.008567973726    12.000000000000
         C           -1.931975840871    -1.012932357114    -0.027770973726    12.000000000000
         C           -1.830620840871     0.445380642886     0.421605026274    12.000000000000
         C           -0.440004840871     0.871975642886    -0.030472973726    12.000000000000
         C            1.680018159129    -0.239058357114    -0.600977973726    12.000000000000
         C            2.516178159129    -0.385989357114     0.666574026274    12.000000000000
         H           -0.187761840871    -1.875910357114     0.981391026274     1.007825032230
         H           -0.267096840871    -2.270749357114    -0.748169973726     1.007825032230
         H           -2.576890840871    -1.625682357114     0.607347026274     1.007825032230
         H           -2.314372840871    -1.063226357114    -1.051550973726     1.007825032230
         H           -1.873401840871     0.538586642886     1.513881026274     1.007825032230
         H           -2.592368840871     1.107596642886     0.004039026274     1.007825032230
         H            1.913516159129    -1.032083357114    -1.320575973726     1.007825032230
         H            1.880586159129     0.724241642886    -1.076369973726     1.007825032230
         H            2.290753159129     0.433141642886     1.353708026274     1.007825032230
         H            2.311454159129    -1.334507357114     1.170920026274     1.007825032230
         H            3.583599159129    -0.353070357114     0.427952026274     1.007825032230

  Basis Set: AUG-CC-PVTZ
    Blend: AUG-CC-PVTZ
  Basis Set: (AUG-CC-PVTZ AUX)
    Blend: AUG-CC-PVTZ-JKFIT
	 Reference Energy          =    -363.0750028755005587 [Eh]
	 Singles Energy            =      -0.0000000000000000 [Eh]
	 Same-Spin Energy          =      -0.3767287523726350 [Eh]
	 Opposite-Spin Energy      =      -1.2470526028405657 [Eh]
	 Correlation Energy        =      -1.6237813552132008 [Eh]
	 Total Energy              =    -364.6987842307137839 [Eh]

	 ================> DF-SCS-MP2 Energies <==================
	-----------------------------------------------------------
	 SCS Same-Spin Scale       =       0.3333333333333333 [-]
	 SCS Opposite-Spin Scale   =       1.2000000000000000 [-]
	 SCS Same-Spin Energy      =      -0.1255762507908783 [Eh]
	 SCS Opposite-Spin Energy  =      -1.4964631234086789 [Eh]
	 SCS Correlation Energy    =      -1.6220393741995573 [Eh]
	 SCS Total Energy          =    -364.6970422497001323 [Eh]
	-----------------------------------------------------------

  Dipole Moment: [D]
     X:    -0.4681      Y:    -3.9091      Z:     0.3426     Total:     3.9519

*** Psi4 exiting successfully. Buy a developer a beer!
