                               Psi4 1.3.2 release

  ==> Input File <==

--------------------------------------------------------------------------
#psi4
#
memory 32 gb

molecule  {
0 1
  O       -0.0101440     2.0708820    -0.1140410
  N        0.2351990    -0.2177110    -0.3583720
  C       -0.4908340    -1.4342940    -0.0290780
  C       -1.9502640    -0.9583450    -0.0482810
  C       -1.8489090     0.4999680     0.4010950
  C       -0.4582930     0.9265630    -0.0509830
  C        1.6617300    -0.1844710    -0.6214880
  C        2.4978900    -0.3314020     0.6460640
  H       -0.2060500    -1.8213230     0.9608810
  H       -0.2853850    -2.2161620    -0.7686800
  H       -2.5951790    -1.5710950     0.5868370
  H       -2.3326610    -1.0086390    -1.0720610
  H       -1.8346599     0.5422218     1.4972683
  H       -2.6106570     1.1621840    -0.0164710
  H        1.8952280    -0.9774960    -1.3410860
  H        1.8622980     0.7788290    -1.0968800
  H        2.2724650     0.4877290     1.3331980
  H        2.2931660    -1.2799200     1.1504100
  H        3.5653110    -0.2984830     0.4074420
units angstrom
no_reorient  #important for SAPT in psi4, default
symmetry c1  #important for SAPT in psi4, default
}

set PROPERTIES_ORIGIN ["COM"]
properties('MP2/aug-cc-pvtz', properties = ['dipole'])
--------------------------------------------------------------------------

    Molecular point group: c1
  Charge       = 0
  Multiplicity = 1
  Basis Set: AUG-CC-PVTZ
    Blend: AUG-CC-PVTZ
  Basis Set: (AUG-CC-PVTZ AUX)
    Blend: AUG-CC-PVTZ-JKFIT

    Orbital Energies [Eh]
    ---------------------

    Doubly Occupied:

       1A    -20.511630     2A    -15.580801     3A    -11.341074
       4A    -11.274945     5A    -11.260842     6A    -11.242162
       7A    -11.240418     8A    -11.218661     9A     -1.366907
      10A     -1.258503    11A     -1.088373    12A     -1.000573
      13A     -0.972166    14A     -0.870198    15A     -0.828686
      16A     -0.725847    17A     -0.693834    18A     -0.668400
      19A     -0.638935    20A     -0.604427    21A     -0.591732
      22A     -0.572746    23A     -0.562376    24A     -0.554983
      25A     -0.522987    26A     -0.513068    27A     -0.508027
      28A     -0.490637    29A     -0.477791    30A     -0.409123
      31A     -0.369577

  @DF-RHF Final Energy:  -363.07545699875226

   => Energetics <=

    Nuclear Repulsion Energy =            394.4060599505597224
    One-Electron Energy =               -1275.0421729329436857
    Two-Electron Energy =                 517.5606559836317047
    Total Energy =                       -363.0754569987523155
  Basis Set: (AUG-CC-PVTZ AUX)
    Blend: AUG-CC-PVTZ-RI
    Molecular point group: c1

    Geometry (in Angstrom), charge = 0, multiplicity = 1:

       Center              X                  Y                   Z               Mass
    ------------   -----------------  -----------------  -----------------  -----------------
         O            0.006597443036     2.017465991912    -0.099708833564    15.994914619570
         N            0.251940443036    -0.271127008088    -0.344039833564    14.003074004430
         C           -0.474092556964    -1.487710008088    -0.014745833564    12.000000000000
         C           -1.933522556964    -1.011761008088    -0.033948833564    12.000000000000
         C           -1.832167556964     0.446551991912     0.415427166436    12.000000000000
         C           -0.441551556964     0.873146991912    -0.036650833564    12.000000000000
         C            1.678471443036    -0.237887008088    -0.607155833564    12.000000000000
         C            2.514631443036    -0.384818008088     0.660396166436    12.000000000000
         H           -0.189308556964    -1.874739008088     0.975213166436     1.007825032230
         H           -0.268643556964    -2.269578008088    -0.754347833564     1.007825032230
         H           -2.578437556964    -1.624511008088     0.601169166436     1.007825032230
         H           -2.315919556964    -1.062055008088    -1.057728833564     1.007825032230
         H           -1.817918456964     0.488805791912     1.511600466436     1.007825032230
         H           -2.593915556964     1.108767991912    -0.002138833564     1.007825032230
         H            1.911969443036    -1.030912008088    -1.326753833564     1.007825032230
         H            1.879039443036     0.725412991912    -1.082547833564     1.007825032230
         H            2.289206443036     0.434312991912     1.347530166436     1.007825032230
         H            2.309907443036    -1.333336008088     1.164742166436     1.007825032230
         H            3.582052443036    -0.351899008088     0.421774166436     1.007825032230

  Basis Set: AUG-CC-PVTZ
    Blend: AUG-CC-PVTZ
  Basis Set: (AUG-CC-PVTZ AUX)
    Blend: AUG-CC-PVTZ-JKFIT
	 Reference Energy          =    -363.0754569987522586 [Eh]
	 Singles Energy            =      -0.0000000000000000 [Eh]
	 Same-Spin Energy          =      -0.3768385101334247 [Eh]
	 Opposite-Spin Energy      =      -1.2470108987610382 [Eh]
	 Correlation Energy        =      -1.6238494088944631 [Eh]
	 Total Energy              =    -364.6993064076467022 [Eh]

	 ================> DF-SCS-MP2 Energies <==================
	-----------------------------------------------------------
	 SCS Same-Spin Scale       =       0.3333333333333333 [-]
	 SCS Opposite-Spin Scale   =       1.2000000000000000 [-]
	 SCS Same-Spin Energy      =      -0.1256128367111416 [Eh]
	 SCS Opposite-Spin Energy  =      -1.4964130785132459 [Eh]
	 SCS Correlation Energy    =      -1.6220259152243874 [Eh]
	 SCS Total Energy          =    -364.6974829139766712 [Eh]
	-----------------------------------------------------------

  Dipole Moment: [D]
     X:    -0.4490      Y:    -3.9573      Z:     0.2436     Total:     3.9901

*** Psi4 exiting successfully. Buy a developer a beer!
