                               Psi4 1.3.2 release

  ==> Input File <==

--------------------------------------------------------------------------
#psi4
#
memory 32 gb

molecule  {
0 1
  O       -0.0101440     2.0708820    -0.1140410
  N        0.2351990    -0.2177110    -0.3583720
  C       -0.4520243    -1.2861936     0.0197279
  C       -1.9502640    -0.9583450    -0.0482810
  C       -1.8489090     0.4999680     0.4010950
  C       -0.4582930     0.9265630    -0.0509830
  C        1.6617300    -0.1844710    -0.6214880
  C        2.4978900    -0.3314020     0.6460640
  H       -0.2060500    -1.8213230     0.9608810
  H       -0.2853850    -2.2161620    -0.7686800
  H       -2.5951790    -1.5710950     0.5868370
  H       -2.3326610    -1.0086390    -1.0720610
  H       -1.8916900     0.5931740     1.4933710
  H       -2.6106570     1.1621840    -0.0164710
  H        1.8952280    -0.9774960    -1.3410860
  H        1.8622980     0.7788290    -1.0968800
  H        2.2724650     0.4877290     1.3331980
  H        2.2931660    -1.2799200     1.1504100
  H        3.5653110    -0.2984830     0.4074420
units angstrom
no_reorient  #important for SAPT in psi4, default
symmetry c1  #important for SAPT in psi4, default
}

set PROPERTIES_ORIGIN ["COM"]
properties('MP2/aug-cc-pvtz', properties = ['dipole'])
--------------------------------------------------------------------------

    Molecular point group: c1
  Charge       = 0
  Multiplicity = 1
  Basis Set: AUG-CC-PVTZ
    Blend: AUG-CC-PVTZ
  Basis Set: (AUG-CC-PVTZ AUX)
    Blend: AUG-CC-PVTZ-JKFIT

    Orbital Energies [Eh]
    ---------------------

    Doubly Occupied:

       1A    -20.518007     2A    -15.584196     3A    -11.345967
       4A    -11.276860     5A    -11.266852     6A    -11.241907
       7A    -11.240396     8A    -11.222152     9A     -1.378396
      10A     -1.291798    11A     -1.093594    12A     -1.010073
      13A     -0.964184    14A     -0.879646    15A     -0.833448
      16A     -0.735946    17A     -0.706927    18A     -0.669307
      19A     -0.638857    20A     -0.609343    21A     -0.594756
      22A     -0.583213    23A     -0.560596    24A     -0.556552
      25A     -0.529570    26A     -0.518075    27A     -0.502525
      28A     -0.483746    29A     -0.467272    30A     -0.414380
      31A     -0.364786

  @DF-RHF Final Energy:  -363.04750690704174

   => Energetics <=

    Nuclear Repulsion Energy =            397.2161251192847544
    One-Electron Energy =               -1280.3606091103174549
    Two-Electron Energy =                 520.0969770839910780
    Total Energy =                       -363.0475069070416794
  Basis Set: (AUG-CC-PVTZ AUX)
    Blend: AUG-CC-PVTZ-RI
    Molecular point group: c1

    Geometry (in Angstrom), charge = 0, multiplicity = 1:

       Center              X                  Y                   Z               Mass
    ------------   -----------------  -----------------  -----------------  -----------------
         O            0.002987384968     2.001296112282    -0.104853174712    15.994914619570
         N            0.248330384968    -0.287296887718    -0.349184174712    14.003074004430
         C           -0.438892915032    -1.355779487718     0.028915725288    12.000000000000
         C           -1.937132615032    -1.027930887718    -0.039093174712    12.000000000000
         C           -1.835777615032     0.430382112282     0.410282825288    12.000000000000
         C           -0.445161615032     0.856977112282    -0.041795174712    12.000000000000
         C            1.674861384968    -0.254056887718    -0.612300174712    12.000000000000
         C            2.511021384968    -0.400987887718     0.655251825288    12.000000000000
         H           -0.192918615032    -1.890908887718     0.970068825288     1.007825032230
         H           -0.272253615032    -2.285747887718    -0.759492174712     1.007825032230
         H           -2.582047615032    -1.640680887718     0.596024825288     1.007825032230
         H           -2.319529615032    -1.078224887718    -1.062873174712     1.007825032230
         H           -1.878558615032     0.523588112282     1.502558825288     1.007825032230
         H           -2.597525615032     1.092598112282    -0.007283174712     1.007825032230
         H            1.908359384968    -1.047081887718    -1.331898174712     1.007825032230
         H            1.875429384968     0.709243112282    -1.087692174712     1.007825032230
         H            2.285596384968     0.418143112282     1.342385825288     1.007825032230
         H            2.306297384968    -1.349505887718     1.159597825288     1.007825032230
         H            3.578442384968    -0.368068887718     0.416629825288     1.007825032230

  Basis Set: AUG-CC-PVTZ
    Blend: AUG-CC-PVTZ
  Basis Set: (AUG-CC-PVTZ AUX)
    Blend: AUG-CC-PVTZ-JKFIT
	 Reference Energy          =    -363.0475069070417362 [Eh]
	 Singles Energy            =      -0.0000000000000000 [Eh]
	 Same-Spin Energy          =      -0.3783399911662562 [Eh]
	 Opposite-Spin Energy      =      -1.2484776567758111 [Eh]
	 Correlation Energy        =      -1.6268176479420673 [Eh]
	 Total Energy              =    -364.6743245549837980 [Eh]

	 ================> DF-SCS-MP2 Energies <==================
	-----------------------------------------------------------
	 SCS Same-Spin Scale       =       0.3333333333333333 [-]
	 SCS Opposite-Spin Scale   =       1.2000000000000000 [-]
	 SCS Same-Spin Energy      =      -0.1261133303887521 [Eh]
	 SCS Opposite-Spin Energy  =      -1.4981731881309732 [Eh]
	 SCS Correlation Energy    =      -1.6242865185197253 [Eh]
	 SCS Total Energy          =    -364.6717934255614750 [Eh]
	-----------------------------------------------------------

  Dipole Moment: [D]
     X:    -0.3217      Y:    -3.4382      Z:     0.3131     Total:     3.4674

*** Psi4 exiting successfully. Buy a developer a beer!
