                               Psi4 1.3.2 release

  ==> Input File <==

--------------------------------------------------------------------------
#psi4
#
memory 32 gb

molecule  {
0 1
  O       -0.0101440     2.0708820    -0.1140410
  N        0.2351990    -0.2177110    -0.3583720
  C       -0.4908340    -1.4342940    -0.0290780
  C       -1.9502640    -0.9583450    -0.0482810
  C       -1.8489090     0.4999680     0.4010950
  C       -0.2757029     0.9825756    -0.1103416
  C        1.6617300    -0.1844710    -0.6214880
  C        2.4978900    -0.3314020     0.6460640
  H       -0.2060500    -1.8213230     0.9608810
  H       -0.2853850    -2.2161620    -0.7686800
  H       -2.5951790    -1.5710950     0.5868370
  H       -2.3326610    -1.0086390    -1.0720610
  H       -1.8916900     0.5931740     1.4933710
  H       -2.6106570     1.1621840    -0.0164710
  H        1.8952280    -0.9774960    -1.3410860
  H        1.8622980     0.7788290    -1.0968800
  H        2.2724650     0.4877290     1.3331980
  H        2.2931660    -1.2799200     1.1504100
  H        3.5653110    -0.2984830     0.4074420
units angstrom
no_reorient  #important for SAPT in psi4, default
symmetry c1  #important for SAPT in psi4, default
}

set PROPERTIES_ORIGIN ["COM"]
properties('MP2/aug-cc-pvtz', properties = ['dipole'])
--------------------------------------------------------------------------

    Molecular point group: c1
  Charge       = 0
  Multiplicity = 1
  Basis Set: AUG-CC-PVTZ
    Blend: AUG-CC-PVTZ
  Basis Set: (AUG-CC-PVTZ AUX)
    Blend: AUG-CC-PVTZ-JKFIT

    Orbital Energies [Eh]
    ---------------------

    Doubly Occupied:

       1A    -20.529828     2A    -15.583198     3A    -11.338090
       4A    -11.277254     5A    -11.262899     6A    -11.230750
       7A    -11.222450     8A    -11.217120     9A     -1.445921
      10A     -1.280658    11A     -1.073820    12A     -1.003482
      13A     -0.953079    14A     -0.868940    15A     -0.818249
      16A     -0.724787    17A     -0.694281    18A     -0.676873
      19A     -0.655796    20A     -0.610263    21A     -0.598188
      22A     -0.582544    23A     -0.576576    24A     -0.557931
      25A     -0.533430    26A     -0.515116    27A     -0.501690
      28A     -0.487743    29A     -0.481173    30A     -0.387224
      31A     -0.363852

  @DF-RHF Final Energy:  -363.03715668100017

   => Energetics <=

    Nuclear Repulsion Energy =            395.2711908402951053
    One-Electron Energy =               -1276.5102817675451661
    Two-Electron Energy =                 518.2019342462499480
    Total Energy =                       -363.0371566810001696
  Basis Set: (AUG-CC-PVTZ AUX)
    Blend: AUG-CC-PVTZ-RI
    Molecular point group: c1

    Geometry (in Angstrom), charge = 0, multiplicity = 1:

       Center              X                  Y                   Z               Mass
    ------------   -----------------  -----------------  -----------------  -----------------
         O           -0.012269979681     2.011068078031    -0.093375217922    15.994914619570
         N            0.233073020319    -0.277524921969    -0.337706217922    14.003074004430
         C           -0.492959979681    -1.494107921969    -0.008412217922    12.000000000000
         C           -1.952389979681    -1.018158921969    -0.027615217922    12.000000000000
         C           -1.851034979681     0.440154078031     0.421760782078    12.000000000000
         C           -0.277828879681     0.922761678031    -0.089675817922    12.000000000000
         C            1.659604020319    -0.244284921969    -0.600822217922    12.000000000000
         C            2.495764020319    -0.391215921969     0.666729782078    12.000000000000
         H           -0.208175979681    -1.881136921969     0.981546782078     1.007825032230
         H           -0.287510979681    -2.275975921969    -0.748014217922     1.007825032230
         H           -2.597304979681    -1.630908921969     0.607502782078     1.007825032230
         H           -2.334786979681    -1.068452921969    -1.051395217922     1.007825032230
         H           -1.893815979681     0.533360078031     1.514036782078     1.007825032230
         H           -2.612782979681     1.102370078031     0.004194782078     1.007825032230
         H            1.893102020319    -1.037309921969    -1.320420217922     1.007825032230
         H            1.860172020319     0.719015078031    -1.076214217922     1.007825032230
         H            2.270339020319     0.427915078031     1.353863782078     1.007825032230
         H            2.291040020319    -1.339733921969     1.171075782078     1.007825032230
         H            3.563185020319    -0.358296921969     0.428107782078     1.007825032230

  Basis Set: AUG-CC-PVTZ
    Blend: AUG-CC-PVTZ
  Basis Set: (AUG-CC-PVTZ AUX)
    Blend: AUG-CC-PVTZ-JKFIT
	 Reference Energy          =    -363.0371566810001696 [Eh]
	 Singles Energy            =      -0.0000000000000000 [Eh]
	 Same-Spin Energy          =      -0.3755646712322361 [Eh]
	 Opposite-Spin Energy      =      -1.2445196598890949 [Eh]
	 Correlation Energy        =      -1.6200843311213311 [Eh]
	 Total Energy              =    -364.6572410121215171 [Eh]

	 ================> DF-SCS-MP2 Energies <==================
	-----------------------------------------------------------
	 SCS Same-Spin Scale       =       0.3333333333333333 [-]
	 SCS Opposite-Spin Scale   =       1.2000000000000000 [-]
	 SCS Same-Spin Energy      =      -0.1251882237440787 [Eh]
	 SCS Opposite-Spin Energy  =      -1.4934235918669139 [Eh]
	 SCS Correlation Energy    =      -1.6186118156109925 [Eh]
	 SCS Total Energy          =    -364.6557684966111879 [Eh]
	-----------------------------------------------------------

  Dipole Moment: [D]
     X:     0.5094      Y:    -3.4343      Z:    -0.0152     Total:     3.4719

*** Psi4 exiting successfully. Buy a developer a beer!
