                               Psi4 1.3.2 release

  ==> Input File <==

--------------------------------------------------------------------------
#psi4
#
memory 32 gb

molecule  {
0 1
  O       -0.0101440     2.0708820    -0.1140410
  N        0.2707342    -0.2348170    -0.2117056
  C       -0.4908340    -1.4342940    -0.0290780
  C       -1.9502640    -0.9583450    -0.0482810
  C       -1.8489090     0.4999680     0.4010950
  C       -0.4582930     0.9265630    -0.0509830
  C        1.6617300    -0.1844710    -0.6214880
  C        2.4978900    -0.3314020     0.6460640
  H       -0.2060500    -1.8213230     0.9608810
  H       -0.2853850    -2.2161620    -0.7686800
  H       -2.5951790    -1.5710950     0.5868370
  H       -2.3326610    -1.0086390    -1.0720610
  H       -1.8916900     0.5931740     1.4933710
  H       -2.6106570     1.1621840    -0.0164710
  H        1.8952280    -0.9774960    -1.3410860
  H        1.8622980     0.7788290    -1.0968800
  H        2.2724650     0.4877290     1.3331980
  H        2.2931660    -1.2799200     1.1504100
  H        3.5653110    -0.2984830     0.4074420
units angstrom
no_reorient  #important for SAPT in psi4, default
symmetry c1  #important for SAPT in psi4, default
}

set PROPERTIES_ORIGIN ["COM"]
properties('MP2/aug-cc-pvtz', properties = ['dipole'])
--------------------------------------------------------------------------

    Molecular point group: c1
  Charge       = 0
  Multiplicity = 1
  Basis Set: AUG-CC-PVTZ
    Blend: AUG-CC-PVTZ
  Basis Set: (AUG-CC-PVTZ AUX)
    Blend: AUG-CC-PVTZ-JKFIT

    Orbital Energies [Eh]
    ---------------------

    Doubly Occupied:

       1A    -20.512420     2A    -15.579334     3A    -11.342236
       4A    -11.273214     5A    -11.261731     6A    -11.243071
       7A    -11.239748     8A    -11.215485     9A     -1.366758
      10A     -1.261559    11A     -1.088723    12A     -0.999526
      13A     -0.972701    14A     -0.867216    15A     -0.829193
      16A     -0.731953    17A     -0.690385    18A     -0.671943
      19A     -0.640265    20A     -0.605300    21A     -0.585106
      22A     -0.578055    23A     -0.561364    24A     -0.554678
      25A     -0.519545    26A     -0.514025    27A     -0.509178
      28A     -0.492243    29A     -0.475935    30A     -0.408615
      31A     -0.364684

  @DF-RHF Final Energy:  -363.07005977386137

   => Energetics <=

    Nuclear Repulsion Energy =            394.7956954203731925
    One-Electron Energy =               -1275.8191335931826416
    Two-Electron Energy =                 517.9533783989479616
    Total Energy =                       -363.0700597738614306
  Basis Set: (AUG-CC-PVTZ AUX)
    Blend: AUG-CC-PVTZ-RI
    Molecular point group: c1

    Geometry (in Angstrom), charge = 0, multiplicity = 1:

       Center              X                  Y                   Z               Mass
    ------------   -----------------  -----------------  -----------------  -----------------
         O            0.002705420964     2.019130113935    -0.117835637506    15.994914619570
         N            0.283583620964    -0.286568886065    -0.215500237506    14.003074004430
         C           -0.477984579036    -1.486045886065    -0.032872637506    12.000000000000
         C           -1.937414579036    -1.010096886065    -0.052075637506    12.000000000000
         C           -1.836059579036     0.448216113935     0.397300362494    12.000000000000
         C           -0.445443579036     0.874811113935    -0.054777637506    12.000000000000
         C            1.674579420964    -0.236222886065    -0.625282637506    12.000000000000
         C            2.510739420964    -0.383153886065     0.642269362494    12.000000000000
         H           -0.193200579036    -1.873074886065     0.957086362494     1.007825032230
         H           -0.272535579036    -2.267913886065    -0.772474637506     1.007825032230
         H           -2.582329579036    -1.622846886065     0.583042362494     1.007825032230
         H           -2.319811579036    -1.060390886065    -1.075855637506     1.007825032230
         H           -1.878840579036     0.541422113935     1.489576362494     1.007825032230
         H           -2.597807579036     1.110432113935    -0.020265637506     1.007825032230
         H            1.908077420964    -1.029247886065    -1.344880637506     1.007825032230
         H            1.875147420964     0.727077113935    -1.100674637506     1.007825032230
         H            2.285314420964     0.435977113935     1.329403362494     1.007825032230
         H            2.306015420964    -1.331671886065     1.146615362494     1.007825032230
         H            3.578160420964    -0.350234886065     0.403647362494     1.007825032230

  Basis Set: AUG-CC-PVTZ
    Blend: AUG-CC-PVTZ
  Basis Set: (AUG-CC-PVTZ AUX)
    Blend: AUG-CC-PVTZ-JKFIT
	 Reference Energy          =    -363.0700597738613737 [Eh]
	 Singles Energy            =      -0.0000000000000000 [Eh]
	 Same-Spin Energy          =      -0.3772409137935308 [Eh]
	 Opposite-Spin Energy      =      -1.2476363595672315 [Eh]
	 Correlation Energy        =      -1.6248772733607622 [Eh]
	 Total Energy              =    -364.6949370472221403 [Eh]

	 ================> DF-SCS-MP2 Energies <==================
	-----------------------------------------------------------
	 SCS Same-Spin Scale       =       0.3333333333333333 [-]
	 SCS Opposite-Spin Scale   =       1.2000000000000000 [-]
	 SCS Same-Spin Energy      =      -0.1257469712645102 [Eh]
	 SCS Opposite-Spin Energy  =      -1.4971636314806778 [Eh]
	 SCS Correlation Energy    =      -1.6229106027451881 [Eh]
	 SCS Total Energy          =    -364.6929703766065813 [Eh]
	-----------------------------------------------------------

  Dipole Moment: [D]
     X:    -0.5320      Y:    -3.9335      Z:     0.0209     Total:     3.9694

*** Psi4 exiting successfully. Buy a developer a beer!
