                               Psi4 1.3.2 release

  ==> Input File <==

--------------------------------------------------------------------------
#psi4
#
memory 32 gb

molecule  {
0 1
  O       -0.0481643     2.0857044    -0.1006370
  N        0.2351990    -0.2177110    -0.3583720
  C       -0.4908340    -1.4342940    -0.0290780
  C       -1.9502640    -0.9583450    -0.0482810
  C       -1.8489090     0.4999680     0.4010950
  C       -0.4582930     0.9265630    -0.0509830
  C        1.6617300    -0.1844710    -0.6214880
  C        2.4978900    -0.3314020     0.6460640
  H       -0.2060500    -1.8213230     0.9608810
  H       -0.2853850    -2.2161620    -0.7686800
  H       -2.5951790    -1.5710950     0.5868370
  H       -2.3326610    -1.0086390    -1.0720610
  H       -1.8916900     0.5931740     1.4933710
  H       -2.6106570     1.1621840    -0.0164710
  H        1.8952280    -0.9774960    -1.3410860
  H        1.8622980     0.7788290    -1.0968800
  H        2.2724650     0.4877290     1.3331980
  H        2.2931660    -1.2799200     1.1504100
  H        3.5653110    -0.2984830     0.4074420
units angstrom
no_reorient  #important for SAPT in psi4, default
symmetry c1  #important for SAPT in psi4, default
}

set PROPERTIES_ORIGIN ["COM"]
properties('MP2/aug-cc-pvtz', properties = ['dipole'])
--------------------------------------------------------------------------

    Molecular point group: c1
  Charge       = 0
  Multiplicity = 1
  Basis Set: AUG-CC-PVTZ
    Blend: AUG-CC-PVTZ
  Basis Set: (AUG-CC-PVTZ AUX)
    Blend: AUG-CC-PVTZ-JKFIT

    Orbital Energies [Eh]
    ---------------------

    Doubly Occupied:

       1A    -20.512094     2A    -15.582794     3A    -11.341391
       4A    -11.275492     5A    -11.262232     6A    -11.241653
       7A    -11.237850     8A    -11.219515     9A     -1.366304
      10A     -1.260354    11A     -1.087658    12A     -1.001082
      13A     -0.971854    14A     -0.870921    15A     -0.829349
      16A     -0.726994    17A     -0.693408    18A     -0.667709
      19A     -0.639436    20A     -0.605037    21A     -0.589390
      22A     -0.572758    23A     -0.563417    24A     -0.554546
      25A     -0.523368    26A     -0.513900    27A     -0.509505
      28A     -0.490830    29A     -0.476866    30A     -0.408305
      31A     -0.370904

  @DF-RHF Final Energy:  -363.07576290734448

   => Energetics <=

    Nuclear Repulsion Energy =            394.0440533095630258
    One-Electron Energy =               -1274.3058004181573324
    Two-Electron Energy =                 517.1859842012498802
    Total Energy =                       -363.0757629073444832
  Basis Set: (AUG-CC-PVTZ AUX)
    Blend: AUG-CC-PVTZ-RI
    Molecular point group: c1

    Geometry (in Angstrom), charge = 0, multiplicity = 1:

       Center              X                  Y                   Z               Mass
    ------------   -----------------  -----------------  -----------------  -----------------
         O           -0.025536901054     2.029737776777    -0.088165998008    15.994914619570
         N            0.257826398946    -0.273677623223    -0.345900998008    14.003074004430
         C           -0.468206601054    -1.490260623223    -0.016606998008    12.000000000000
         C           -1.927636601054    -1.014311623223    -0.035809998008    12.000000000000
         C           -1.826281601054     0.444001376777     0.413566001992    12.000000000000
         C           -0.435665601054     0.870596376777    -0.038511998008    12.000000000000
         C            1.684357398946    -0.240437623223    -0.609016998008    12.000000000000
         C            2.520517398946    -0.387368623223     0.658535001992    12.000000000000
         H           -0.183422601054    -1.877289623223     0.973352001992     1.007825032230
         H           -0.262757601054    -2.272128623223    -0.756208998008     1.007825032230
         H           -2.572551601054    -1.627061623223     0.599308001992     1.007825032230
         H           -2.310033601054    -1.064605623223    -1.059589998008     1.007825032230
         H           -1.869062601054     0.537207376777     1.505842001992     1.007825032230
         H           -2.588029601054     1.106217376777    -0.003999998008     1.007825032230
         H            1.917855398946    -1.033462623223    -1.328614998008     1.007825032230
         H            1.884925398946     0.722862376777    -1.084408998008     1.007825032230
         H            2.295092398946     0.431762376777     1.345669001992     1.007825032230
         H            2.315793398946    -1.335886623223     1.162881001992     1.007825032230
         H            3.587938398946    -0.354449623223     0.419913001992     1.007825032230

  Basis Set: AUG-CC-PVTZ
    Blend: AUG-CC-PVTZ
  Basis Set: (AUG-CC-PVTZ AUX)
    Blend: AUG-CC-PVTZ-JKFIT
	 Reference Energy          =    -363.0757629073444832 [Eh]
	 Singles Energy            =      -0.0000000000000000 [Eh]
	 Same-Spin Energy          =      -0.3767154070246956 [Eh]
	 Opposite-Spin Energy      =      -1.2468985145070186 [Eh]
	 Correlation Energy        =      -1.6236139215317142 [Eh]
	 Total Energy              =    -364.6993768288762112 [Eh]

	 ================> DF-SCS-MP2 Energies <==================
	-----------------------------------------------------------
	 SCS Same-Spin Scale       =       0.3333333333333333 [-]
	 SCS Opposite-Spin Scale   =       1.2000000000000000 [-]
	 SCS Same-Spin Energy      =      -0.1255718023415652 [Eh]
	 SCS Opposite-Spin Energy  =      -1.4962782174084224 [Eh]
	 SCS Correlation Energy    =      -1.6218500197499877 [Eh]
	 SCS Total Energy          =    -364.6976129270944966 [Eh]
	-----------------------------------------------------------

  Dipole Moment: [D]
     X:    -0.3535      Y:    -3.9827      Z:     0.2234     Total:     4.0046

*** Psi4 exiting successfully. Buy a developer a beer!
