                               Psi4 1.3.2 release

  ==> Input File <==

--------------------------------------------------------------------------
#psi4
#
memory 32 gb

molecule  {
0 1
  O       -0.0101440     2.0708820    -0.1140410
  N        0.2131469    -0.2052280    -0.3598958
  C       -0.4908340    -1.4342940    -0.0290780
  C       -1.9502640    -0.9583450    -0.0482810
  C       -1.8489090     0.4999680     0.4010950
  C       -0.4582930     0.9265630    -0.0509830
  C        1.6617300    -0.1844710    -0.6214880
  C        2.4978900    -0.3314020     0.6460640
  H       -0.2060500    -1.8213230     0.9608810
  H       -0.2853850    -2.2161620    -0.7686800
  H       -2.5951790    -1.5710950     0.5868370
  H       -2.3326610    -1.0086390    -1.0720610
  H       -1.8916900     0.5931740     1.4933710
  H       -2.6106570     1.1621840    -0.0164710
  H        1.8952280    -0.9774960    -1.3410860
  H        1.8622980     0.7788290    -1.0968800
  H        2.2724650     0.4877290     1.3331980
  H        2.2931660    -1.2799200     1.1504100
  H        3.5653110    -0.2984830     0.4074420
units angstrom
no_reorient  #important for SAPT in psi4, default
symmetry c1  #important for SAPT in psi4, default
}

set PROPERTIES_ORIGIN ["COM"]
properties('MP2/aug-cc-pvtz', properties = ['dipole'])
--------------------------------------------------------------------------

    Molecular point group: c1
  Charge       = 0
  Multiplicity = 1
  Basis Set: AUG-CC-PVTZ
    Blend: AUG-CC-PVTZ
  Basis Set: (AUG-CC-PVTZ AUX)
    Blend: AUG-CC-PVTZ-JKFIT

    Orbital Energies [Eh]
    ---------------------

    Doubly Occupied:

       1A    -20.508271     2A    -15.582562     3A    -11.338056
       4A    -11.275514     5A    -11.263393     6A    -11.241681
       7A    -11.238238     8A    -11.220347     9A     -1.366639
      10A     -1.259672    11A     -1.085524    12A     -1.002637
      13A     -0.974073    14A     -0.869176    15A     -0.830894
      16A     -0.725632    17A     -0.694162    18A     -0.668088
      19A     -0.638465    20A     -0.604979    21A     -0.589879
      22A     -0.572867    23A     -0.561444    24A     -0.554062
      25A     -0.523007    26A     -0.512056    27A     -0.509663
      28A     -0.489876    29A     -0.477219    30A     -0.407885
      31A     -0.372154

  @DF-RHF Final Energy:  -363.07581159083452

   => Energetics <=

    Nuclear Repulsion Energy =            394.4537913879643156
    One-Electron Energy =               -1275.1429711148496153
    Two-Electron Energy =                 517.6133681360507808
    Total Energy =                       -363.0758115908345189
  Basis Set: (AUG-CC-PVTZ AUX)
    Blend: AUG-CC-PVTZ-RI
    Molecular point group: c1

    Geometry (in Angstrom), charge = 0, multiplicity = 1:

       Center              X                  Y                   Z               Mass
    ------------   -----------------  -----------------  -----------------  -----------------
         O            0.009836392343     2.015466140939    -0.099485409681    15.994914619570
         N            0.233127292343    -0.260643859061    -0.345340209681    14.003074004430
         C           -0.470853607657    -1.489709859061    -0.014522409681    12.000000000000
         C           -1.930283607657    -1.013760859061    -0.033725409681    12.000000000000
         C           -1.828928607657     0.444552140939     0.415650590319    12.000000000000
         C           -0.438312607657     0.871147140939    -0.036427409681    12.000000000000
         C            1.681710392343    -0.239886859061    -0.606932409681    12.000000000000
         C            2.517870392343    -0.386817859061     0.660619590319    12.000000000000
         H           -0.186069607657    -1.876738859061     0.975436590319     1.007825032230
         H           -0.265404607657    -2.271577859061    -0.754124409681     1.007825032230
         H           -2.575198607657    -1.626510859061     0.601392590319     1.007825032230
         H           -2.312680607657    -1.064054859061    -1.057505409681     1.007825032230
         H           -1.871709607657     0.537758140939     1.507926590319     1.007825032230
         H           -2.590676607657     1.106768140939    -0.001915409681     1.007825032230
         H            1.915208392343    -1.032911859061    -1.326530409681     1.007825032230
         H            1.882278392343     0.723413140939    -1.082324409681     1.007825032230
         H            2.292445392343     0.432313140939     1.347753590319     1.007825032230
         H            2.313146392343    -1.335335859061     1.164965590319     1.007825032230
         H            3.585291392343    -0.353898859061     0.421997590319     1.007825032230

  Basis Set: AUG-CC-PVTZ
    Blend: AUG-CC-PVTZ
  Basis Set: (AUG-CC-PVTZ AUX)
    Blend: AUG-CC-PVTZ-JKFIT
	 Reference Energy          =    -363.0758115908345189 [Eh]
	 Singles Energy            =      -0.0000000000000000 [Eh]
	 Same-Spin Energy          =      -0.3766082283764003 [Eh]
	 Opposite-Spin Energy      =      -1.2466467701390169 [Eh]
	 Correlation Energy        =      -1.6232549985154172 [Eh]
	 Total Energy              =    -364.6990665893499113 [Eh]

	 ================> DF-SCS-MP2 Energies <==================
	-----------------------------------------------------------
	 SCS Same-Spin Scale       =       0.3333333333333333 [-]
	 SCS Opposite-Spin Scale   =       1.2000000000000000 [-]
	 SCS Same-Spin Energy      =      -0.1255360761254668 [Eh]
	 SCS Opposite-Spin Energy  =      -1.4959761241668204 [Eh]
	 SCS Correlation Energy    =      -1.6215122002922870 [Eh]
	 SCS Total Energy          =    -364.6973237911267915 [Eh]
	-----------------------------------------------------------

  Dipole Moment: [D]
     X:    -0.3638      Y:    -4.0465      Z:     0.2452     Total:     4.0702

*** Psi4 exiting successfully. Buy a developer a beer!
