                               Psi4 1.4a3.dev225

  ==> Input File <==

--------------------------------------------------------------------------
#psi4
#
memory 32 gb

molecule  {
0 1
  O       -0.0101440     2.0708820    -0.1140410
  N        0.2351990    -0.2177110    -0.3583720
  C       -0.4908340    -1.4342940    -0.0290780
  C       -1.9502640    -0.9583450    -0.0482810
  C       -1.8489090     0.4999680     0.4010950
  C       -0.5039405     0.9125598    -0.0361434
  C        1.6617300    -0.1844710    -0.6214880
  C        2.4978900    -0.3314020     0.6460640
  H       -0.2060500    -1.8213230     0.9608810
  H       -0.2853850    -2.2161620    -0.7686800
  H       -2.5951790    -1.5710950     0.5868370
  H       -2.3326610    -1.0086390    -1.0720610
  H       -1.8916900     0.5931740     1.4933710
  H       -2.6106570     1.1621840    -0.0164710
  H        1.8952280    -0.9774960    -1.3410860
  H        1.8622980     0.7788290    -1.0968800
  H        2.2724650     0.4877290     1.3331980
  H        2.2931660    -1.2799200     1.1504100
  H        3.5653110    -0.2984830     0.4074420
units angstrom
no_reorient  #important for SAPT in psi4, default
symmetry c1  #important for SAPT in psi4, default
}

set PROPERTIES_ORIGIN ["COM"]
properties('MP2/aug-cc-pvtz', properties = ['dipole'])
--------------------------------------------------------------------------

    Molecular point group: c1
  Charge       = 0
  Multiplicity = 1
  Basis Set: AUG-CC-PVTZ
    Blend: AUG-CC-PVTZ
  Basis Set: (AUG-CC-PVTZ AUX)
    Blend: AUG-CC-PVTZ-JKFIT

    Orbital Energies [Eh]
    ---------------------

    Doubly Occupied:

       1A    -20.508744     2A    -15.581452     3A    -11.344815
       4A    -11.274230     5A    -11.260864     6A    -11.245044
       7A    -11.242633     8A    -11.217943     9A     -1.350707
      10A     -1.251475    11A     -1.093656    12A     -1.001320
      13A     -0.976516    14A     -0.870739    15A     -0.831392
      16A     -0.728353    17A     -0.693695    18A     -0.667674
      19A     -0.636629    20A     -0.605430    21A     -0.591675
      22A     -0.568428    23A     -0.563188    24A     -0.550891
      25A     -0.522646    26A     -0.512742    27A     -0.511949
      28A     -0.488869    29A     -0.471782    30A     -0.411773
      31A     -0.366091

  @DF-RHF Final Energy:  -363.06932285830567

   => Energetics <=

    Nuclear Repulsion Energy =            394.0726959565487277
    One-Electron Energy =               -1274.3973490131047583
    Two-Electron Energy =                 517.2553301982503626
    Total Energy =                       -363.0693228583056680
  Basis Set: (AUG-CC-PVTZ AUX)
    Blend: AUG-CC-PVTZ-RI
    Molecular point group: c1

    Geometry (in Angstrom), charge = 0, multiplicity = 1:

       Center              X                  Y                   Z               Mass
    ------------   -----------------  -----------------  -----------------  -----------------
         O            0.011949623893     2.018497856998    -0.101248815392    15.994914619570
         N            0.257292623893    -0.270095143002    -0.345579815392    14.003074004430
         C           -0.468740376107    -1.486678143002    -0.016285815392    12.000000000000
         C           -1.928170376107    -1.010729143002    -0.035488815392    12.000000000000
         C           -1.826815376107     0.447583856998     0.413887184608    12.000000000000
         C           -0.481846876107     0.860175656998    -0.023351215392    12.000000000000
         C            1.683823623893    -0.236855143002    -0.608695815392    12.000000000000
         C            2.519983623893    -0.383786143002     0.658856184608    12.000000000000
         H           -0.183956376107    -1.873707143002     0.973673184608     1.007825032230
         H           -0.263291376107    -2.268546143002    -0.755887815392     1.007825032230
         H           -2.573085376107    -1.623479143002     0.599629184608     1.007825032230
         H           -2.310567376107    -1.061023143002    -1.059268815392     1.007825032230
         H           -1.869596376107     0.540789856998     1.506163184608     1.007825032230
         H           -2.588563376107     1.109799856998    -0.003678815392     1.007825032230
         H            1.917321623893    -1.029880143002    -1.328293815392     1.007825032230
         H            1.884391623893     0.726444856998    -1.084087815392     1.007825032230
         H            2.294558623893     0.435344856998     1.345990184608     1.007825032230
         H            2.315259623893    -1.332304143002     1.163202184608     1.007825032230
         H            3.587404623893    -0.350867143002     0.420234184608     1.007825032230

  Basis Set: AUG-CC-PVTZ
    Blend: AUG-CC-PVTZ
  Basis Set: (AUG-CC-PVTZ AUX)
    Blend: AUG-CC-PVTZ-JKFIT
	 Reference Energy          =    -363.0693228583056680 [Eh]
	 Singles Energy            =      -0.0000000000000000 [Eh]
	 Same-Spin Energy          =      -0.3778196420112995 [Eh]
	 Opposite-Spin Energy      =      -1.2488106856889032 [Eh]
	 Correlation Energy        =      -1.6266303277002028 [Eh]
	 Total Energy              =    -364.6959531860058519 [Eh]

	 ================> DF-SCS-MP2 Energies <==================
	-----------------------------------------------------------
	 SCS Same-Spin Scale       =       0.3333333333333333 [-]
	 SCS Opposite-Spin Scale   =       1.2000000000000000 [-]
	 SCS Same-Spin Energy      =      -0.1259398806704332 [Eh]
	 SCS Opposite-Spin Energy  =      -1.4985728228266837 [Eh]
	 SCS Correlation Energy    =      -1.6245127034971170 [Eh]
	 SCS Total Energy          =    -364.6938355618027572 [Eh]
	-----------------------------------------------------------

  Dipole Moment: [D]
     X:    -0.6446      Y:    -4.0421      Z:     0.3066     Total:     4.1046

*** Psi4 exiting successfully. Buy a developer a beer!
