                               Psi4 1.3.2 release

  ==> Input File <==

--------------------------------------------------------------------------
#psi4
#
memory 32 gb

molecule  {
0 1
  O       -0.0101440     2.0708820    -0.1140410
  N        0.2351990    -0.2177110    -0.3583720
  C       -0.4908340    -1.4342940    -0.0290780
  C       -1.9502640    -0.9583450    -0.0482810
  C       -1.8489090     0.4999680     0.4010950
  C       -0.4783970     0.9136490    -0.0491998
  C        1.6617300    -0.1844710    -0.6214880
  C        2.4978900    -0.3314020     0.6460640
  H       -0.2060500    -1.8213230     0.9608810
  H       -0.2853850    -2.2161620    -0.7686800
  H       -2.5951790    -1.5710950     0.5868370
  H       -2.3326610    -1.0086390    -1.0720610
  H       -1.8916900     0.5931740     1.4933710
  H       -2.6106570     1.1621840    -0.0164710
  H        1.8952280    -0.9774960    -1.3410860
  H        1.8622980     0.7788290    -1.0968800
  H        2.2724650     0.4877290     1.3331980
  H        2.2931660    -1.2799200     1.1504100
  H        3.5653110    -0.2984830     0.4074420
units angstrom
no_reorient  #important for SAPT in psi4, default
symmetry c1  #important for SAPT in psi4, default
}

set PROPERTIES_ORIGIN ["COM"]
properties('MP2/aug-cc-pvtz', properties = ['dipole'])
--------------------------------------------------------------------------

    Molecular point group: c1
  Charge       = 0
  Multiplicity = 1
  Basis Set: AUG-CC-PVTZ
    Blend: AUG-CC-PVTZ
  Basis Set: (AUG-CC-PVTZ AUX)
    Blend: AUG-CC-PVTZ-JKFIT

    Orbital Energies [Eh]
    ---------------------

    Doubly Occupied:

       1A    -20.508605     2A    -15.582526     3A    -11.342472
       4A    -11.275221     5A    -11.261549     6A    -11.243762
       7A    -11.241248     8A    -11.218765     9A     -1.356522
      10A     -1.256097    11A     -1.090864    12A     -1.001559
      13A     -0.974726    14A     -0.871239    15A     -0.831272
      16A     -0.727577    17A     -0.694146    18A     -0.667723
      19A     -0.637792    20A     -0.605478    21A     -0.590189
      22A     -0.569735    23A     -0.563314    24A     -0.551853
      25A     -0.522976    26A     -0.513123    27A     -0.511068
      28A     -0.489994    29A     -0.474257    30A     -0.409983
      31A     -0.368463

  @DF-RHF Final Energy:  -363.07340346216137

   => Energetics <=

    Nuclear Repulsion Energy =            394.2387362447615828
    One-Electron Energy =               -1274.7160782827161256
    Two-Electron Energy =                 517.4039385757931768
    Total Energy =                       -363.0734034621613091
  Basis Set: (AUG-CC-PVTZ AUX)
    Blend: AUG-CC-PVTZ-RI
    Molecular point group: c1

    Geometry (in Angstrom), charge = 0, multiplicity = 1:

       Center              X                  Y                   Z               Mass
    ------------   -----------------  -----------------  -----------------  -----------------
         O            0.009239056292     2.018382275725    -0.099863325744    15.994914619570
         N            0.254582056292    -0.270210724275    -0.344194325744    14.003074004430
         C           -0.471450943708    -1.486793724275    -0.014900325744    12.000000000000
         C           -1.930880943708    -1.010844724275    -0.034103325744    12.000000000000
         C           -1.829525943708     0.447468275725     0.415272674256    12.000000000000
         C           -0.459013943708     0.861149275725    -0.035022125744    12.000000000000
         C            1.681113056292    -0.236970724275    -0.607310325744    12.000000000000
         C            2.517273056292    -0.383901724275     0.660241674256    12.000000000000
         H           -0.186666943708    -1.873822724275     0.975058674256     1.007825032230
         H           -0.266001943708    -2.268661724275    -0.754502325744     1.007825032230
         H           -2.575795943708    -1.623594724275     0.601014674256     1.007825032230
         H           -2.313277943708    -1.061138724275    -1.057883325744     1.007825032230
         H           -1.872306943708     0.540674275725     1.507548674256     1.007825032230
         H           -2.591273943708     1.109684275725    -0.002293325744     1.007825032230
         H            1.914611056292    -1.029995724275    -1.326908325744     1.007825032230
         H            1.881681056292     0.726329275725    -1.082702325744     1.007825032230
         H            2.291848056292     0.435229275725     1.347375674256     1.007825032230
         H            2.312549056292    -1.332419724275     1.164587674256     1.007825032230
         H            3.584694056292    -0.350982724275     0.421619674256     1.007825032230

  Basis Set: AUG-CC-PVTZ
    Blend: AUG-CC-PVTZ
  Basis Set: (AUG-CC-PVTZ AUX)
    Blend: AUG-CC-PVTZ-JKFIT
	 Reference Energy          =    -363.0734034621613660 [Eh]
	 Singles Energy            =      -0.0000000000000000 [Eh]
	 Same-Spin Energy          =      -0.3772928157216899 [Eh]
	 Opposite-Spin Energy      =      -1.2478668926668106 [Eh]
	 Correlation Energy        =      -1.6251597083885005 [Eh]
	 Total Energy              =    -364.6985631705498463 [Eh]

	 ================> DF-SCS-MP2 Energies <==================
	-----------------------------------------------------------
	 SCS Same-Spin Scale       =       0.3333333333333333 [-]
	 SCS Opposite-Spin Scale   =       1.2000000000000000 [-]
	 SCS Same-Spin Energy      =      -0.1257642719072300 [Eh]
	 SCS Opposite-Spin Energy  =      -1.4974402712001726 [Eh]
	 SCS Correlation Energy    =      -1.6232045431074027 [Eh]
	 SCS Total Energy          =    -364.6966080052687857 [Eh]
	-----------------------------------------------------------

  Dipole Moment: [D]
     X:    -0.5294      Y:    -4.0542      Z:     0.2709     Total:     4.0976

*** Psi4 exiting successfully. Buy a developer a beer!
