                               Psi4 1.3.2 release

  ==> Input File <==

--------------------------------------------------------------------------
#psi4
#
memory 32 gb

molecule  {
0 1
  O       -0.0101440     2.0708820    -0.1140410
  N        0.2351990    -0.2177110    -0.3583720
  C       -0.4908340    -1.4342940    -0.0290780
  C       -1.9502640    -0.9583450    -0.0482810
  C       -1.8489090     0.4999680     0.4010950
  C       -0.3758267     0.9746957    -0.0590462
  C        1.6617300    -0.1844710    -0.6214880
  C        2.4978900    -0.3314020     0.6460640
  H       -0.2060500    -1.8213230     0.9608810
  H       -0.2853850    -2.2161620    -0.7686800
  H       -2.5951790    -1.5710950     0.5868370
  H       -2.3326610    -1.0086390    -1.0720610
  H       -1.8916900     0.5931740     1.4933710
  H       -2.6106570     1.1621840    -0.0164710
  H        1.8952280    -0.9774960    -1.3410860
  H        1.8622980     0.7788290    -1.0968800
  H        2.2724650     0.4877290     1.3331980
  H        2.2931660    -1.2799200     1.1504100
  H        3.5653110    -0.2984830     0.4074420
units angstrom
no_reorient  #important for SAPT in psi4, default
symmetry c1  #important for SAPT in psi4, default
}

set PROPERTIES_ORIGIN ["COM"]
properties('MP2/aug-cc-pvtz', properties = ['dipole'])
--------------------------------------------------------------------------

    Molecular point group: c1
  Charge       = 0
  Multiplicity = 1
  Basis Set: AUG-CC-PVTZ
    Blend: AUG-CC-PVTZ
  Basis Set: (AUG-CC-PVTZ AUX)
    Blend: AUG-CC-PVTZ-JKFIT

    Orbital Energies [Eh]
    ---------------------

    Doubly Occupied:

       1A    -20.523873     2A    -15.576258     3A    -11.337869
       4A    -11.273803     5A    -11.259040     6A    -11.236851
       7A    -11.232037     8A    -11.218674     9A     -1.416491
      10A     -1.263034    11A     -1.077961    12A     -0.997578
      13A     -0.960791    14A     -0.866536    15A     -0.822414
      16A     -0.723423    17A     -0.690699    18A     -0.671125
      19A     -0.647704    20A     -0.604207    21A     -0.589844
      22A     -0.581071    23A     -0.571733    24A     -0.557572
      25A     -0.527606    26A     -0.513033    27A     -0.503484
      28A     -0.490220    29A     -0.483662    30A     -0.398074
      31A     -0.372332

  @DF-RHF Final Energy:  -363.06831846161288

   => Energetics <=

    Nuclear Repulsion Energy =            394.6000929770991661
    One-Electron Energy =               -1275.3588239418722878
    Two-Electron Energy =                 517.6904125031602462
    Total Energy =                       -363.0683184616128756
  Basis Set: (AUG-CC-PVTZ AUX)
    Blend: AUG-CC-PVTZ-RI
    Molecular point group: c1

    Geometry (in Angstrom), charge = 0, multiplicity = 1:

       Center              X                  Y                   Z               Mass
    ------------   -----------------  -----------------  -----------------  -----------------
         O           -0.001645267783     2.011904259511    -0.098818467646    15.994914619570
         N            0.243697732217    -0.276688740489    -0.343149467646    14.003074004430
         C           -0.482335267783    -1.493271740489    -0.013855467646    12.000000000000
         C           -1.941765267783    -1.017322740489    -0.033058467646    12.000000000000
         C           -1.840410267783     0.440990259511     0.416317532354    12.000000000000
         C           -0.367327967783     0.915717959511    -0.043823667646    12.000000000000
         C            1.670228732217    -0.243448740489    -0.606265467646    12.000000000000
         C            2.506388732217    -0.390379740489     0.661286532354    12.000000000000
         H           -0.197551267783    -1.880300740489     0.976103532354     1.007825032230
         H           -0.276886267783    -2.275139740489    -0.753457467646     1.007825032230
         H           -2.586680267783    -1.630072740489     0.602059532354     1.007825032230
         H           -2.324162267783    -1.067616740489    -1.056838467646     1.007825032230
         H           -1.883191267783     0.534196259511     1.508593532354     1.007825032230
         H           -2.602158267783     1.103206259511    -0.001248467646     1.007825032230
         H            1.903726732217    -1.036473740489    -1.325863467646     1.007825032230
         H            1.870796732217     0.719851259511    -1.081657467646     1.007825032230
         H            2.280963732217     0.428751259511     1.348420532354     1.007825032230
         H            2.301664732217    -1.338897740489     1.165632532354     1.007825032230
         H            3.573809732217    -0.357460740489     0.422664532354     1.007825032230

  Basis Set: AUG-CC-PVTZ
    Blend: AUG-CC-PVTZ
  Basis Set: (AUG-CC-PVTZ AUX)
    Blend: AUG-CC-PVTZ-JKFIT
	 Reference Energy          =    -363.0683184616128756 [Eh]
	 Singles Energy            =      -0.0000000000000000 [Eh]
	 Same-Spin Energy          =      -0.3753419894985442 [Eh]
	 Opposite-Spin Energy      =      -1.2441929742090951 [Eh]
	 Correlation Energy        =      -1.6195349637076393 [Eh]
	 Total Energy              =    -364.6878534253204975 [Eh]

	 ================> DF-SCS-MP2 Energies <==================
	-----------------------------------------------------------
	 SCS Same-Spin Scale       =       0.3333333333333333 [-]
	 SCS Opposite-Spin Scale   =       1.2000000000000000 [-]
	 SCS Same-Spin Energy      =      -0.1251139964995147 [Eh]
	 SCS Opposite-Spin Energy  =      -1.4930315690509142 [Eh]
	 SCS Correlation Energy    =      -1.6181455655504289 [Eh]
	 SCS Total Energy          =    -364.6864640271633107 [Eh]
	-----------------------------------------------------------

  Dipole Moment: [D]
     X:    -0.1262      Y:    -3.5065      Z:     0.1704     Total:     3.5129

*** Psi4 exiting successfully. Buy a developer a beer!
