                               Psi4 1.3.2 release

  ==> Input File <==

--------------------------------------------------------------------------
#psi4
#
memory 32 gb

molecule  {
0 1
  O       -0.0101440     2.0708820    -0.1140410
  N        0.2351990    -0.2177110    -0.3583720
  C       -0.4908340    -1.4342940    -0.0290780
  C       -1.9474663    -0.9515603    -0.0740502
  C       -1.8489090     0.4999680     0.4010950
  C       -0.4582930     0.9265630    -0.0509830
  C        1.6617300    -0.1844710    -0.6214880
  C        2.4978900    -0.3314020     0.6460640
  H       -0.2060500    -1.8213230     0.9608810
  H       -0.2853850    -2.2161620    -0.7686800
  H       -2.5951790    -1.5710950     0.5868370
  H       -2.3326610    -1.0086390    -1.0720610
  H       -1.8916900     0.5931740     1.4933710
  H       -2.6106570     1.1621840    -0.0164710
  H        1.8952280    -0.9774960    -1.3410860
  H        1.8622980     0.7788290    -1.0968800
  H        2.2724650     0.4877290     1.3331980
  H        2.2931660    -1.2799200     1.1504100
  H        3.5653110    -0.2984830     0.4074420
units angstrom
no_reorient  #important for SAPT in psi4, default
symmetry c1  #important for SAPT in psi4, default
}

set PROPERTIES_ORIGIN ["COM"]
properties('MP2/aug-cc-pvtz', properties = ['dipole'])
--------------------------------------------------------------------------

    Molecular point group: c1
  Charge       = 0
  Multiplicity = 1
  Basis Set: AUG-CC-PVTZ
    Blend: AUG-CC-PVTZ
  Basis Set: (AUG-CC-PVTZ AUX)
    Blend: AUG-CC-PVTZ-JKFIT

    Orbital Energies [Eh]
    ---------------------

    Doubly Occupied:

       1A    -20.511424     2A    -15.580710     3A    -11.341014
       4A    -11.274854     5A    -11.260738     6A    -11.242280
       7A    -11.239919     8A    -11.218655     9A     -1.366739
      10A     -1.258577    11A     -1.087797    12A     -1.000272
      13A     -0.972023    14A     -0.870127    15A     -0.830014
      16A     -0.726043    17A     -0.693303    18A     -0.668308
      19A     -0.638770    20A     -0.604515    21A     -0.590073
      22A     -0.572610    23A     -0.564422    24A     -0.551244
      25A     -0.522551    26A     -0.513468    27A     -0.509265
      28A     -0.489555    29A     -0.479802    30A     -0.408670
      31A     -0.369510

  @DF-RHF Final Energy:  -363.07505392150870

   => Energetics <=

    Nuclear Repulsion Energy =            394.3608877779712998
    One-Electron Energy =               -1274.9573820610917210
    Two-Electron Energy =                 517.5214403616116670
    Total Energy =                       -363.0750539215086974
  Basis Set: (AUG-CC-PVTZ AUX)
    Blend: AUG-CC-PVTZ-RI
    Molecular point group: c1

    Geometry (in Angstrom), charge = 0, multiplicity = 1:

       Center              X                  Y                   Z               Mass
    ------------   -----------------  -----------------  -----------------  -----------------
         O            0.006808825273     2.016291933447    -0.096939582217    15.994914619570
         N            0.252151825273    -0.272301066553    -0.341270582217    14.003074004430
         C           -0.473881174727    -1.488884066553    -0.011976582217    12.000000000000
         C           -1.930513474727    -1.006150366553    -0.056948782217    12.000000000000
         C           -1.831956174727     0.445377933447     0.418196417783    12.000000000000
         C           -0.441340174727     0.871972933447    -0.033881582217    12.000000000000
         C            1.678682825273    -0.239061066553    -0.604386582217    12.000000000000
         C            2.514842825273    -0.385992066553     0.663165417783    12.000000000000
         H           -0.189097174727    -1.875913066553     0.977982417783     1.007825032230
         H           -0.268432174727    -2.270752066553    -0.751578582217     1.007825032230
         H           -2.578226174727    -1.625685066553     0.603938417783     1.007825032230
         H           -2.315708174727    -1.063229066553    -1.054959582217     1.007825032230
         H           -1.874737174727     0.538583933447     1.510472417783     1.007825032230
         H           -2.593704174727     1.107593933447     0.000630417783     1.007825032230
         H            1.912180825273    -1.032086066553    -1.323984582217     1.007825032230
         H            1.879250825273     0.724238933447    -1.079778582217     1.007825032230
         H            2.289417825273     0.433138933447     1.350299417783     1.007825032230
         H            2.310118825273    -1.334510066553     1.167511417783     1.007825032230
         H            3.582263825273    -0.353073066553     0.424543417783     1.007825032230

  Basis Set: AUG-CC-PVTZ
    Blend: AUG-CC-PVTZ
  Basis Set: (AUG-CC-PVTZ AUX)
    Blend: AUG-CC-PVTZ-JKFIT
	 Reference Energy          =    -363.0750539215086974 [Eh]
	 Singles Energy            =      -0.0000000000000000 [Eh]
	 Same-Spin Energy          =      -0.3768117608172568 [Eh]
	 Opposite-Spin Energy      =      -1.2469684829178500 [Eh]
	 Correlation Energy        =      -1.6237802437351068 [Eh]
	 Total Energy              =    -364.6988341652437953 [Eh]

	 ================> DF-SCS-MP2 Energies <==================
	-----------------------------------------------------------
	 SCS Same-Spin Scale       =       0.3333333333333333 [-]
	 SCS Opposite-Spin Scale   =       1.2000000000000000 [-]
	 SCS Same-Spin Energy      =      -0.1256039202724189 [Eh]
	 SCS Opposite-Spin Energy  =      -1.4963621795014199 [Eh]
	 SCS Correlation Energy    =      -1.6219660997738388 [Eh]
	 SCS Total Energy          =    -364.6970200212825262 [Eh]
	-----------------------------------------------------------

  Dipole Moment: [D]
     X:    -0.4598      Y:    -3.9404      Z:     0.2373     Total:     3.9743

*** Psi4 exiting successfully. Buy a developer a beer!
