                               Psi4 1.4a3.dev225

  ==> Input File <==

--------------------------------------------------------------------------
#psi4
#
memory 32 gb

molecule  {
0 1
  O       -0.0101440     2.0708820    -0.1140410
  N        0.2351990    -0.2177110    -0.3583720
  C       -0.4908340    -1.4342940    -0.0290780
  C       -1.9502640    -0.9583450    -0.0482810
  C       -1.8502345     0.4808969     0.3952183
  C       -0.4582930     0.9265630    -0.0509830
  C        1.6617300    -0.1844710    -0.6214880
  C        2.4978900    -0.3314020     0.6460640
  H       -0.2060500    -1.8213230     0.9608810
  H       -0.2853850    -2.2161620    -0.7686800
  H       -2.5951790    -1.5710950     0.5868370
  H       -2.3326610    -1.0086390    -1.0720610
  H       -1.8916900     0.5931740     1.4933710
  H       -2.6106570     1.1621840    -0.0164710
  H        1.8952280    -0.9774960    -1.3410860
  H        1.8622980     0.7788290    -1.0968800
  H        2.2724650     0.4877290     1.3331980
  H        2.2931660    -1.2799200     1.1504100
  H        3.5653110    -0.2984830     0.4074420
units angstrom
no_reorient  #important for SAPT in psi4, default
symmetry c1  #important for SAPT in psi4, default
}

set PROPERTIES_ORIGIN ["COM"]
properties('MP2/aug-cc-pvtz', properties = ['dipole'])
--------------------------------------------------------------------------

    Molecular point group: c1
  Charge       = 0
  Multiplicity = 1
  Basis Set: AUG-CC-PVTZ
    Blend: AUG-CC-PVTZ
  Basis Set: (AUG-CC-PVTZ AUX)
    Blend: AUG-CC-PVTZ-JKFIT

    Orbital Energies [Eh]
    ---------------------

    Doubly Occupied:

       1A    -20.512121     2A    -15.580783     3A    -11.341664
       4A    -11.275027     5A    -11.260831     6A    -11.241747
       7A    -11.240557     8A    -11.218628     9A     -1.366956
      10A     -1.258961    11A     -1.089959    12A     -1.001272
      13A     -0.971344    14A     -0.870770    15A     -0.828405
      16A     -0.726438    17A     -0.693568    18A     -0.668374
      19A     -0.638556    20A     -0.604426    21A     -0.588153
      22A     -0.572196    23A     -0.563108    24A     -0.556374
      25A     -0.523072    26A     -0.513490    27A     -0.511101
      28A     -0.489793    29A     -0.476114    30A     -0.409370
      31A     -0.369593

  @DF-RHF Final Energy:  -363.07521082243591

   => Energetics <=

    Nuclear Repulsion Energy =            394.4411461074047907
    One-Electron Energy =               -1275.1072069280692176
    Two-Electron Energy =                 517.5908499982284638
    Total Energy =                       -363.0752108224359063
  Basis Set: (AUG-CC-PVTZ AUX)
    Blend: AUG-CC-PVTZ-RI
    Molecular point group: c1

    Geometry (in Angstrom), charge = 0, multiplicity = 1:

       Center              X                  Y                   Z               Mass
    ------------   -----------------  -----------------  -----------------  -----------------
         O            0.007246361724     2.019035640995    -0.099050489728    15.994914619570
         N            0.252589361724    -0.269557359005    -0.343381489728    14.003074004430
         C           -0.473443638276    -1.486140359005    -0.014087489728    12.000000000000
         C           -1.932873638276    -1.010191359005    -0.033290489728    12.000000000000
         C           -1.832844138276     0.429050540995     0.410208810272    12.000000000000
         C           -0.440902638276     0.874716640995    -0.035992489728    12.000000000000
         C            1.679120361724    -0.236317359005    -0.606497489728    12.000000000000
         C            2.515280361724    -0.383248359005     0.661054510272    12.000000000000
         H           -0.188659638276    -1.873169359005     0.975871510272     1.007825032230
         H           -0.267994638276    -2.268008359005    -0.753689489728     1.007825032230
         H           -2.577788638276    -1.622941359005     0.601827510272     1.007825032230
         H           -2.315270638276    -1.060485359005    -1.057070489728     1.007825032230
         H           -1.874299638276     0.541327640995     1.508361510272     1.007825032230
         H           -2.593266638276     1.110337640995    -0.001480489728     1.007825032230
         H            1.912618361724    -1.029342359005    -1.326095489728     1.007825032230
         H            1.879688361724     0.726982640995    -1.081889489728     1.007825032230
         H            2.289855361724     0.435882640995     1.348188510272     1.007825032230
         H            2.310556361724    -1.331766359005     1.165400510272     1.007825032230
         H            3.582701361724    -0.350329359005     0.422432510272     1.007825032230

  Basis Set: AUG-CC-PVTZ
    Blend: AUG-CC-PVTZ
  Basis Set: (AUG-CC-PVTZ AUX)
    Blend: AUG-CC-PVTZ-JKFIT
	 Reference Energy          =    -363.0752108224359063 [Eh]
	 Singles Energy            =      -0.0000000000000000 [Eh]
	 Same-Spin Energy          =      -0.3769693363015244 [Eh]
	 Opposite-Spin Energy      =      -1.2470812752279152 [Eh]
	 Correlation Energy        =      -1.6240506115294395 [Eh]
	 Total Energy              =    -364.6992614339653187 [Eh]

	 ================> DF-SCS-MP2 Energies <==================
	-----------------------------------------------------------
	 SCS Same-Spin Scale       =       0.3333333333333333 [-]
	 SCS Opposite-Spin Scale   =       1.2000000000000000 [-]
	 SCS Same-Spin Energy      =      -0.1256564454338415 [Eh]
	 SCS Opposite-Spin Energy  =      -1.4964975302734982 [Eh]
	 SCS Correlation Energy    =      -1.6221539757073395 [Eh]
	 SCS Total Energy          =    -364.6973647981432691 [Eh]
	-----------------------------------------------------------

  Dipole Moment: [D]
     X:    -0.4576      Y:    -3.9502      Z:     0.2477     Total:     3.9844

*** Psi4 exiting successfully. Buy a developer a beer!
