                               Psi4 1.3.2 release

  ==> Input File <==

--------------------------------------------------------------------------
#psi4
#
memory 32 gb

molecule  {
0 1
  O        0.0084948     2.0629855    -0.1212176
  N        0.2351990    -0.2177110    -0.3583720
  C       -0.4908340    -1.4342940    -0.0290780
  C       -1.9502640    -0.9583450    -0.0482810
  C       -1.8489090     0.4999680     0.4010950
  C       -0.4582930     0.9265630    -0.0509830
  C        1.6617300    -0.1844710    -0.6214880
  C        2.4978900    -0.3314020     0.6460640
  H       -0.2060500    -1.8213230     0.9608810
  H       -0.2853850    -2.2161620    -0.7686800
  H       -2.5951790    -1.5710950     0.5868370
  H       -2.3326610    -1.0086390    -1.0720610
  H       -1.8916900     0.5931740     1.4933710
  H       -2.6106570     1.1621840    -0.0164710
  H        1.8952280    -0.9774960    -1.3410860
  H        1.8622980     0.7788290    -1.0968800
  H        2.2724650     0.4877290     1.3331980
  H        2.2931660    -1.2799200     1.1504100
  H        3.5653110    -0.2984830     0.4074420
units angstrom
no_reorient  #important for SAPT in psi4, default
symmetry c1  #important for SAPT in psi4, default
}

set PROPERTIES_ORIGIN ["COM"]
properties('MP2/aug-cc-pvtz', properties = ['dipole'])
--------------------------------------------------------------------------

    Molecular point group: c1
  Charge       = 0
  Multiplicity = 1
  Basis Set: AUG-CC-PVTZ
    Blend: AUG-CC-PVTZ
  Basis Set: (AUG-CC-PVTZ AUX)
    Blend: AUG-CC-PVTZ-JKFIT

    Orbital Energies [Eh]
    ---------------------

    Doubly Occupied:

       1A    -20.511334     2A    -15.580035     3A    -11.341336
       4A    -11.274574     5A    -11.260232     6A    -11.242829
       7A    -11.241000     8A    -11.218222     9A     -1.367181
      10A     -1.257528    11A     -1.087953    12A     -1.000205
      13A     -0.972148    14A     -0.869902    15A     -0.829492
      16A     -0.726057    17A     -0.693200    18A     -0.667704
      19A     -0.639428    20A     -0.604394    21A     -0.589307
      22A     -0.571915    23A     -0.563083    24A     -0.554672
      25A     -0.522705    26A     -0.512705    27A     -0.509601
      28A     -0.489769    29A     -0.477707    30A     -0.409836
      31A     -0.368792

  @DF-RHF Final Energy:  -363.07581473631183

   => Energetics <=

    Nuclear Repulsion Energy =            394.4174958374821358
    One-Electron Energy =               -1275.0769313814582802
    Two-Electron Energy =                 517.5836208076642606
    Total Energy =                       -363.0758147363118269
  Basis Set: (AUG-CC-PVTZ AUX)
    Blend: AUG-CC-PVTZ-RI
    Molecular point group: c1

    Geometry (in Angstrom), charge = 0, multiplicity = 1:

       Center              X                  Y                   Z               Mass
    ------------   -----------------  -----------------  -----------------  -----------------
         O            0.023108183222     2.010232299190    -0.105835622507    15.994914619570
         N            0.249812383222    -0.270464200810    -0.342990022507    14.003074004430
         C           -0.476220616778    -1.487047200810    -0.013696022507    12.000000000000
         C           -1.935650616778    -1.011098200810    -0.032899022507    12.000000000000
         C           -1.834295616778     0.447214799190     0.416476977493    12.000000000000
         C           -0.443679616778     0.873809799190    -0.035601022507    12.000000000000
         C            1.676343383222    -0.237224200810    -0.606106022507    12.000000000000
         C            2.512503383222    -0.384155200810     0.661445977493    12.000000000000
         H           -0.191436616778    -1.874076200810     0.976262977493     1.007825032230
         H           -0.270771616778    -2.268915200810    -0.753298022507     1.007825032230
         H           -2.580565616778    -1.623848200810     0.602218977493     1.007825032230
         H           -2.318047616778    -1.061392200810    -1.056679022507     1.007825032230
         H           -1.877076616778     0.540420799190     1.508752977493     1.007825032230
         H           -2.596043616778     1.109430799190    -0.001089022507     1.007825032230
         H            1.909841383222    -1.030249200810    -1.325704022507     1.007825032230
         H            1.876911383222     0.726075799190    -1.081498022507     1.007825032230
         H            2.287078383222     0.434975799190     1.348579977493     1.007825032230
         H            2.307779383222    -1.332673200810     1.165791977493     1.007825032230
         H            3.579924383222    -0.351236200810     0.422823977493     1.007825032230

  Basis Set: AUG-CC-PVTZ
    Blend: AUG-CC-PVTZ
  Basis Set: (AUG-CC-PVTZ AUX)
    Blend: AUG-CC-PVTZ-JKFIT
	 Reference Energy          =    -363.0758147363118269 [Eh]
	 Singles Energy            =      -0.0000000000000000 [Eh]
	 Same-Spin Energy          =      -0.3768299069763644 [Eh]
	 Opposite-Spin Energy      =      -1.2469517931773384 [Eh]
	 Correlation Energy        =      -1.6237817001537027 [Eh]
	 Total Energy              =    -364.6995964364655265 [Eh]

	 ================> DF-SCS-MP2 Energies <==================
	-----------------------------------------------------------
	 SCS Same-Spin Scale       =       0.3333333333333333 [-]
	 SCS Opposite-Spin Scale   =       1.2000000000000000 [-]
	 SCS Same-Spin Energy      =      -0.1256099689921215 [Eh]
	 SCS Opposite-Spin Energy  =      -1.4963421518128059 [Eh]
	 SCS Correlation Energy    =      -1.6219521208049275 [Eh]
	 SCS Total Energy          =    -364.6977668571167328 [Eh]
	-----------------------------------------------------------

  Dipole Moment: [D]
     X:    -0.5169      Y:    -3.9269      Z:     0.2693     Total:     3.9700

*** Psi4 exiting successfully. Buy a developer a beer!
