                               Psi4 1.3.2 release

  ==> Input File <==

--------------------------------------------------------------------------
#psi4
#
memory 32 gb

molecule  {
0 1
  O       -0.0101440     2.0708820    -0.1140410
  N        0.2351990    -0.2177110    -0.3583720
  C       -0.4908340    -1.4342940    -0.0290780
  C       -1.9502640    -0.9583450    -0.0482810
  C       -1.8324967     0.5048896     0.3806289
  C       -0.4582930     0.9265630    -0.0509830
  C        1.6617300    -0.1844710    -0.6214880
  C        2.4978900    -0.3314020     0.6460640
  H       -0.2060500    -1.8213230     0.9608810
  H       -0.2853850    -2.2161620    -0.7686800
  H       -2.5951790    -1.5710950     0.5868370
  H       -2.3326610    -1.0086390    -1.0720610
  H       -1.8916900     0.5931740     1.4933710
  H       -2.6106570     1.1621840    -0.0164710
  H        1.8952280    -0.9774960    -1.3410860
  H        1.8622980     0.7788290    -1.0968800
  H        2.2724650     0.4877290     1.3331980
  H        2.2931660    -1.2799200     1.1504100
  H        3.5653110    -0.2984830     0.4074420
units angstrom
no_reorient  #important for SAPT in psi4, default
symmetry c1  #important for SAPT in psi4, default
}

set PROPERTIES_ORIGIN ["COM"]
properties('MP2/aug-cc-pvtz', properties = ['dipole'])
--------------------------------------------------------------------------

    Molecular point group: c1
  Charge       = 0
  Multiplicity = 1
  Basis Set: AUG-CC-PVTZ
    Blend: AUG-CC-PVTZ
  Basis Set: (AUG-CC-PVTZ AUX)
    Blend: AUG-CC-PVTZ-JKFIT

    Orbital Energies [Eh]
    ---------------------

    Doubly Occupied:

       1A    -20.511201     2A    -15.580859     3A    -11.340567
       4A    -11.274873     5A    -11.260773     6A    -11.242660
       7A    -11.240683     8A    -11.218560     9A     -1.367333
      10A     -1.259032    11A     -1.088894    12A     -1.000172
      13A     -0.973972    14A     -0.870545    15A     -0.829276
      16A     -0.727402    17A     -0.693102    18A     -0.668256
      19A     -0.639981    20A     -0.604034    21A     -0.587584
      22A     -0.572607    23A     -0.564086    24A     -0.556400
      25A     -0.523205    26A     -0.513103    27A     -0.508619
      28A     -0.489837    29A     -0.473745    30A     -0.411410
      31A     -0.369633

  @DF-RHF Final Energy:  -363.07520649325892

   => Energetics <=

    Nuclear Repulsion Energy =            394.6647777343325174
    One-Electron Energy =               -1275.5551568208375102
    Two-Electron Energy =                 517.8151725932460749
    Total Energy =                       -363.0752064932588610
  Basis Set: (AUG-CC-PVTZ AUX)
    Blend: AUG-CC-PVTZ-RI
    Molecular point group: c1

    Geometry (in Angstrom), charge = 0, multiplicity = 1:

       Center              X                  Y                   Z               Mass
    ------------   -----------------  -----------------  -----------------  -----------------
         O            0.005364101815     2.016489637696    -0.097502324639    15.994914619570
         N            0.250707101815    -0.272103362304    -0.341833324639    14.003074004430
         C           -0.475325898185    -1.488686362304    -0.012539324639    12.000000000000
         C           -1.934755898185    -1.012737362304    -0.031742324639    12.000000000000
         C           -1.816988598185     0.450497237696     0.397167575361    12.000000000000
         C           -0.442784898185     0.872170637696    -0.034444324639    12.000000000000
         C            1.677238101815    -0.238863362304    -0.604949324639    12.000000000000
         C            2.513398101815    -0.385794362304     0.662602675361    12.000000000000
         H           -0.190541898185    -1.875715362304     0.977419675361     1.007825032230
         H           -0.269876898185    -2.270554362304    -0.752141324639     1.007825032230
         H           -2.579670898185    -1.625487362304     0.603375675361     1.007825032230
         H           -2.317152898185    -1.063031362304    -1.055522324639     1.007825032230
         H           -1.876181898185     0.538781637696     1.509909675361     1.007825032230
         H           -2.595148898185     1.107791637696     0.000067675361     1.007825032230
         H            1.910736101815    -1.031888362304    -1.324547324639     1.007825032230
         H            1.877806101815     0.724436637696    -1.080341324639     1.007825032230
         H            2.287973101815     0.433336637696     1.349736675361     1.007825032230
         H            2.308674101815    -1.334312362304     1.166948675361     1.007825032230
         H            3.580819101815    -0.352875362304     0.423980675361     1.007825032230

  Basis Set: AUG-CC-PVTZ
    Blend: AUG-CC-PVTZ
  Basis Set: (AUG-CC-PVTZ AUX)
    Blend: AUG-CC-PVTZ-JKFIT
	 Reference Energy          =    -363.0752064932589178 [Eh]
	 Singles Energy            =      -0.0000000000000000 [Eh]
	 Same-Spin Energy          =      -0.3769050233858234 [Eh]
	 Opposite-Spin Energy      =      -1.2470163431156123 [Eh]
	 Correlation Energy        =      -1.6239213665014356 [Eh]
	 Total Energy              =    -364.6991278597603809 [Eh]

	 ================> DF-SCS-MP2 Energies <==================
	-----------------------------------------------------------
	 SCS Same-Spin Scale       =       0.3333333333333333 [-]
	 SCS Opposite-Spin Scale   =       1.2000000000000000 [-]
	 SCS Same-Spin Energy      =      -0.1256350077952745 [Eh]
	 SCS Opposite-Spin Energy  =      -1.4964196117387347 [Eh]
	 SCS Correlation Energy    =      -1.6220546195340091 [Eh]
	 SCS Total Energy          =    -364.6972611127929440 [Eh]
	-----------------------------------------------------------

  Dipole Moment: [D]
     X:    -0.4956      Y:    -3.9611      Z:     0.2533     Total:     4.0000

*** Psi4 exiting successfully. Buy a developer a beer!
