                               Psi4 1.3.2 release

  ==> Input File <==

--------------------------------------------------------------------------
#psi4
#
memory 32 gb

molecule  {
0 1
  O       -0.0101440     2.0708820    -0.1140410
  N        0.2351990    -0.2177110    -0.3583720
  C       -0.4908340    -1.4342940    -0.0290780
  C       -1.9502640    -0.9583450    -0.0482810
  C       -1.8489090     0.4999680     0.4010950
  C       -0.4582930     0.9265630    -0.0509830
  C        1.6617300    -0.1844710    -0.6214880
  C        2.4978900    -0.3314020     0.6460640
  H       -0.2060500    -1.8213230     0.9608810
  H       -0.2853850    -2.2161620    -0.7686800
  H       -2.5951790    -1.5710950     0.5868370
  H       -2.3326610    -1.0086390    -1.0720610
  H       -1.8838909     0.5761823     1.2942468
  H       -2.6106570     1.1621840    -0.0164710
  H        1.8952280    -0.9774960    -1.3410860
  H        1.8622980     0.7788290    -1.0968800
  H        2.2724650     0.4877290     1.3331980
  H        2.2931660    -1.2799200     1.1504100
  H        3.5653110    -0.2984830     0.4074420
units angstrom
no_reorient  #important for SAPT in psi4, default
symmetry c1  #important for SAPT in psi4, default
}

set PROPERTIES_ORIGIN ["COM"]
properties('MP2/aug-cc-pvtz', properties = ['dipole'])
--------------------------------------------------------------------------

    Molecular point group: c1
  Charge       = 0
  Multiplicity = 1
  Basis Set: AUG-CC-PVTZ
    Blend: AUG-CC-PVTZ
  Basis Set: (AUG-CC-PVTZ AUX)
    Blend: AUG-CC-PVTZ-JKFIT

    Orbital Energies [Eh]
    ---------------------

    Doubly Occupied:

       1A    -20.511869     2A    -15.580530     3A    -11.340498
       4A    -11.274542     5A    -11.260668     6A    -11.241101
       7A    -11.218602     8A    -11.215798     9A     -1.367007
      10A     -1.258379    11A     -1.094206    12A     -1.005421
      13A     -0.978516    14A     -0.870302    15A     -0.841740
      16A     -0.729459    17A     -0.701726    18A     -0.667593
      19A     -0.640979    20A     -0.616079    21A     -0.596056
      22A     -0.573114    23A     -0.563821    24A     -0.554435
      25A     -0.522512    26A     -0.512944    27A     -0.510393
      28A     -0.490338    29A     -0.484643    30A     -0.409113
      31A     -0.369365

  @DF-RHF Final Energy:  -363.04295544686573

   => Energetics <=

    Nuclear Repulsion Energy =            395.3909441355095282
    One-Electron Energy =               -1276.8643080910969729
    Two-Electron Energy =                 518.4304085087218255
    Total Energy =                       -363.0429554468656761
  Basis Set: (AUG-CC-PVTZ AUX)
    Blend: AUG-CC-PVTZ-RI
    Molecular point group: c1

    Geometry (in Angstrom), charge = 0, multiplicity = 1:

       Center              X                  Y                   Z               Mass
    ------------   -----------------  -----------------  -----------------  -----------------
         O            0.007036198352     2.017163329973    -0.097899470312    15.994914619570
         N            0.252379198352    -0.271429670027    -0.342230470312    14.003074004430
         C           -0.473653801648    -1.488012670027    -0.012936470312    12.000000000000
         C           -1.933083801648    -1.012063670027    -0.032139470312    12.000000000000
         C           -1.831728801648     0.446249329973     0.417236529688    12.000000000000
         C           -0.441112801648     0.872844329973    -0.034841470312    12.000000000000
         C            1.678910198352    -0.238189670027    -0.605346470312    12.000000000000
         C            2.515070198352    -0.385120670027     0.662205529688    12.000000000000
         H           -0.188869801648    -1.875041670027     0.977022529688     1.007825032230
         H           -0.268204801648    -2.269880670027    -0.752538470312     1.007825032230
         H           -2.577998801648    -1.624813670027     0.602978529688     1.007825032230
         H           -2.315480801648    -1.062357670027    -1.055919470312     1.007825032230
         H           -1.866710701648     0.522463629973     1.310388329688     1.007825032230
         H           -2.593476801648     1.108465329973    -0.000329470312     1.007825032230
         H            1.912408198352    -1.031214670027    -1.324944470312     1.007825032230
         H            1.879478198352     0.725110329973    -1.080738470312     1.007825032230
         H            2.289645198352     0.434010329973     1.349339529688     1.007825032230
         H            2.310346198352    -1.333638670027     1.166551529688     1.007825032230
         H            3.582491198352    -0.352201670027     0.423583529688     1.007825032230

  Basis Set: AUG-CC-PVTZ
    Blend: AUG-CC-PVTZ
  Basis Set: (AUG-CC-PVTZ AUX)
    Blend: AUG-CC-PVTZ-JKFIT
	 Reference Energy          =    -363.0429554468657329 [Eh]
	 Singles Energy            =      -0.0000000000000000 [Eh]
	 Same-Spin Energy          =      -0.3767846834848398 [Eh]
	 Opposite-Spin Energy      =      -1.2462783368655705 [Eh]
	 Correlation Energy        =      -1.6230630203504104 [Eh]
	 Total Energy              =    -364.6660184672161336 [Eh]

	 ================> DF-SCS-MP2 Energies <==================
	-----------------------------------------------------------
	 SCS Same-Spin Scale       =       0.3333333333333333 [-]
	 SCS Opposite-Spin Scale   =       1.2000000000000000 [-]
	 SCS Same-Spin Energy      =      -0.1255948944949466 [Eh]
	 SCS Opposite-Spin Energy  =      -1.4955340042386847 [Eh]
	 SCS Correlation Energy    =      -1.6211288987336312 [Eh]
	 SCS Total Energy          =    -364.6640843455993490 [Eh]
	-----------------------------------------------------------

  Dipole Moment: [D]
     X:    -0.4689      Y:    -3.9202      Z:     0.2949     Total:     3.9591

*** Psi4 exiting successfully. Buy a developer a beer!
