                               Psi4 1.3.2 release

  ==> Input File <==

--------------------------------------------------------------------------
#psi4
#
memory 32 gb

molecule  {
0 1
  O       -0.0101440     2.0708820    -0.1140410
  N        0.1569217    -0.2675559    -0.3344845
  C       -0.4908340    -1.4342940    -0.0290780
  C       -1.9502640    -0.9583450    -0.0482810
  C       -1.8489090     0.4999680     0.4010950
  C       -0.4582930     0.9265630    -0.0509830
  C        1.6617300    -0.1844710    -0.6214880
  C        2.4978900    -0.3314020     0.6460640
  H       -0.2060500    -1.8213230     0.9608810
  H       -0.2853850    -2.2161620    -0.7686800
  H       -2.5951790    -1.5710950     0.5868370
  H       -2.3326610    -1.0086390    -1.0720610
  H       -1.8916900     0.5931740     1.4933710
  H       -2.6106570     1.1621840    -0.0164710
  H        1.8952280    -0.9774960    -1.3410860
  H        1.8622980     0.7788290    -1.0968800
  H        2.2724650     0.4877290     1.3331980
  H        2.2931660    -1.2799200     1.1504100
  H        3.5653110    -0.2984830     0.4074420
units angstrom
no_reorient  #important for SAPT in psi4, default
symmetry c1  #important for SAPT in psi4, default
}

set PROPERTIES_ORIGIN ["COM"]
properties('MP2/aug-cc-pvtz', properties = ['dipole'])
--------------------------------------------------------------------------

    Molecular point group: c1
  Charge       = 0
  Multiplicity = 1
  Basis Set: AUG-CC-PVTZ
    Blend: AUG-CC-PVTZ
  Basis Set: (AUG-CC-PVTZ AUX)
    Blend: AUG-CC-PVTZ-JKFIT

    Orbital Energies [Eh]
    ---------------------

    Doubly Occupied:

       1A    -20.516137     2A    -15.581857     3A    -11.343131
       4A    -11.268659     5A    -11.267727     6A    -11.238905
       7A    -11.235132     8A    -11.222331     9A     -1.368456
      10A     -1.272223    11A     -1.077543    12A     -1.004029
      13A     -0.979072    14A     -0.863416    15A     -0.830122
      16A     -0.728209    17A     -0.696572    18A     -0.673523
      19A     -0.638180    20A     -0.602927    21A     -0.593896
      22A     -0.579537    23A     -0.555148    24A     -0.554920
      25A     -0.522079    26A     -0.512854    27A     -0.503719
      28A     -0.492075    29A     -0.476607    30A     -0.408430
      31A     -0.371093

  @DF-RHF Final Energy:  -363.06321046354225

   => Energetics <=

    Nuclear Repulsion Energy =            394.6656237670253518
    One-Electron Energy =               -1275.5006486881022738
    Two-Electron Energy =                 517.7718144575346741
    Total Energy =                       -363.0632104635421911
  Basis Set: (AUG-CC-PVTZ AUX)
    Blend: AUG-CC-PVTZ-RI
    Molecular point group: c1

    Geometry (in Angstrom), charge = 0, multiplicity = 1:

       Center              X                  Y                   Z               Mass
    ------------   -----------------  -----------------  -----------------  -----------------
         O            0.016798696392     2.023184135548    -0.102632062728    15.994914619570
         N            0.183864396392    -0.315253764452    -0.323075562728    14.003074004430
         C           -0.463891303608    -1.481991864452    -0.017669062728    12.000000000000
         C           -1.923321303608    -1.006042864452    -0.036872062728    12.000000000000
         C           -1.821966303608     0.452270135548     0.412503937272    12.000000000000
         C           -0.431350303608     0.878865135548    -0.039574062728    12.000000000000
         C            1.688672696392    -0.232168864452    -0.610079062728    12.000000000000
         C            2.524832696392    -0.379099864452     0.657472937272    12.000000000000
         H           -0.179107303608    -1.869020864452     0.972289937272     1.007825032230
         H           -0.258442303608    -2.263859864452    -0.757271062728     1.007825032230
         H           -2.568236303608    -1.618792864452     0.598245937272     1.007825032230
         H           -2.305718303608    -1.056336864452    -1.060652062728     1.007825032230
         H           -1.864747303608     0.545476135548     1.504779937272     1.007825032230
         H           -2.583714303608     1.114486135548    -0.005062062728     1.007825032230
         H            1.922170696392    -1.025193864452    -1.329677062728     1.007825032230
         H            1.889240696392     0.731131135548    -1.085471062728     1.007825032230
         H            2.299407696392     0.440031135548     1.344606937272     1.007825032230
         H            2.320108696392    -1.327617864452     1.161818937272     1.007825032230
         H            3.592253696392    -0.346180864452     0.418850937272     1.007825032230

  Basis Set: AUG-CC-PVTZ
    Blend: AUG-CC-PVTZ
  Basis Set: (AUG-CC-PVTZ AUX)
    Blend: AUG-CC-PVTZ-JKFIT
	 Reference Energy          =    -363.0632104635422479 [Eh]
	 Singles Energy            =      -0.0000000000000000 [Eh]
	 Same-Spin Energy          =      -0.3775659411131609 [Eh]
	 Opposite-Spin Energy      =      -1.2481149004591150 [Eh]
	 Correlation Energy        =      -1.6256808415722759 [Eh]
	 Total Energy              =    -364.6888913051145096 [Eh]

	 ================> DF-SCS-MP2 Energies <==================
	-----------------------------------------------------------
	 SCS Same-Spin Scale       =       0.3333333333333333 [-]
	 SCS Opposite-Spin Scale   =       1.2000000000000000 [-]
	 SCS Same-Spin Energy      =      -0.1258553137043870 [Eh]
	 SCS Opposite-Spin Energy  =      -1.4977378805509380 [Eh]
	 SCS Correlation Energy    =      -1.6235931942553250 [Eh]
	 SCS Total Energy          =    -364.6868036577975545 [Eh]
	-----------------------------------------------------------

  Dipole Moment: [D]
     X:    -0.1746      Y:    -3.8050      Z:     0.1820     Total:     3.8133

*** Psi4 exiting successfully. Buy a developer a beer!
