                               Psi4 1.3.2 release

  ==> Input File <==

--------------------------------------------------------------------------
#psi4
#
memory 32 gb

molecule  {
0 1
  O       -0.0101440     2.0708820    -0.1140410
  N        0.2351990    -0.2177110    -0.3583720
  C       -0.4908340    -1.4342940    -0.0290780
  C       -1.9502640    -0.9583450    -0.0482810
  C       -1.8489090     0.4999680     0.4010950
  C       -0.6408831     0.8705504     0.0083756
  C        1.6617300    -0.1844710    -0.6214880
  C        2.4978900    -0.3314020     0.6460640
  H       -0.2060500    -1.8213230     0.9608810
  H       -0.2853850    -2.2161620    -0.7686800
  H       -2.5951790    -1.5710950     0.5868370
  H       -2.3326610    -1.0086390    -1.0720610
  H       -1.8916900     0.5931740     1.4933710
  H       -2.6106570     1.1621840    -0.0164710
  H        1.8952280    -0.9774960    -1.3410860
  H        1.8622980     0.7788290    -1.0968800
  H        2.2724650     0.4877290     1.3331980
  H        2.2931660    -1.2799200     1.1504100
  H        3.5653110    -0.2984830     0.4074420
units angstrom
no_reorient  #important for SAPT in psi4, default
symmetry c1  #important for SAPT in psi4, default
}

set PROPERTIES_ORIGIN ["COM"]
properties('MP2/aug-cc-pvtz', properties = ['dipole'])
--------------------------------------------------------------------------

    Molecular point group: c1
  Charge       = 0
  Multiplicity = 1
  Basis Set: AUG-CC-PVTZ
    Blend: AUG-CC-PVTZ
  Basis Set: (AUG-CC-PVTZ AUX)
    Blend: AUG-CC-PVTZ-JKFIT

    Orbital Energies [Eh]
    ---------------------

    Doubly Occupied:

       1A    -20.500103     2A    -15.582873     3A    -11.355943
       4A    -11.272232     5A    -11.260419     6A    -11.253392
       7A    -11.246295     8A    -11.215543     9A     -1.314685
      10A     -1.223593    11A     -1.120232    12A     -1.012754
      13A     -0.981616    14A     -0.872075    15A     -0.834502
      16A     -0.736651    17A     -0.698680    18A     -0.667509
      19A     -0.634422    20A     -0.611371    21A     -0.602085
      22A     -0.567004    23A     -0.562288    24A     -0.532474
      25A     -0.520399    26A     -0.517055    27A     -0.511540
      28A     -0.482399    29A     -0.447158    30A     -0.405027
      31A     -0.355235

  @DF-RHF Final Energy:  -363.00378973612692

   => Energetics <=

    Nuclear Repulsion Energy =            393.6223828440276975
    One-Electron Energy =               -1273.4572360523804946
    Two-Electron Energy =                 516.8310634722258783
    Total Energy =                       -363.0037897361269188
  Basis Set: (AUG-CC-PVTZ AUX)
    Blend: AUG-CC-PVTZ-RI
    Molecular point group: c1

    Geometry (in Angstrom), charge = 0, multiplicity = 1:

       Center              X                  Y                   Z               Mass
    ------------   -----------------  -----------------  -----------------  -----------------
         O            0.026481390281     2.022955715888    -0.105972982363    15.994914619570
         N            0.271824390281    -0.265637284112    -0.350303982363    14.003074004430
         C           -0.454208609719    -1.482220284112    -0.021009982363    12.000000000000
         C           -1.913638609719    -1.006271284112    -0.040212982363    12.000000000000
         C           -1.812283609719     0.452041715888     0.409163017637    12.000000000000
         C           -0.604257709719     0.822624115888     0.016443617637    12.000000000000
         C            1.698355390281    -0.232397284112    -0.613419982363    12.000000000000
         C            2.534515390281    -0.379328284112     0.654132017637    12.000000000000
         H           -0.169424609719    -1.869249284112     0.968949017637     1.007825032230
         H           -0.248759609719    -2.264088284112    -0.760611982363     1.007825032230
         H           -2.558553609719    -1.619021284112     0.594905017637     1.007825032230
         H           -2.296035609719    -1.056565284112    -1.063992982363     1.007825032230
         H           -1.855064609719     0.545247715888     1.501439017637     1.007825032230
         H           -2.574031609719     1.114257715888    -0.008402982363     1.007825032230
         H            1.931853390281    -1.025422284112    -1.333017982363     1.007825032230
         H            1.898923390281     0.730902715888    -1.088811982363     1.007825032230
         H            2.309090390281     0.439802715888     1.341266017637     1.007825032230
         H            2.329791390281    -1.327846284112     1.158478017637     1.007825032230
         H            3.601936390281    -0.346409284112     0.415510017637     1.007825032230

  Basis Set: AUG-CC-PVTZ
    Blend: AUG-CC-PVTZ
  Basis Set: (AUG-CC-PVTZ AUX)
    Blend: AUG-CC-PVTZ-JKFIT
	 Reference Energy          =    -363.0037897361269188 [Eh]
	 Singles Energy            =      -0.0000000000000000 [Eh]
	 Same-Spin Energy          =      -0.3825833920074010 [Eh]
	 Opposite-Spin Energy      =      -1.2572253001636962 [Eh]
	 Correlation Energy        =      -1.6398086921710973 [Eh]
	 Total Energy              =    -364.6435984282979916 [Eh]

	 ================> DF-SCS-MP2 Energies <==================
	-----------------------------------------------------------
	 SCS Same-Spin Scale       =       0.3333333333333333 [-]
	 SCS Opposite-Spin Scale   =       1.2000000000000000 [-]
	 SCS Same-Spin Energy      =      -0.1275277973358003 [Eh]
	 SCS Opposite-Spin Energy  =      -1.5086703601964353 [Eh]
	 SCS Correlation Energy    =      -1.6361981575322355 [Eh]
	 SCS Total Energy          =    -364.6399878936591676 [Eh]
	-----------------------------------------------------------

  Dipole Moment: [D]
     X:    -1.1601      Y:    -4.2853      Z:     0.4622     Total:     4.4635

*** Psi4 exiting successfully. Buy a developer a beer!
