                               Psi4 1.3.2 release

  ==> Input File <==

--------------------------------------------------------------------------
#psi4
#
memory 32 gb

molecule  {
0 1
  O       -0.0101440     2.0708820    -0.1140410
  N        0.2351990    -0.2177110    -0.3583720
  C       -0.4908340    -1.4342940    -0.0290780
  C       -1.9268442    -0.9198820    -0.2025342
  C       -1.8489090     0.4999680     0.4010950
  C       -0.4582930     0.9265630    -0.0509830
  C        1.6617300    -0.1844710    -0.6214880
  C        2.4978900    -0.3314020     0.6460640
  H       -0.2060500    -1.8213230     0.9608810
  H       -0.2853850    -2.2161620    -0.7686800
  H       -2.5951790    -1.5710950     0.5868370
  H       -2.3326610    -1.0086390    -1.0720610
  H       -1.8916900     0.5931740     1.4933710
  H       -2.6106570     1.1621840    -0.0164710
  H        1.8952280    -0.9774960    -1.3410860
  H        1.8622980     0.7788290    -1.0968800
  H        2.2724650     0.4877290     1.3331980
  H        2.2931660    -1.2799200     1.1504100
  H        3.5653110    -0.2984830     0.4074420
units angstrom
no_reorient  #important for SAPT in psi4, default
symmetry c1  #important for SAPT in psi4, default
}

set PROPERTIES_ORIGIN ["COM"]
properties('MP2/aug-cc-pvtz', properties = ['dipole'])
--------------------------------------------------------------------------

    Molecular point group: c1
  Charge       = 0
  Multiplicity = 1
  Basis Set: AUG-CC-PVTZ
    Blend: AUG-CC-PVTZ
  Basis Set: (AUG-CC-PVTZ AUX)
    Blend: AUG-CC-PVTZ-JKFIT

    Orbital Energies [Eh]
    ---------------------

    Doubly Occupied:

       1A    -20.511044     2A    -15.580150     3A    -11.339959
       4A    -11.276385     5A    -11.260305     6A    -11.244441
       7A    -11.241670     8A    -11.218996     9A     -1.366691
      10A     -1.259762    11A     -1.087834    12A     -0.999725
      13A     -0.973110    14A     -0.871884    15A     -0.837761
      16A     -0.725748    17A     -0.692071    18A     -0.673399
      19A     -0.637457    20A     -0.604963    21A     -0.595027
      22A     -0.580991    23A     -0.569657    24A     -0.546471
      25A     -0.521372    26A     -0.508303    27A     -0.502951
      28A     -0.490307    29A     -0.475248    30A     -0.404578
      31A     -0.369701

  @DF-RHF Final Energy:  -363.04457836701476

   => Energetics <=

    Nuclear Repulsion Energy =            394.7122666657960508
    One-Electron Energy =               -1275.5777733188697312
    Two-Electron Energy =                 517.8209282860589155
    Total Energy =                       -363.0445783670147648
  Basis Set: (AUG-CC-PVTZ AUX)
    Blend: AUG-CC-PVTZ-RI
    Molecular point group: c1

    Geometry (in Angstrom), charge = 0, multiplicity = 1:

       Center              X                  Y                   Z               Mass
    ------------   -----------------  -----------------  -----------------  -----------------
         O            0.004620495713     2.012930366957    -0.083305406492    15.994914619570
         N            0.249963495713    -0.275662633043    -0.327636406492    14.003074004430
         C           -0.476069504287    -1.492245633043     0.001657593508    12.000000000000
         C           -1.912079704287    -0.977833633043    -0.171798606492    12.000000000000
         C           -1.834144504287     0.442016366957     0.431830593508    12.000000000000
         C           -0.443528504287     0.868611366957    -0.020247406492    12.000000000000
         C            1.676494495713    -0.242422633043    -0.590752406492    12.000000000000
         C            2.512654495713    -0.389353633043     0.676799593508    12.000000000000
         H           -0.191285504287    -1.879274633043     0.991616593508     1.007825032230
         H           -0.270620504287    -2.274113633043    -0.737944406492     1.007825032230
         H           -2.580414504287    -1.629046633043     0.617572593508     1.007825032230
         H           -2.317896504287    -1.066590633043    -1.041325406492     1.007825032230
         H           -1.876925504287     0.535222366957     1.524106593508     1.007825032230
         H           -2.595892504287     1.104232366957     0.014264593508     1.007825032230
         H            1.909992495713    -1.035447633043    -1.310350406492     1.007825032230
         H            1.877062495713     0.720877366957    -1.066144406492     1.007825032230
         H            2.287229495713     0.429777366957     1.363933593508     1.007825032230
         H            2.307930495713    -1.337871633043     1.181145593508     1.007825032230
         H            3.580075495713    -0.356434633043     0.438177593508     1.007825032230

  Basis Set: AUG-CC-PVTZ
    Blend: AUG-CC-PVTZ
  Basis Set: (AUG-CC-PVTZ AUX)
    Blend: AUG-CC-PVTZ-JKFIT
	 Reference Energy          =    -363.0445783670147648 [Eh]
	 Singles Energy            =      -0.0000000000000000 [Eh]
	 Same-Spin Energy          =      -0.3773219991528731 [Eh]
	 Opposite-Spin Energy      =      -1.2484545557030504 [Eh]
	 Correlation Energy        =      -1.6257765548559235 [Eh]
	 Total Energy              =    -364.6703549218706826 [Eh]

	 ================> DF-SCS-MP2 Energies <==================
	-----------------------------------------------------------
	 SCS Same-Spin Scale       =       0.3333333333333333 [-]
	 SCS Opposite-Spin Scale   =       1.2000000000000000 [-]
	 SCS Same-Spin Energy      =      -0.1257739997176244 [Eh]
	 SCS Opposite-Spin Energy  =      -1.4981454668436605 [Eh]
	 SCS Correlation Energy    =      -1.6239194665612848 [Eh]
	 SCS Total Energy          =    -364.6684978335760547 [Eh]
	-----------------------------------------------------------

  Dipole Moment: [D]
     X:    -0.3915      Y:    -3.8802      Z:     0.1719     Total:     3.9037

*** Psi4 exiting successfully. Buy a developer a beer!
