                               Psi4 1.3.2 release

  ==> Input File <==

--------------------------------------------------------------------------
#psi4
#
memory 32 gb

molecule  {
0 1
  O       -0.0101440     2.0708820    -0.1140410
  N        0.2351990    -0.2177110    -0.3583720
  C       -0.3910028    -1.2670111    -0.0743567
  C       -1.9502640    -0.9583450    -0.0482810
  C       -1.8489090     0.4999680     0.4010950
  C       -0.4582930     0.9265630    -0.0509830
  C        1.6617300    -0.1844710    -0.6214880
  C        2.4978900    -0.3314020     0.6460640
  H       -0.2060500    -1.8213230     0.9608810
  H       -0.2853850    -2.2161620    -0.7686800
  H       -2.5951790    -1.5710950     0.5868370
  H       -2.3326610    -1.0086390    -1.0720610
  H       -1.8916900     0.5931740     1.4933710
  H       -2.6106570     1.1621840    -0.0164710
  H        1.8952280    -0.9774960    -1.3410860
  H        1.8622980     0.7788290    -1.0968800
  H        2.2724650     0.4877290     1.3331980
  H        2.2931660    -1.2799200     1.1504100
  H        3.5653110    -0.2984830     0.4074420
units angstrom
no_reorient  #important for SAPT in psi4, default
symmetry c1  #important for SAPT in psi4, default
}

set PROPERTIES_ORIGIN ["COM"]
properties('MP2/aug-cc-pvtz', properties = ['dipole'])
--------------------------------------------------------------------------

    Molecular point group: c1
  Charge       = 0
  Multiplicity = 1
  Basis Set: AUG-CC-PVTZ
    Blend: AUG-CC-PVTZ
  Basis Set: (AUG-CC-PVTZ AUX)
    Blend: AUG-CC-PVTZ-JKFIT

    Orbital Energies [Eh]
    ---------------------

    Doubly Occupied:

       1A    -20.522453     2A    -15.585007     3A    -11.350360
       4A    -11.276429     5A    -11.268521     6A    -11.242606
       7A    -11.240779     8A    -11.222614     9A     -1.386856
      10A     -1.310292    11A     -1.090337    12A     -1.014523
      13A     -0.962961    14A     -0.882011    15A     -0.840378
      16A     -0.737672    17A     -0.705463    18A     -0.675557
      19A     -0.646307    20A     -0.611424    21A     -0.601148
      22A     -0.582466    23A     -0.558023    24A     -0.554923
      25A     -0.531149    26A     -0.517456    27A     -0.505206
      28A     -0.473051    29A     -0.470069    30A     -0.416481
      31A     -0.358078

  @DF-RHF Final Energy:  -363.02702762257798

   => Energetics <=

    Nuclear Repulsion Energy =            398.0095765291357566
    One-Electron Energy =               -1281.7920063928668242
    Two-Electron Energy =                 520.7554022411530923
    Total Energy =                       -363.0270276225779753
  Basis Set: (AUG-CC-PVTZ AUX)
    Blend: AUG-CC-PVTZ-RI
    Molecular point group: c1

    Geometry (in Angstrom), charge = 0, multiplicity = 1:

       Center              X                  Y                   Z               Mass
    ------------   -----------------  -----------------  -----------------  -----------------
         O           -0.003487957130     1.999260546952    -0.094869317038    15.994914619570
         N            0.241855042870    -0.289332453048    -0.339200317038    14.003074004430
         C           -0.384346757130    -1.338632553048    -0.055185017038    12.000000000000
         C           -1.943607957130    -1.029966453048    -0.029109317038    12.000000000000
         C           -1.842252957130     0.428346546952     0.420266682962    12.000000000000
         C           -0.451636957130     0.854941546952    -0.031811317038    12.000000000000
         C            1.668386042870    -0.256092453048    -0.602316317038    12.000000000000
         C            2.504546042870    -0.403023453048     0.665235682962    12.000000000000
         H           -0.199393957130    -1.892944453048     0.980052682962     1.007825032230
         H           -0.278728957130    -2.287783453048    -0.749508317038     1.007825032230
         H           -2.588522957130    -1.642716453048     0.606008682962     1.007825032230
         H           -2.326004957130    -1.080260453048    -1.052889317038     1.007825032230
         H           -1.885033957130     0.521552546952     1.512542682962     1.007825032230
         H           -2.604000957130     1.090562546952     0.002700682962     1.007825032230
         H            1.901884042870    -1.049117453048    -1.321914317038     1.007825032230
         H            1.868954042870     0.707207546952    -1.077708317038     1.007825032230
         H            2.279121042870     0.416107546952     1.352369682962     1.007825032230
         H            2.299822042870    -1.351541453048     1.169581682962     1.007825032230
         H            3.571967042870    -0.370104453048     0.426613682962     1.007825032230

  Basis Set: AUG-CC-PVTZ
    Blend: AUG-CC-PVTZ
  Basis Set: (AUG-CC-PVTZ AUX)
    Blend: AUG-CC-PVTZ-JKFIT
	 Reference Energy          =    -363.0270276225779753 [Eh]
	 Singles Energy            =      -0.0000000000000000 [Eh]
	 Same-Spin Energy          =      -0.3792973000875454 [Eh]
	 Opposite-Spin Energy      =      -1.2494800230319041 [Eh]
	 Correlation Energy        =      -1.6287773231194493 [Eh]
	 Total Energy              =    -364.6558049456974118 [Eh]

	 ================> DF-SCS-MP2 Energies <==================
	-----------------------------------------------------------
	 SCS Same-Spin Scale       =       0.3333333333333333 [-]
	 SCS Opposite-Spin Scale   =       1.2000000000000000 [-]
	 SCS Same-Spin Energy      =      -0.1264324333625151 [Eh]
	 SCS Opposite-Spin Energy  =      -1.4993760276382848 [Eh]
	 SCS Correlation Energy    =      -1.6258084610007999 [Eh]
	 SCS Total Energy          =    -364.6528360835787907 [Eh]
	-----------------------------------------------------------

  Dipole Moment: [D]
     X:    -0.2485      Y:    -3.2350      Z:     0.1055     Total:     3.2462

*** Psi4 exiting successfully. Buy a developer a beer!
