                               Psi4 1.3.2 release

  ==> Input File <==

--------------------------------------------------------------------------
#psi4
#
memory 32 gb

molecule  {
0 1
  O       -0.0101440     2.0708820    -0.1140410
  N        0.2351990    -0.2177110    -0.3583720
  C       -0.4908340    -1.4342940    -0.0290780
  C       -1.9502640    -0.9583450    -0.0482810
  C       -1.8489090     0.4999680     0.4010950
  C       -0.4582930     0.9265630    -0.0509830
  C        1.6617300    -0.1844710    -0.6214880
  C        2.4978900    -0.3314020     0.6460640
  H       -0.1753136    -1.9185548     0.9073250
  H       -0.2853850    -2.2161620    -0.7686800
  H       -2.5951790    -1.5710950     0.5868370
  H       -2.3326610    -1.0086390    -1.0720610
  H       -1.8916900     0.5931740     1.4933710
  H       -2.6106570     1.1621840    -0.0164710
  H        1.8952280    -0.9774960    -1.3410860
  H        1.8622980     0.7788290    -1.0968800
  H        2.2724650     0.4877290     1.3331980
  H        2.2931660    -1.2799200     1.1504100
  H        3.5653110    -0.2984830     0.4074420
units angstrom
no_reorient  #important for SAPT in psi4, default
symmetry c1  #important for SAPT in psi4, default
}

set PROPERTIES_ORIGIN ["COM"]
properties('MP2/aug-cc-pvtz', properties = ['dipole'])
--------------------------------------------------------------------------

    Molecular point group: c1
  Charge       = 0
  Multiplicity = 1
  Basis Set: AUG-CC-PVTZ
    Blend: AUG-CC-PVTZ
  Basis Set: (AUG-CC-PVTZ AUX)
    Blend: AUG-CC-PVTZ-JKFIT

    Orbital Energies [Eh]
    ---------------------

    Doubly Occupied:

       1A    -20.512056     2A    -15.582236     3A    -11.341800
       4A    -11.274619     5A    -11.261106     6A    -11.243143
       7A    -11.240031     8A    -11.218791     9A     -1.367243
      10A     -1.258544    11A     -1.087780    12A     -1.000670
      13A     -0.972583    14A     -0.870328    15A     -0.830580
      16A     -0.727321    17A     -0.693178    18A     -0.667538
      19A     -0.639632    20A     -0.604606    21A     -0.589123
      22A     -0.570579    23A     -0.562976    24A     -0.555128
      25A     -0.523320    26A     -0.513164    27A     -0.509652
      28A     -0.490316    29A     -0.476552    30A     -0.409958
      31A     -0.369650

  @DF-RHF Final Energy:  -363.07454665356329

   => Energetics <=

    Nuclear Repulsion Energy =            394.1422975226191170
    One-Electron Energy =               -1274.5052860996440813
    Two-Electron Energy =                 517.2884419234616189
    Total Energy =                       -363.0745466535632886
  Basis Set: (AUG-CC-PVTZ AUX)
    Blend: AUG-CC-PVTZ-RI
    Molecular point group: c1

    Geometry (in Angstrom), charge = 0, multiplicity = 1:

       Center              X                  Y                   Z               Mass
    ------------   -----------------  -----------------  -----------------  -----------------
         O            0.006831777107     2.017878443832    -0.099196799668    15.994914619570
         N            0.252174777107    -0.270714556168    -0.343527799668    14.003074004430
         C           -0.473858222893    -1.487297556168    -0.014233799668    12.000000000000
         C           -1.933288222893    -1.011348556168    -0.033436799668    12.000000000000
         C           -1.831933222893     0.446964443832     0.415939200332    12.000000000000
         C           -0.441317222893     0.873559443832    -0.036138799668    12.000000000000
         C            1.678705777107    -0.237474556168    -0.606643799668    12.000000000000
         C            2.514865777107    -0.384405556168     0.660908200332    12.000000000000
         H           -0.158337822893    -1.971558356168     0.922169200332     1.007825032230
         H           -0.268409222893    -2.269165556168    -0.753835799668     1.007825032230
         H           -2.578203222893    -1.624098556168     0.601681200332     1.007825032230
         H           -2.315685222893    -1.061642556168    -1.057216799668     1.007825032230
         H           -1.874714222893     0.540170443832     1.508215200332     1.007825032230
         H           -2.593681222893     1.109180443832    -0.001626799668     1.007825032230
         H            1.912203777107    -1.030499556168    -1.326241799668     1.007825032230
         H            1.879273777107     0.725825443832    -1.082035799668     1.007825032230
         H            2.289440777107     0.434725443832     1.348042200332     1.007825032230
         H            2.310141777107    -1.332923556168     1.165254200332     1.007825032230
         H            3.582286777107    -0.351486556168     0.422286200332     1.007825032230

  Basis Set: AUG-CC-PVTZ
    Blend: AUG-CC-PVTZ
  Basis Set: (AUG-CC-PVTZ AUX)
    Blend: AUG-CC-PVTZ-JKFIT
	 Reference Energy          =    -363.0745466535632886 [Eh]
	 Singles Energy            =      -0.0000000000000000 [Eh]
	 Same-Spin Energy          =      -0.3767620573208685 [Eh]
	 Opposite-Spin Energy      =      -1.2468371844112496 [Eh]
	 Correlation Energy        =      -1.6235992417321181 [Eh]
	 Total Energy              =    -364.6981458952953972 [Eh]

	 ================> DF-SCS-MP2 Energies <==================
	-----------------------------------------------------------
	 SCS Same-Spin Scale       =       0.3333333333333333 [-]
	 SCS Opposite-Spin Scale   =       1.2000000000000000 [-]
	 SCS Same-Spin Energy      =      -0.1255873524402895 [Eh]
	 SCS Opposite-Spin Energy  =      -1.4962046212934994 [Eh]
	 SCS Correlation Energy    =      -1.6217919737337889 [Eh]
	 SCS Total Energy          =    -364.6963386272970524 [Eh]
	-----------------------------------------------------------

  Dipole Moment: [D]
     X:    -0.4486      Y:    -3.9451      Z:     0.2538     Total:     3.9786

*** Psi4 exiting successfully. Buy a developer a beer!
