                               Psi4 1.3.2 release

  ==> Input File <==

--------------------------------------------------------------------------
#psi4
#
memory 32 gb

molecule  {
0 1
  O       -0.0101440     2.0708820    -0.1140410
  N        0.2351990    -0.2177110    -0.3583720
  C       -0.4908340    -1.4342940    -0.0290780
  C       -1.9075630    -0.9695801    -0.0182814
  C       -1.8489090     0.4999680     0.4010950
  C       -0.4582930     0.9265630    -0.0509830
  C        1.6617300    -0.1844710    -0.6214880
  C        2.4978900    -0.3314020     0.6460640
  H       -0.2060500    -1.8213230     0.9608810
  H       -0.2853850    -2.2161620    -0.7686800
  H       -2.5951790    -1.5710950     0.5868370
  H       -2.3326610    -1.0086390    -1.0720610
  H       -1.8916900     0.5931740     1.4933710
  H       -2.6106570     1.1621840    -0.0164710
  H        1.8952280    -0.9774960    -1.3410860
  H        1.8622980     0.7788290    -1.0968800
  H        2.2724650     0.4877290     1.3331980
  H        2.2931660    -1.2799200     1.1504100
  H        3.5653110    -0.2984830     0.4074420
units angstrom
no_reorient  #important for SAPT in psi4, default
symmetry c1  #important for SAPT in psi4, default
}

set PROPERTIES_ORIGIN ["COM"]
properties('MP2/aug-cc-pvtz', properties = ['dipole'])
--------------------------------------------------------------------------

    Molecular point group: c1
  Charge       = 0
  Multiplicity = 1
  Basis Set: AUG-CC-PVTZ
    Blend: AUG-CC-PVTZ
  Basis Set: (AUG-CC-PVTZ AUX)
    Blend: AUG-CC-PVTZ-JKFIT

    Orbital Energies [Eh]
    ---------------------

    Doubly Occupied:

       1A    -20.511551     2A    -15.581410     3A    -11.341463
       4A    -11.273649     5A    -11.261132     6A    -11.243950
       7A    -11.240263     8A    -11.218803     9A     -1.367166
      10A     -1.260640    11A     -1.090818    12A     -1.000244
      13A     -0.977029    14A     -0.869274    15A     -0.826701
      16A     -0.727853    17A     -0.694125    18A     -0.669710
      19A     -0.639535    20A     -0.603497    21A     -0.588879
      22A     -0.572282    23A     -0.562501    24A     -0.556374
      25A     -0.521100    26A     -0.518977    27A     -0.510521
      28A     -0.493085    29A     -0.469540    30A     -0.408916
      31A     -0.369975

  @DF-RHF Final Energy:  -363.07279598469637

   => Energetics <=

    Nuclear Repulsion Energy =            394.9192348141617686
    One-Electron Energy =               -1276.0421357514492229
    Two-Electron Energy =                 518.0501049525911412
    Total Energy =                       -363.0727959846963131
  Basis Set: (AUG-CC-PVTZ AUX)
    Blend: AUG-CC-PVTZ-RI
    Molecular point group: c1

    Geometry (in Angstrom), charge = 0, multiplicity = 1:

       Center              X                  Y                   Z               Mass
    ------------   -----------------  -----------------  -----------------  -----------------
         O            0.002574456759     2.018204117997    -0.102857530127    15.994914619570
         N            0.247917456759    -0.270388882003    -0.347188530127    14.003074004430
         C           -0.478115543241    -1.486971882003    -0.017894530127    12.000000000000
         C           -1.894844543241    -1.022257982003    -0.007097930127    12.000000000000
         C           -1.836190543241     0.447290117997     0.412278469873    12.000000000000
         C           -0.445574543241     0.873885117997    -0.039799530127    12.000000000000
         C            1.674448456759    -0.237148882003    -0.610304530127    12.000000000000
         C            2.510608456759    -0.384079882003     0.657247469873    12.000000000000
         H           -0.193331543241    -1.874000882003     0.972064469873     1.007825032230
         H           -0.272666543241    -2.268839882003    -0.757496530127     1.007825032230
         H           -2.582460543241    -1.623772882003     0.598020469873     1.007825032230
         H           -2.319942543241    -1.061316882003    -1.060877530127     1.007825032230
         H           -1.878971543241     0.540496117997     1.504554469873     1.007825032230
         H           -2.597938543241     1.109506117997    -0.005287530127     1.007825032230
         H            1.907946456759    -1.030173882003    -1.329902530127     1.007825032230
         H            1.875016456759     0.726151117997    -1.085696530127     1.007825032230
         H            2.285183456759     0.435051117997     1.344381469873     1.007825032230
         H            2.305884456759    -1.332597882003     1.161593469873     1.007825032230
         H            3.578029456759    -0.351160882003     0.418625469873     1.007825032230

  Basis Set: AUG-CC-PVTZ
    Blend: AUG-CC-PVTZ
  Basis Set: (AUG-CC-PVTZ AUX)
    Blend: AUG-CC-PVTZ-JKFIT
	 Reference Energy          =    -363.0727959846963699 [Eh]
	 Singles Energy            =      -0.0000000000000000 [Eh]
	 Same-Spin Energy          =      -0.3770543009276942 [Eh]
	 Opposite-Spin Energy      =      -1.2471867224305280 [Eh]
	 Correlation Energy        =      -1.6242410233582221 [Eh]
	 Total Energy              =    -364.6970370080545649 [Eh]

	 ================> DF-SCS-MP2 Energies <==================
	-----------------------------------------------------------
	 SCS Same-Spin Scale       =       0.3333333333333333 [-]
	 SCS Opposite-Spin Scale   =       1.2000000000000000 [-]
	 SCS Same-Spin Energy      =      -0.1256847669758981 [Eh]
	 SCS Opposite-Spin Energy  =      -1.4966240669166335 [Eh]
	 SCS Correlation Energy    =      -1.6223088338925316 [Eh]
	 SCS Total Energy          =    -364.6951048185889022 [Eh]
	-----------------------------------------------------------

  Dipole Moment: [D]
     X:    -0.4535      Y:    -3.9437      Z:     0.2753     Total:     3.9792

*** Psi4 exiting successfully. Buy a developer a beer!
