                               Psi4 1.3.2 release

  ==> Input File <==

--------------------------------------------------------------------------
#psi4
#
memory 32 gb

molecule  {
0 1
  O       -0.0101440     2.0708820    -0.1140410
  N        0.2351990    -0.2177110    -0.3583720
  C       -0.4516172    -1.4613751    -0.0465774
  C       -1.9502640    -0.9583450    -0.0482810
  C       -1.8489090     0.4999680     0.4010950
  C       -0.4582930     0.9265630    -0.0509830
  C        1.6617300    -0.1844710    -0.6214880
  C        2.4978900    -0.3314020     0.6460640
  H       -0.2060500    -1.8213230     0.9608810
  H       -0.2853850    -2.2161620    -0.7686800
  H       -2.5951790    -1.5710950     0.5868370
  H       -2.3326610    -1.0086390    -1.0720610
  H       -1.8916900     0.5931740     1.4933710
  H       -2.6106570     1.1621840    -0.0164710
  H        1.8952280    -0.9774960    -1.3410860
  H        1.8622980     0.7788290    -1.0968800
  H        2.2724650     0.4877290     1.3331980
  H        2.2931660    -1.2799200     1.1504100
  H        3.5653110    -0.2984830     0.4074420
units angstrom
no_reorient  #important for SAPT in psi4, default
symmetry c1  #important for SAPT in psi4, default
}

set PROPERTIES_ORIGIN ["COM"]
properties('MP2/aug-cc-pvtz', properties = ['dipole'])
--------------------------------------------------------------------------

    Molecular point group: c1
  Charge       = 0
  Multiplicity = 1
  Basis Set: AUG-CC-PVTZ
    Blend: AUG-CC-PVTZ
  Basis Set: (AUG-CC-PVTZ AUX)
    Blend: AUG-CC-PVTZ-JKFIT

    Orbital Energies [Eh]
    ---------------------

    Doubly Occupied:

       1A    -20.512160     2A    -15.581375     3A    -11.342271
       4A    -11.273763     5A    -11.259774     6A    -11.243961
       7A    -11.239805     8A    -11.218306     9A     -1.366991
      10A     -1.257246    11A     -1.083407    12A     -0.999401
      13A     -0.972541    14A     -0.869342    15A     -0.830707
      16A     -0.727304    17A     -0.691404    18A     -0.669608
      19A     -0.641393    20A     -0.604754    21A     -0.590615
      22A     -0.575916    23A     -0.561460    24A     -0.551508
      25A     -0.523147    26A     -0.514219    27A     -0.506619
      28A     -0.484643    29A     -0.477355    30A     -0.410080
      31A     -0.370417

  @DF-RHF Final Energy:  -363.07344382175387

   => Energetics <=

    Nuclear Repulsion Energy =            393.8233401273116101
    One-Electron Energy =               -1273.8905835210275654
    Two-Electron Energy =                 516.9937995719620858
    Total Energy =                       -363.0734438217538127
  Basis Set: (AUG-CC-PVTZ AUX)
    Blend: AUG-CC-PVTZ-RI
    Molecular point group: c1

    Geometry (in Angstrom), charge = 0, multiplicity = 1:

       Center              X                  Y                   Z               Mass
    ------------   -----------------  -----------------  -----------------  -----------------
         O            0.002944185247     2.019885628134    -0.097817138227    15.994914619570
         N            0.248287185247    -0.268707371866    -0.342148138227    14.003074004430
         C           -0.438529014753    -1.512371471866    -0.030353538227    12.000000000000
         C           -1.937175814753    -1.009341371866    -0.032057138227    12.000000000000
         C           -1.835820814753     0.448971628134     0.417318861773    12.000000000000
         C           -0.445204814753     0.875566628134    -0.034759138227    12.000000000000
         C            1.674818185247    -0.235467371866    -0.605264138227    12.000000000000
         C            2.510978185247    -0.382398371866     0.662287861773    12.000000000000
         H           -0.192961814753    -1.872319371866     0.977104861773     1.007825032230
         H           -0.272296814753    -2.267158371866    -0.752456138227     1.007825032230
         H           -2.582090814753    -1.622091371866     0.603060861773     1.007825032230
         H           -2.319572814753    -1.059635371866    -1.055837138227     1.007825032230
         H           -1.878601814753     0.542177628134     1.509594861773     1.007825032230
         H           -2.597568814753     1.111187628134    -0.000247138227     1.007825032230
         H            1.908316185247    -1.028492371866    -1.324862138227     1.007825032230
         H            1.875386185247     0.727832628134    -1.080656138227     1.007825032230
         H            2.285553185247     0.436732628134     1.349421861773     1.007825032230
         H            2.306254185247    -1.330916371866     1.166633861773     1.007825032230
         H            3.578399185247    -0.349479371866     0.423665861773     1.007825032230

  Basis Set: AUG-CC-PVTZ
    Blend: AUG-CC-PVTZ
  Basis Set: (AUG-CC-PVTZ AUX)
    Blend: AUG-CC-PVTZ-JKFIT
	 Reference Energy          =    -363.0734438217538695 [Eh]
	 Singles Energy            =      -0.0000000000000000 [Eh]
	 Same-Spin Energy          =      -0.3766854127480438 [Eh]
	 Opposite-Spin Energy      =      -1.2470493139765269 [Eh]
	 Correlation Energy        =      -1.6237347267245705 [Eh]
	 Total Energy              =    -364.6971785484784618 [Eh]

	 ================> DF-SCS-MP2 Energies <==================
	-----------------------------------------------------------
	 SCS Same-Spin Scale       =       0.3333333333333333 [-]
	 SCS Opposite-Spin Scale   =       1.2000000000000000 [-]
	 SCS Same-Spin Energy      =      -0.1255618042493479 [Eh]
	 SCS Opposite-Spin Energy  =      -1.4964591767718323 [Eh]
	 SCS Correlation Energy    =      -1.6220209810211803 [Eh]
	 SCS Total Energy          =    -364.6954648027750636 [Eh]
	-----------------------------------------------------------

  Dipole Moment: [D]
     X:    -0.4557      Y:    -3.9643      Z:     0.2366     Total:     3.9974

*** Psi4 exiting successfully. Buy a developer a beer!
