                               Psi4 1.3.2 release

  ==> Input File <==

--------------------------------------------------------------------------
#psi4
#
memory 32 gb

molecule  {
0 1
  O       -0.0101440     2.0708820    -0.1140410
  N        0.2351990    -0.2177110    -0.3583720
  C       -0.4908340    -1.4342940    -0.0290780
  C       -1.7601347    -1.0203499    -0.0457793
  C       -1.8489090     0.4999680     0.4010950
  C       -0.4582930     0.9265630    -0.0509830
  C        1.6617300    -0.1844710    -0.6214880
  C        2.4978900    -0.3314020     0.6460640
  H       -0.2060500    -1.8213230     0.9608810
  H       -0.2853850    -2.2161620    -0.7686800
  H       -2.5951790    -1.5710950     0.5868370
  H       -2.3326610    -1.0086390    -1.0720610
  H       -1.8916900     0.5931740     1.4933710
  H       -2.6106570     1.1621840    -0.0164710
  H        1.8952280    -0.9774960    -1.3410860
  H        1.8622980     0.7788290    -1.0968800
  H        2.2724650     0.4877290     1.3331980
  H        2.2931660    -1.2799200     1.1504100
  H        3.5653110    -0.2984830     0.4074420
units angstrom
no_reorient  #important for SAPT in psi4, default
symmetry c1  #important for SAPT in psi4, default
}

set PROPERTIES_ORIGIN ["COM"]
properties('MP2/aug-cc-pvtz', properties = ['dipole'])
--------------------------------------------------------------------------

    Molecular point group: c1
  Charge       = 0
  Multiplicity = 1
  Basis Set: AUG-CC-PVTZ
    Blend: AUG-CC-PVTZ
  Basis Set: (AUG-CC-PVTZ AUX)
    Blend: AUG-CC-PVTZ-JKFIT

    Orbital Energies [Eh]
    ---------------------

    Doubly Occupied:

       1A    -20.510821     2A    -15.582217     3A    -11.340619
       4A    -11.266614     5A    -11.261296     6A    -11.249704
       7A    -11.243670     8A    -11.219324     9A     -1.367952
      10A     -1.270153    11A     -1.101317    12A     -1.002891
      13A     -0.989858    14A     -0.865577    15A     -0.819997
      16A     -0.730464    17A     -0.700031    18A     -0.678507
      19A     -0.638883    20A     -0.603218    21A     -0.592582
      22A     -0.576848    23A     -0.572712    24A     -0.558890
      25A     -0.531532    26A     -0.505554    27A     -0.503921
      28A     -0.491080    29A     -0.452544    30A     -0.402485
      31A     -0.371526

  @DF-RHF Final Energy:  -363.02789358503657

   => Energetics <=

    Nuclear Repulsion Energy =            396.9404735179293766
    One-Electron Energy =               -1279.9311614297685082
    Two-Electron Energy =                 519.9627943268025092
    Total Energy =                       -363.0278935850366224
  Basis Set: (AUG-CC-PVTZ AUX)
    Blend: AUG-CC-PVTZ-RI
    Molecular point group: c1

    Geometry (in Angstrom), charge = 0, multiplicity = 1:

       Center              X                  Y                   Z               Mass
    ------------   -----------------  -----------------  -----------------  -----------------
         O           -0.013070007525     2.023591593283    -0.099939569908    15.994914619570
         N            0.232272992475    -0.265001406717    -0.344270569908    14.003074004430
         C           -0.493760007525    -1.481584406717    -0.014976569908    12.000000000000
         C           -1.763060707525    -1.067640306717    -0.031677869908    12.000000000000
         C           -1.851835007525     0.452677593283     0.415196430092    12.000000000000
         C           -0.461219007525     0.879272593283    -0.036881569908    12.000000000000
         C            1.658803992475    -0.231761406717    -0.607386569908    12.000000000000
         C            2.494963992475    -0.378692406717     0.660165430092    12.000000000000
         H           -0.208976007525    -1.868613406717     0.974982430092     1.007825032230
         H           -0.288311007525    -2.263452406717    -0.754578569908     1.007825032230
         H           -2.598105007525    -1.618385406717     0.600938430092     1.007825032230
         H           -2.335587007525    -1.055929406717    -1.057959569908     1.007825032230
         H           -1.894616007525     0.545883593283     1.507472430092     1.007825032230
         H           -2.613583007525     1.114893593283    -0.002369569908     1.007825032230
         H            1.892301992475    -1.024786406717    -1.326984569908     1.007825032230
         H            1.859371992475     0.731538593283    -1.082778569908     1.007825032230
         H            2.269538992475     0.440438593283     1.347299430092     1.007825032230
         H            2.290239992475    -1.327210406717     1.164511430092     1.007825032230
         H            3.562384992475    -0.345773406717     0.421543430092     1.007825032230

  Basis Set: AUG-CC-PVTZ
    Blend: AUG-CC-PVTZ
  Basis Set: (AUG-CC-PVTZ AUX)
    Blend: AUG-CC-PVTZ-JKFIT
	 Reference Energy          =    -363.0278935850365656 [Eh]
	 Singles Energy            =      -0.0000000000000000 [Eh]
	 Same-Spin Energy          =      -0.3791294868259854 [Eh]
	 Opposite-Spin Energy      =      -1.2501118581846966 [Eh]
	 Correlation Energy        =      -1.6292413450106820 [Eh]
	 Total Energy              =    -364.6571349300472207 [Eh]

	 ================> DF-SCS-MP2 Energies <==================
	-----------------------------------------------------------
	 SCS Same-Spin Scale       =       0.3333333333333333 [-]
	 SCS Opposite-Spin Scale   =       1.2000000000000000 [-]
	 SCS Same-Spin Energy      =      -0.1263764956086618 [Eh]
	 SCS Opposite-Spin Energy  =      -1.5001342298216358 [Eh]
	 SCS Correlation Energy    =      -1.6265107254302975 [Eh]
	 SCS Total Energy          =    -364.6544043104668731 [Eh]
	-----------------------------------------------------------

  Dipole Moment: [D]
     X:    -0.4079      Y:    -3.8959      Z:     0.2700     Total:     3.9265

*** Psi4 exiting successfully. Buy a developer a beer!
