                               Psi4 1.3.2 release

  ==> Input File <==

--------------------------------------------------------------------------
#psi4
#
memory 32 gb

molecule  {
0 1
  O       -0.0101440     2.0708820    -0.1140410
  N        0.2351990    -0.2177110    -0.3583720
  C       -0.4908340    -1.4342940    -0.0290780
  C       -1.9502640    -0.9583450    -0.0482810
  C       -1.8555364     0.4046124     0.3717114
  C       -0.4582930     0.9265630    -0.0509830
  C        1.6617300    -0.1844710    -0.6214880
  C        2.4978900    -0.3314020     0.6460640
  H       -0.2060500    -1.8213230     0.9608810
  H       -0.2853850    -2.2161620    -0.7686800
  H       -2.5951790    -1.5710950     0.5868370
  H       -2.3326610    -1.0086390    -1.0720610
  H       -1.8916900     0.5931740     1.4933710
  H       -2.6106570     1.1621840    -0.0164710
  H        1.8952280    -0.9774960    -1.3410860
  H        1.8622980     0.7788290    -1.0968800
  H        2.2724650     0.4877290     1.3331980
  H        2.2931660    -1.2799200     1.1504100
  H        3.5653110    -0.2984830     0.4074420
units angstrom
no_reorient  #important for SAPT in psi4, default
symmetry c1  #important for SAPT in psi4, default
}

set PROPERTIES_ORIGIN ["COM"]
properties('MP2/aug-cc-pvtz', properties = ['dipole'])
--------------------------------------------------------------------------

    Molecular point group: c1
  Charge       = 0
  Multiplicity = 1
  Basis Set: AUG-CC-PVTZ
    Blend: AUG-CC-PVTZ
  Basis Set: (AUG-CC-PVTZ AUX)
    Blend: AUG-CC-PVTZ-JKFIT

    Orbital Energies [Eh]
    ---------------------

    Doubly Occupied:

       1A    -20.514360     2A    -15.580180     3A    -11.343280
       4A    -11.275791     5A    -11.260581     6A    -11.244184
       7A    -11.238127     8A    -11.218570     9A     -1.367553
      10A     -1.261212    11A     -1.100106    12A     -1.004802
      13A     -0.968266    14A     -0.873201    15A     -0.823521
      16A     -0.727239    17A     -0.695275    18A     -0.671761
      19A     -0.635682    20A     -0.604322    21A     -0.585872
      22A     -0.576826    23A     -0.566142    24A     -0.557767
      25A     -0.523107    26A     -0.515958    27A     -0.512720
      28A     -0.488950    29A     -0.467451    30A     -0.407950
      31A     -0.369961

  @DF-RHF Final Energy:  -363.06326491309898

   => Energetics <=

    Nuclear Repulsion Energy =            395.0797097020308684
    One-Electron Energy =               -1276.3245147323243600
    Two-Electron Energy =                 518.1815401171945723
    Total Energy =                       -363.0632649130989194
  Basis Set: (AUG-CC-PVTZ AUX)
    Blend: AUG-CC-PVTZ-RI
    Molecular point group: c1

    Geometry (in Angstrom), charge = 0, multiplicity = 1:

       Center              X                  Y                   Z               Mass
    ------------   -----------------  -----------------  -----------------  -----------------
         O            0.007808976807     2.027130627750    -0.096556037459    15.994914619570
         N            0.253151976807    -0.261462372250    -0.340887037459    14.003074004430
         C           -0.472881023193    -1.478045372250    -0.011593037459    12.000000000000
         C           -1.932311023193    -1.002096372250    -0.030796037459    12.000000000000
         C           -1.837583423193     0.360861027750     0.389196362541    12.000000000000
         C           -0.440340023193     0.882811627750    -0.033498037459    12.000000000000
         C            1.679682976807    -0.228222372250    -0.604003037459    12.000000000000
         C            2.515842976807    -0.375153372250     0.663548962541    12.000000000000
         H           -0.188097023193    -1.865074372250     0.978365962541     1.007825032230
         H           -0.267432023193    -2.259913372250    -0.751195037459     1.007825032230
         H           -2.577226023193    -1.614846372250     0.604321962541     1.007825032230
         H           -2.314708023193    -1.052390372250    -1.054576037459     1.007825032230
         H           -1.873737023193     0.549422627750     1.510855962541     1.007825032230
         H           -2.592704023193     1.118432627750     0.001013962541     1.007825032230
         H            1.913180976807    -1.021247372250    -1.323601037459     1.007825032230
         H            1.880250976807     0.735077627750    -1.079395037459     1.007825032230
         H            2.290417976807     0.443977627750     1.350682962541     1.007825032230
         H            2.311118976807    -1.323671372250     1.167894962541     1.007825032230
         H            3.583263976807    -0.342234372250     0.424926962541     1.007825032230

  Basis Set: AUG-CC-PVTZ
    Blend: AUG-CC-PVTZ
  Basis Set: (AUG-CC-PVTZ AUX)
    Blend: AUG-CC-PVTZ-JKFIT
	 Reference Energy          =    -363.0632649130989762 [Eh]
	 Singles Energy            =      -0.0000000000000000 [Eh]
	 Same-Spin Energy          =      -0.3780604765218482 [Eh]
	 Opposite-Spin Energy      =      -1.2483211422116858 [Eh]
	 Correlation Energy        =      -1.6263816187335340 [Eh]
	 Total Energy              =    -364.6896465318325227 [Eh]

	 ================> DF-SCS-MP2 Energies <==================
	-----------------------------------------------------------
	 SCS Same-Spin Scale       =       0.3333333333333333 [-]
	 SCS Opposite-Spin Scale   =       1.2000000000000000 [-]
	 SCS Same-Spin Energy      =      -0.1260201588406160 [Eh]
	 SCS Opposite-Spin Energy  =      -1.4979853706540229 [Eh]
	 SCS Correlation Energy    =      -1.6240055294946389 [Eh]
	 SCS Total Energy          =    -364.6872704425936149 [Eh]
	-----------------------------------------------------------

  Dipole Moment: [D]
     X:    -0.4255      Y:    -3.9678      Z:     0.2192     Total:     3.9966

*** Psi4 exiting successfully. Buy a developer a beer!
