                               Psi4 1.3.2 release

  ==> Input File <==

--------------------------------------------------------------------------
#psi4
#
memory 32 gb

molecule  {
0 1
  O       -0.0101440     2.0708820    -0.1140410
  N        0.2351990    -0.2177110    -0.3583720
  C       -0.4908340    -1.4342940    -0.0290780
  C       -1.9502640    -0.9583450    -0.0482810
  C       -1.8489090     0.4999680     0.4010950
  C       -0.4582930     0.9265630    -0.0509830
  C        1.6617300    -0.1844710    -0.6214880
  C        2.4978900    -0.3314020     0.6460640
  H       -0.2060500    -1.8213230     0.9608810
  H       -0.2853850    -2.2161620    -0.7686800
  H       -2.5951790    -1.5710950     0.5868370
  H       -2.3326610    -1.0086390    -1.0720610
  H       -1.8631837     0.5677392     1.4959867
  H       -2.6106570     1.1621840    -0.0164710
  H        1.8952280    -0.9774960    -1.3410860
  H        1.8622980     0.7788290    -1.0968800
  H        2.2724650     0.4877290     1.3331980
  H        2.2931660    -1.2799200     1.1504100
  H        3.5653110    -0.2984830     0.4074420
units angstrom
no_reorient  #important for SAPT in psi4, default
symmetry c1  #important for SAPT in psi4, default
}

set PROPERTIES_ORIGIN ["COM"]
properties('MP2/aug-cc-pvtz', properties = ['dipole'])
--------------------------------------------------------------------------

    Molecular point group: c1
  Charge       = 0
  Multiplicity = 1
  Basis Set: AUG-CC-PVTZ
    Blend: AUG-CC-PVTZ
  Basis Set: (AUG-CC-PVTZ AUX)
    Blend: AUG-CC-PVTZ-JKFIT

    Orbital Energies [Eh]
    ---------------------

    Doubly Occupied:

       1A    -20.511621     2A    -15.580884     3A    -11.341206
       4A    -11.274915     5A    -11.260877     6A    -11.242293
       7A    -11.240184     8A    -11.218658     9A     -1.366884
      10A     -1.258494    11A     -1.088104    12A     -1.000533
      13A     -0.972107    14A     -0.870219    15A     -0.829060
      16A     -0.726103    17A     -0.693530    18A     -0.668036
      19A     -0.639157    20A     -0.604514    21A     -0.590547
      22A     -0.572498    23A     -0.562785    24A     -0.554810
      25A     -0.522952    26A     -0.513082    27A     -0.508776
      28A     -0.490367    29A     -0.477754    30A     -0.409262
      31A     -0.369542

  @DF-RHF Final Energy:  -363.07584788315785

   => Energetics <=

    Nuclear Repulsion Energy =            394.3453044862933439
    One-Electron Energy =               -1274.9227914789080387
    Two-Electron Energy =                 517.5016391094568462
    Total Energy =                       -363.0758478831578486
  Basis Set: (AUG-CC-PVTZ AUX)
    Blend: AUG-CC-PVTZ-RI
    Molecular point group: c1

    Geometry (in Angstrom), charge = 0, multiplicity = 1:

       Center              X                  Y                   Z               Mass
    ------------   -----------------  -----------------  -----------------  -----------------
         O            0.006851652150     2.017238576363    -0.099697411720    15.994914619570
         N            0.252194652150    -0.271354423637    -0.344028411720    14.003074004430
         C           -0.473838347850    -1.487937423637    -0.014734411720    12.000000000000
         C           -1.933268347850    -1.011988423637    -0.033937411720    12.000000000000
         C           -1.831913347850     0.446324576363     0.415438588280    12.000000000000
         C           -0.441297347850     0.872919576363    -0.036639411720    12.000000000000
         C            1.678725652150    -0.238114423637    -0.607144411720    12.000000000000
         C            2.514885652150    -0.385045423637     0.660407588280    12.000000000000
         H           -0.189054347850    -1.874966423637     0.975224588280     1.007825032230
         H           -0.268389347850    -2.269805423637    -0.754336411720     1.007825032230
         H           -2.578183347850    -1.624738423637     0.601180588280     1.007825032230
         H           -2.315665347850    -1.062282423637    -1.057717411720     1.007825032230
         H           -1.846188047850     0.514095776363     1.510330288280     1.007825032230
         H           -2.593661347850     1.108540576363    -0.002127411720     1.007825032230
         H            1.912223652150    -1.031139423637    -1.326742411720     1.007825032230
         H            1.879293652150     0.725185576363    -1.082536411720     1.007825032230
         H            2.289460652150     0.434085576363     1.347541588280     1.007825032230
         H            2.310161652150    -1.333563423637     1.164753588280     1.007825032230
         H            3.582306652150    -0.352126423637     0.421785588280     1.007825032230

  Basis Set: AUG-CC-PVTZ
    Blend: AUG-CC-PVTZ
  Basis Set: (AUG-CC-PVTZ AUX)
    Blend: AUG-CC-PVTZ-JKFIT
	 Reference Energy          =    -363.0758478831578486 [Eh]
	 Singles Energy            =      -0.0000000000000000 [Eh]
	 Same-Spin Energy          =      -0.3768045650929397 [Eh]
	 Opposite-Spin Energy      =      -1.2469582739819758 [Eh]
	 Correlation Energy        =      -1.6237628390749155 [Eh]
	 Total Energy              =    -364.6996107222327623 [Eh]

	 ================> DF-SCS-MP2 Energies <==================
	-----------------------------------------------------------
	 SCS Same-Spin Scale       =       0.3333333333333333 [-]
	 SCS Opposite-Spin Scale   =       1.2000000000000000 [-]
	 SCS Same-Spin Energy      =      -0.1256015216976465 [Eh]
	 SCS Opposite-Spin Energy  =      -1.4963499287783708 [Eh]
	 SCS Correlation Energy    =      -1.6219514504760173 [Eh]
	 SCS Total Energy          =    -364.6977993336338386 [Eh]
	-----------------------------------------------------------

  Dipole Moment: [D]
     X:    -0.4556      Y:    -3.9521      Z:     0.2489     Total:     3.9861

*** Psi4 exiting successfully. Buy a developer a beer!
