                               Psi4 1.4a3.dev225

  ==> Input File <==

--------------------------------------------------------------------------
#psi4
#
memory 32 gb

molecule  {
0 1
  O       -0.0101440     2.0708820    -0.1140410
  N        0.2351990    -0.2177110    -0.3583720
  C       -0.4908340    -1.4342940    -0.0290780
  C       -1.9502640    -0.9583450    -0.0482810
  C       -1.8489090     0.4999680     0.4010950
  C       -0.4126455     0.9405662    -0.0658226
  C        1.6617300    -0.1844710    -0.6214880
  C        2.4978900    -0.3314020     0.6460640
  H       -0.2060500    -1.8213230     0.9608810
  H       -0.2853850    -2.2161620    -0.7686800
  H       -2.5951790    -1.5710950     0.5868370
  H       -2.3326610    -1.0086390    -1.0720610
  H       -1.8916900     0.5931740     1.4933710
  H       -2.6106570     1.1621840    -0.0164710
  H        1.8952280    -0.9774960    -1.3410860
  H        1.8622980     0.7788290    -1.0968800
  H        2.2724650     0.4877290     1.3331980
  H        2.2931660    -1.2799200     1.1504100
  H        3.5653110    -0.2984830     0.4074420
units angstrom
no_reorient  #important for SAPT in psi4, default
symmetry c1  #important for SAPT in psi4, default
}

set PROPERTIES_ORIGIN ["COM"]
properties('MP2/aug-cc-pvtz', properties = ['dipole'])
--------------------------------------------------------------------------

    Molecular point group: c1
  Charge       = 0
  Multiplicity = 1
  Basis Set: AUG-CC-PVTZ
    Blend: AUG-CC-PVTZ
  Basis Set: (AUG-CC-PVTZ AUX)
    Blend: AUG-CC-PVTZ-JKFIT

    Orbital Energies [Eh]
    ---------------------

    Doubly Occupied:

       1A    -20.514866     2A    -15.580730     3A    -11.338610
       4A    -11.275538     5A    -11.261043     6A    -11.239789
       7A    -11.236261     8A    -11.219403     9A     -1.384654
      10A     -1.264705    11A     -1.083194    12A     -1.000658
      13A     -0.967137    14A     -0.869769    15A     -0.827146
      16A     -0.724931    17A     -0.693145    18A     -0.668130
      19A     -0.643157    20A     -0.604676    21A     -0.588424
      22A     -0.575831    23A     -0.564058    24A     -0.557161
      25A     -0.524262    26A     -0.513918    27A     -0.506825
      28A     -0.490991    29A     -0.481119    30A     -0.403980
      31A     -0.372716

  @DF-RHF Final Energy:  -363.07567257772803

   => Energetics <=

    Nuclear Repulsion Energy =            394.5216884919747145
    One-Electron Energy =               -1275.2410638101362110
    Two-Electron Energy =                 517.6437027404334685
    Total Energy =                       -363.0756725777280280
  Basis Set: (AUG-CC-PVTZ AUX)
    Blend: AUG-CC-PVTZ-RI
    Molecular point group: c1

    Geometry (in Angstrom), charge = 0, multiplicity = 1:

       Center              X                  Y                   Z               Mass
    ------------   -----------------  -----------------  -----------------  -----------------
         O            0.002261786708     2.015525936922    -0.098099384893    15.994914619570
         N            0.247604786708    -0.273067063078    -0.342430384893    14.003074004430
         C           -0.478428213292    -1.489650063078    -0.013136384893    12.000000000000
         C           -1.937858213292    -1.013701063078    -0.032339384893    12.000000000000
         C           -1.836503213292     0.444611936922     0.417036615107    12.000000000000
         C           -0.400239713292     0.885210136922    -0.049880984893    12.000000000000
         C            1.674135786708    -0.239827063078    -0.605546384893    12.000000000000
         C            2.510295786708    -0.386758063078     0.662005615107    12.000000000000
         H           -0.193644213292    -1.876679063078     0.976822615107     1.007825032230
         H           -0.272979213292    -2.271518063078    -0.752738384893     1.007825032230
         H           -2.582773213292    -1.626451063078     0.602778615107     1.007825032230
         H           -2.320255213292    -1.063995063078    -1.056119384893     1.007825032230
         H           -1.879284213292     0.537817936922     1.509312615107     1.007825032230
         H           -2.598251213292     1.106827936922    -0.000529384893     1.007825032230
         H            1.907633786708    -1.032852063078    -1.325144384893     1.007825032230
         H            1.874703786708     0.723472936922    -1.080938384893     1.007825032230
         H            2.284870786708     0.432372936922     1.349139615107     1.007825032230
         H            2.305571786708    -1.335276063078     1.166351615107     1.007825032230
         H            3.577716786708    -0.353839063078     0.423383615107     1.007825032230

  Basis Set: AUG-CC-PVTZ
    Blend: AUG-CC-PVTZ
  Basis Set: (AUG-CC-PVTZ AUX)
    Blend: AUG-CC-PVTZ-JKFIT
	 Reference Energy          =    -363.0756725777280280 [Eh]
	 Singles Energy            =      -0.0000000000000000 [Eh]
	 Same-Spin Energy          =      -0.3760490989145725 [Eh]
	 Opposite-Spin Energy      =      -1.2455550462636109 [Eh]
	 Correlation Energy        =      -1.6216041451781833 [Eh]
	 Total Energy              =    -364.6972767229062242 [Eh]

	 ================> DF-SCS-MP2 Energies <==================
	-----------------------------------------------------------
	 SCS Same-Spin Scale       =       0.3333333333333333 [-]
	 SCS Opposite-Spin Scale   =       1.2000000000000000 [-]
	 SCS Same-Spin Energy      =      -0.1253496996381908 [Eh]
	 SCS Opposite-Spin Energy  =      -1.4946660555163331 [Eh]
	 SCS Correlation Energy    =      -1.6200157551545240 [Eh]
	 SCS Total Energy          =    -364.6956883328825256 [Eh]
	-----------------------------------------------------------

  Dipole Moment: [D]
     X:    -0.2636      Y:    -3.8394      Z:     0.1966     Total:     3.8535

*** Psi4 exiting successfully. Buy a developer a beer!
