                               Psi4 1.3.2 release

  ==> Input File <==

--------------------------------------------------------------------------
#psi4
#
memory 32 gb

molecule  {
0 1
  O       -0.0101440     2.0708820    -0.1140410
  N        0.2486495    -0.1397877    -0.2950950
  C       -0.4908340    -1.4342940    -0.0290780
  C       -1.9502640    -0.9583450    -0.0482810
  C       -1.8489090     0.4999680     0.4010950
  C       -0.4582930     0.9265630    -0.0509830
  C        1.6617300    -0.1844710    -0.6214880
  C        2.4978900    -0.3314020     0.6460640
  H       -0.2060500    -1.8213230     0.9608810
  H       -0.2853850    -2.2161620    -0.7686800
  H       -2.5951790    -1.5710950     0.5868370
  H       -2.3326610    -1.0086390    -1.0720610
  H       -1.8916900     0.5931740     1.4933710
  H       -2.6106570     1.1621840    -0.0164710
  H        1.8952280    -0.9774960    -1.3410860
  H        1.8622980     0.7788290    -1.0968800
  H        2.2724650     0.4877290     1.3331980
  H        2.2931660    -1.2799200     1.1504100
  H        3.5653110    -0.2984830     0.4074420
units angstrom
no_reorient  #important for SAPT in psi4, default
symmetry c1  #important for SAPT in psi4, default
}

set PROPERTIES_ORIGIN ["COM"]
properties('MP2/aug-cc-pvtz', properties = ['dipole'])
--------------------------------------------------------------------------

    Molecular point group: c1
  Charge       = 0
  Multiplicity = 1
  Basis Set: AUG-CC-PVTZ
    Blend: AUG-CC-PVTZ
  Basis Set: (AUG-CC-PVTZ AUX)
    Blend: AUG-CC-PVTZ-JKFIT

    Orbital Energies [Eh]
    ---------------------

    Doubly Occupied:

       1A    -20.495169     2A    -15.584235     3A    -11.328594
       4A    -11.281950     5A    -11.263941     6A    -11.243433
       7A    -11.238135     8A    -11.219638     9A     -1.366592
      10A     -1.256096    11A     -1.089667    12A     -1.008107
      13A     -0.971815    14A     -0.872878    15A     -0.834137
      16A     -0.726723    17A     -0.692824    18A     -0.667772
      19A     -0.637338    20A     -0.610730    21A     -0.586920
      22A     -0.576568    23A     -0.559293    24A     -0.550851
      25A     -0.520849    26A     -0.517127    27A     -0.509067
      28A     -0.486511    29A     -0.476428    30A     -0.402123
      31A     -0.371457

  @DF-RHF Final Energy:  -363.07026432202190

   => Energetics <=

    Nuclear Repulsion Energy =            395.0794961098796989
    One-Electron Energy =               -1276.4055883898317916
    Two-Electron Energy =                 518.2558279579301370
    Total Energy =                       -363.0702643220218988
  Basis Set: (AUG-CC-PVTZ AUX)
    Blend: AUG-CC-PVTZ-RI
    Molecular point group: c1

    Geometry (in Angstrom), charge = 0, multiplicity = 1:

       Center              X                  Y                   Z               Mass
    ------------   -----------------  -----------------  -----------------  -----------------
         O            0.005440144829     2.007362741295    -0.107509620751    15.994914619570
         N            0.264233644829    -0.203306958705    -0.288563620751    14.003074004430
         C           -0.475249855171    -1.497813258705    -0.022546620751    12.000000000000
         C           -1.934679855171    -1.021864258705    -0.041749620751    12.000000000000
         C           -1.833324855171     0.436448741295     0.407626379249    12.000000000000
         C           -0.442708855171     0.863043741295    -0.044451620751    12.000000000000
         C            1.677314144829    -0.247990258705    -0.614956620751    12.000000000000
         C            2.513474144829    -0.394921258705     0.652595379249    12.000000000000
         H           -0.190465855171    -1.884842258705     0.967412379249     1.007825032230
         H           -0.269800855171    -2.279681258705    -0.762148620751     1.007825032230
         H           -2.579594855171    -1.634614258705     0.593368379249     1.007825032230
         H           -2.317076855171    -1.072158258705    -1.065529620751     1.007825032230
         H           -1.876105855171     0.529654741295     1.499902379249     1.007825032230
         H           -2.595072855171     1.098664741295    -0.009939620751     1.007825032230
         H            1.910812144829    -1.041015258705    -1.334554620751     1.007825032230
         H            1.877882144829     0.715309741295    -1.090348620751     1.007825032230
         H            2.288049144829     0.424209741295     1.339729379249     1.007825032230
         H            2.308750144829    -1.343439258705     1.156941379249     1.007825032230
         H            3.580895144829    -0.362002258705     0.413973379249     1.007825032230

  Basis Set: AUG-CC-PVTZ
    Blend: AUG-CC-PVTZ
  Basis Set: (AUG-CC-PVTZ AUX)
    Blend: AUG-CC-PVTZ-JKFIT
	 Reference Energy          =    -363.0702643220218988 [Eh]
	 Singles Energy            =      -0.0000000000000000 [Eh]
	 Same-Spin Energy          =      -0.3762765279177007 [Eh]
	 Opposite-Spin Energy      =      -1.2461670437178411 [Eh]
	 Correlation Energy        =      -1.6224435716355419 [Eh]
	 Total Energy              =    -364.6927078936574276 [Eh]

	 ================> DF-SCS-MP2 Energies <==================
	-----------------------------------------------------------
	 SCS Same-Spin Scale       =       0.3333333333333333 [-]
	 SCS Opposite-Spin Scale   =       1.2000000000000000 [-]
	 SCS Same-Spin Energy      =      -0.1254255093059002 [Eh]
	 SCS Opposite-Spin Energy  =      -1.4954004524614093 [Eh]
	 SCS Correlation Energy    =      -1.6208259617673095 [Eh]
	 SCS Total Energy          =    -364.6910902837892081 [Eh]
	-----------------------------------------------------------

  Dipole Moment: [D]
     X:    -0.3963      Y:    -4.4218      Z:     0.1403     Total:     4.4418

*** Psi4 exiting successfully. Buy a developer a beer!
