                               Psi4 1.3.2 release

  ==> Input File <==

--------------------------------------------------------------------------
#psi4
#
memory 32 gb

molecule  {
0 1
  O       -0.0101440     2.0708820    -0.1140410
  N        0.2159318    -0.2307048    -0.3525361
  C       -0.4908340    -1.4342940    -0.0290780
  C       -1.9502640    -0.9583450    -0.0482810
  C       -1.8489090     0.4999680     0.4010950
  C       -0.4582930     0.9265630    -0.0509830
  C        1.6617300    -0.1844710    -0.6214880
  C        2.4978900    -0.3314020     0.6460640
  H       -0.2060500    -1.8213230     0.9608810
  H       -0.2853850    -2.2161620    -0.7686800
  H       -2.5951790    -1.5710950     0.5868370
  H       -2.3326610    -1.0086390    -1.0720610
  H       -1.8916900     0.5931740     1.4933710
  H       -2.6106570     1.1621840    -0.0164710
  H        1.8952280    -0.9774960    -1.3410860
  H        1.8622980     0.7788290    -1.0968800
  H        2.2724650     0.4877290     1.3331980
  H        2.2931660    -1.2799200     1.1504100
  H        3.5653110    -0.2984830     0.4074420
units angstrom
no_reorient  #important for SAPT in psi4, default
symmetry c1  #important for SAPT in psi4, default
}

set PROPERTIES_ORIGIN ["COM"]
properties('MP2/aug-cc-pvtz', properties = ['dipole'])
--------------------------------------------------------------------------

    Molecular point group: c1
  Charge       = 0
  Multiplicity = 1
  Basis Set: AUG-CC-PVTZ
    Blend: AUG-CC-PVTZ
  Basis Set: (AUG-CC-PVTZ AUX)
    Blend: AUG-CC-PVTZ-JKFIT

    Orbital Energies [Eh]
    ---------------------

    Doubly Occupied:

       1A    -20.512688     2A    -15.581237     3A    -11.341646
       4A    -11.273144     5A    -11.262891     6A    -11.241529
       7A    -11.238715     8A    -11.219590     9A     -1.367099
      10A     -1.261248    11A     -1.085255    12A     -1.001308
      13A     -0.973663    14A     -0.868362    15A     -0.829559
      16A     -0.726767    17A     -0.694042    18A     -0.669011
      19A     -0.638962    20A     -0.603669    21A     -0.589810
      22A     -0.574875    23A     -0.561019    24A     -0.554609
      25A     -0.522414    26A     -0.512555    27A     -0.509215
      28A     -0.491186    29A     -0.477280    30A     -0.409339
      31A     -0.370174

  @DF-RHF Final Energy:  -363.07507632974404

   => Energetics <=

    Nuclear Repulsion Energy =            394.3633912875101828
    One-Electron Energy =               -1274.9512161666741576
    Two-Electron Energy =                 517.5127485494198254
    Total Energy =                       -363.0750763297440926
  Basis Set: (AUG-CC-PVTZ AUX)
    Blend: AUG-CC-PVTZ-RI
    Molecular point group: c1

    Geometry (in Angstrom), charge = 0, multiplicity = 1:

       Center              X                  Y                   Z               Mass
    ------------   -----------------  -----------------  -----------------  -----------------
         O            0.009491541270     2.018620904778    -0.100396753156    15.994914619570
         N            0.235567341270    -0.282965895222    -0.338891853156    14.003074004430
         C           -0.471198458730    -1.486555095222    -0.015433753156    12.000000000000
         C           -1.930628458730    -1.010606095222    -0.034636753156    12.000000000000
         C           -1.829273458730     0.447706904778     0.414739246844    12.000000000000
         C           -0.438657458730     0.874301904778    -0.037338753156    12.000000000000
         C            1.681365541270    -0.236732095222    -0.607843753156    12.000000000000
         C            2.517525541270    -0.383663095222     0.659708246844    12.000000000000
         H           -0.186414458730    -1.873584095222     0.974525246844     1.007825032230
         H           -0.265749458730    -2.268423095222    -0.755035753156     1.007825032230
         H           -2.575543458730    -1.623356095222     0.600481246844     1.007825032230
         H           -2.313025458730    -1.060900095222    -1.058416753156     1.007825032230
         H           -1.872054458730     0.540912904778     1.507015246844     1.007825032230
         H           -2.591021458730     1.109922904778    -0.002826753156     1.007825032230
         H            1.914863541270    -1.029757095222    -1.327441753156     1.007825032230
         H            1.881933541270     0.726567904778    -1.083235753156     1.007825032230
         H            2.292100541270     0.435467904778     1.346842246844     1.007825032230
         H            2.312801541270    -1.332181095222     1.164054246844     1.007825032230
         H            3.584946541270    -0.350744095222     0.421086246844     1.007825032230

  Basis Set: AUG-CC-PVTZ
    Blend: AUG-CC-PVTZ
  Basis Set: (AUG-CC-PVTZ AUX)
    Blend: AUG-CC-PVTZ-JKFIT
	 Reference Energy          =    -363.0750763297440358 [Eh]
	 Singles Energy            =      -0.0000000000000000 [Eh]
	 Same-Spin Energy          =      -0.3768751800673556 [Eh]
	 Opposite-Spin Energy      =      -1.2470291275398560 [Eh]
	 Correlation Energy        =      -1.6239043076072115 [Eh]
	 Total Energy              =    -364.6989806373512693 [Eh]

	 ================> DF-SCS-MP2 Energies <==================
	-----------------------------------------------------------
	 SCS Same-Spin Scale       =       0.3333333333333333 [-]
	 SCS Opposite-Spin Scale   =       1.2000000000000000 [-]
	 SCS Same-Spin Energy      =      -0.1256250600224519 [Eh]
	 SCS Opposite-Spin Energy  =      -1.4964349530478271 [Eh]
	 SCS Correlation Energy    =      -1.6220600130702789 [Eh]
	 SCS Total Energy          =    -364.6971363428143036 [Eh]
	-----------------------------------------------------------

  Dipole Moment: [D]
     X:    -0.3892      Y:    -3.9128      Z:     0.2362     Total:     3.9392

*** Psi4 exiting successfully. Buy a developer a beer!
