                               Psi4 1.3.2 release

  ==> Input File <==

--------------------------------------------------------------------------
#psi4
#
memory 32 gb

molecule  {
0 1
  O       -0.0101440     2.0708820    -0.1140410
  N        0.2351990    -0.2177110    -0.3583720
  C       -0.4908340    -1.4342940    -0.0290780
  C       -1.9995251    -0.9602540    -0.0278048
  C       -1.8489090     0.4999680     0.4010950
  C       -0.4582930     0.9265630    -0.0509830
  C        1.6617300    -0.1844710    -0.6214880
  C        2.4978900    -0.3314020     0.6460640
  H       -0.2060500    -1.8213230     0.9608810
  H       -0.2853850    -2.2161620    -0.7686800
  H       -2.5951790    -1.5710950     0.5868370
  H       -2.3326610    -1.0086390    -1.0720610
  H       -1.8916900     0.5931740     1.4933710
  H       -2.6106570     1.1621840    -0.0164710
  H        1.8952280    -0.9774960    -1.3410860
  H        1.8622980     0.7788290    -1.0968800
  H        2.2724650     0.4877290     1.3331980
  H        2.2931660    -1.2799200     1.1504100
  H        3.5653110    -0.2984830     0.4074420
units angstrom
no_reorient  #important for SAPT in psi4, default
symmetry c1  #important for SAPT in psi4, default
}

set PROPERTIES_ORIGIN ["COM"]
properties('MP2/aug-cc-pvtz', properties = ['dipole'])
--------------------------------------------------------------------------

    Molecular point group: c1
  Charge       = 0
  Multiplicity = 1
  Basis Set: AUG-CC-PVTZ
    Blend: AUG-CC-PVTZ
  Basis Set: (AUG-CC-PVTZ AUX)
    Blend: AUG-CC-PVTZ-JKFIT

    Orbital Energies [Eh]
    ---------------------

    Doubly Occupied:

       1A    -20.512147     2A    -15.581154     3A    -11.342054
       4A    -11.276265     5A    -11.261105     6A    -11.242151
       7A    -11.240288     8A    -11.218557     9A     -1.366959
      10A     -1.256531    11A     -1.085301    12A     -1.001343
      13A     -0.967689    14A     -0.871856    15A     -0.831794
      16A     -0.725727    17A     -0.692601    18A     -0.665002
      19A     -0.641046    20A     -0.606576    21A     -0.588940
      22A     -0.571860    23A     -0.564226    24A     -0.558695
      25A     -0.526550    26A     -0.512907    27A     -0.503363
      28A     -0.484943    29A     -0.477120    30A     -0.411218
      31A     -0.369059

  @DF-RHF Final Energy:  -363.07334284419363

   => Energetics <=

    Nuclear Repulsion Energy =            393.4927424818538384
    One-Electron Energy =               -1273.2221257718958896
    Two-Electron Energy =                 516.6560404458484754
    Total Energy =                       -363.0733428441935757
  Basis Set: (AUG-CC-PVTZ AUX)
    Blend: AUG-CC-PVTZ-RI
    Molecular point group: c1

    Geometry (in Angstrom), charge = 0, multiplicity = 1:

       Center              X                  Y                   Z               Mass
    ------------   -----------------  -----------------  -----------------  -----------------
         O            0.012333083758     2.017214471922    -0.101846947415    15.994914619570
         N            0.257676083758    -0.271378528078    -0.346177947415    14.003074004430
         C           -0.468356916242    -1.487961528078    -0.016883947415    12.000000000000
         C           -1.977048016242    -1.013921528078    -0.015610747415    12.000000000000
         C           -1.826431916242     0.446300471922     0.413289052585    12.000000000000
         C           -0.435815916242     0.872895471922    -0.038788947415    12.000000000000
         C            1.684207083758    -0.238138528078    -0.609293947415    12.000000000000
         C            2.520367083758    -0.385069528078     0.658258052585    12.000000000000
         H           -0.183572916242    -1.874990528078     0.973075052585     1.007825032230
         H           -0.262907916242    -2.269829528078    -0.756485947415     1.007825032230
         H           -2.572701916242    -1.624762528078     0.599031052585     1.007825032230
         H           -2.310183916242    -1.062306528078    -1.059866947415     1.007825032230
         H           -1.869212916242     0.539506471922     1.505565052585     1.007825032230
         H           -2.588179916242     1.108516471922    -0.004276947415     1.007825032230
         H            1.917705083758    -1.031163528078    -1.328891947415     1.007825032230
         H            1.884775083758     0.725161471922    -1.084685947415     1.007825032230
         H            2.294942083758     0.434061471922     1.345392052585     1.007825032230
         H            2.315643083758    -1.333587528078     1.162604052585     1.007825032230
         H            3.587788083758    -0.352150528078     0.419636052585     1.007825032230

  Basis Set: AUG-CC-PVTZ
    Blend: AUG-CC-PVTZ
  Basis Set: (AUG-CC-PVTZ AUX)
    Blend: AUG-CC-PVTZ-JKFIT
	 Reference Energy          =    -363.0733428441936326 [Eh]
	 Singles Energy            =      -0.0000000000000000 [Eh]
	 Same-Spin Energy          =      -0.3766599571753084 [Eh]
	 Opposite-Spin Energy      =      -1.2470078580098278 [Eh]
	 Correlation Energy        =      -1.6236678151851363 [Eh]
	 Total Energy              =    -364.6970106593787477 [Eh]

	 ================> DF-SCS-MP2 Energies <==================
	-----------------------------------------------------------
	 SCS Same-Spin Scale       =       0.3333333333333333 [-]
	 SCS Opposite-Spin Scale   =       1.2000000000000000 [-]
	 SCS Same-Spin Energy      =      -0.1255533190584361 [Eh]
	 SCS Opposite-Spin Energy  =      -1.4964094296117934 [Eh]
	 SCS Correlation Energy    =      -1.6219627486702295 [Eh]
	 SCS Total Energy          =    -364.6953055928638605 [Eh]
	-----------------------------------------------------------

  Dipole Moment: [D]
     X:    -0.4678      Y:    -3.9539      Z:     0.2658     Total:     3.9903

*** Psi4 exiting successfully. Buy a developer a beer!
