                               Psi4 1.3.2 release

  ==> Input File <==

--------------------------------------------------------------------------
#psi4
#
memory 32 gb

molecule  {
0 1
  O       -0.0101440     2.0708820    -0.1140410
  N        0.2351990    -0.2177110    -0.3583720
  C       -0.4908340    -1.4342940    -0.0290780
  C       -1.9502640    -0.9583450    -0.0482810
  C       -1.8489090     0.4999680     0.4010950
  C       -0.4582930     0.9265630    -0.0509830
  C        1.4650992    -0.1890527    -0.5852205
  C        2.4978900    -0.3314020     0.6460640
  H       -0.2060500    -1.8213230     0.9608810
  H       -0.2853850    -2.2161620    -0.7686800
  H       -2.5951790    -1.5710950     0.5868370
  H       -2.3326610    -1.0086390    -1.0720610
  H       -1.8916900     0.5931740     1.4933710
  H       -2.6106570     1.1621840    -0.0164710
  H        1.8952280    -0.9774960    -1.3410860
  H        1.8622980     0.7788290    -1.0968800
  H        2.2724650     0.4877290     1.3331980
  H        2.2931660    -1.2799200     1.1504100
  H        3.5653110    -0.2984830     0.4074420
units angstrom
no_reorient  #important for SAPT in psi4, default
symmetry c1  #important for SAPT in psi4, default
}

set PROPERTIES_ORIGIN ["COM"]
properties('MP2/aug-cc-pvtz', properties = ['dipole'])
--------------------------------------------------------------------------

    Molecular point group: c1
  Charge       = 0
  Multiplicity = 1
  Basis Set: AUG-CC-PVTZ
    Blend: AUG-CC-PVTZ
  Basis Set: (AUG-CC-PVTZ AUX)
    Blend: AUG-CC-PVTZ-JKFIT

    Orbital Energies [Eh]
    ---------------------

    Doubly Occupied:

       1A    -20.522252     2A    -15.585643     3A    -11.350306
       4A    -11.282067     5A    -11.260603     6A    -11.247991
       7A    -11.246124     8A    -11.213121     9A     -1.385996
      10A     -1.301367    11A     -1.108936    12A     -0.982495
      13A     -0.979488    14A     -0.889064    15A     -0.841218
      16A     -0.732373    17A     -0.708775    18A     -0.678320
      19A     -0.648182    20A     -0.608539    21A     -0.591700
      22A     -0.583110    23A     -0.568232    24A     -0.556026
      25A     -0.535183    26A     -0.514632    27A     -0.496927
      28A     -0.480728    29A     -0.455684    30A     -0.418667
      31A     -0.356905

  @DF-RHF Final Energy:  -363.02596909036288

   => Energetics <=

    Nuclear Repulsion Energy =            397.8480236699973602
    One-Electron Energy =               -1281.4866800874010551
    Two-Electron Energy =                 520.6126873270408169
    Total Energy =                       -363.0259690903628780
  Basis Set: (AUG-CC-PVTZ AUX)
    Blend: AUG-CC-PVTZ-RI
    Molecular point group: c1

    Geometry (in Angstrom), charge = 0, multiplicity = 1:

       Center              X                  Y                   Z               Mass
    ------------   -----------------  -----------------  -----------------  -----------------
         O            0.027971329660     2.017498087481    -0.103522653022    15.994914619570
         N            0.273314329660    -0.271094912519    -0.347853653022    14.003074004430
         C           -0.452718670340    -1.487677912519    -0.018559653022    12.000000000000
         C           -1.912148670340    -1.011728912519    -0.037762653022    12.000000000000
         C           -1.810793670340     0.446584087481     0.411613346978    12.000000000000
         C           -0.420177670340     0.873179087481    -0.040464653022    12.000000000000
         C            1.503214529660    -0.242436612519    -0.574702153022    12.000000000000
         C            2.536005329660    -0.384785912519     0.656582346978    12.000000000000
         H           -0.167934670340    -1.874706912519     0.971399346978     1.007825032230
         H           -0.247269670340    -2.269545912519    -0.758161653022     1.007825032230
         H           -2.557063670340    -1.624478912519     0.597355346978     1.007825032230
         H           -2.294545670340    -1.062022912519    -1.061542653022     1.007825032230
         H           -1.853574670340     0.539790087481     1.503889346978     1.007825032230
         H           -2.572541670340     1.108800087481    -0.005952653022     1.007825032230
         H            1.933343329660    -1.030879912519    -1.330567653022     1.007825032230
         H            1.900413329660     0.725445087481    -1.086361653022     1.007825032230
         H            2.310580329660     0.434345087481     1.343716346978     1.007825032230
         H            2.331281329660    -1.333303912519     1.160928346978     1.007825032230
         H            3.603426329660    -0.351866912519     0.417960346978     1.007825032230

  Basis Set: AUG-CC-PVTZ
    Blend: AUG-CC-PVTZ
  Basis Set: (AUG-CC-PVTZ AUX)
    Blend: AUG-CC-PVTZ-JKFIT
	 Reference Energy          =    -363.0259690903628780 [Eh]
	 Singles Energy            =      -0.0000000000000000 [Eh]
	 Same-Spin Energy          =      -0.3796053283106943 [Eh]
	 Opposite-Spin Energy      =      -1.2501025656036504 [Eh]
	 Correlation Energy        =      -1.6297078939143448 [Eh]
	 Total Energy              =    -364.6556769842772496 [Eh]

	 ================> DF-SCS-MP2 Energies <==================
	-----------------------------------------------------------
	 SCS Same-Spin Scale       =       0.3333333333333333 [-]
	 SCS Opposite-Spin Scale   =       1.2000000000000000 [-]
	 SCS Same-Spin Energy      =      -0.1265351094368981 [Eh]
	 SCS Opposite-Spin Energy  =      -1.5001230787243804 [Eh]
	 SCS Correlation Energy    =      -1.6266581881612785 [Eh]
	 SCS Total Energy          =    -364.6526272785241645 [Eh]
	-----------------------------------------------------------

  Dipole Moment: [D]
     X:    -1.2032      Y:    -3.7735      Z:     0.3263     Total:     3.9741

*** Psi4 exiting successfully. Buy a developer a beer!
