                               Psi4 1.3.2 release

  ==> Input File <==

--------------------------------------------------------------------------
#psi4
#
memory 32 gb

molecule  {
0 1
  O       -0.0101440     2.0708820    -0.1140410
  N        0.2730939    -0.1906817    -0.3697612
  C       -0.4908340    -1.4342940    -0.0290780
  C       -1.9502640    -0.9583450    -0.0482810
  C       -1.8489090     0.4999680     0.4010950
  C       -0.4582930     0.9265630    -0.0509830
  C        1.6617300    -0.1844710    -0.6214880
  C        2.4978900    -0.3314020     0.6460640
  H       -0.2060500    -1.8213230     0.9608810
  H       -0.2853850    -2.2161620    -0.7686800
  H       -2.5951790    -1.5710950     0.5868370
  H       -2.3326610    -1.0086390    -1.0720610
  H       -1.8916900     0.5931740     1.4933710
  H       -2.6106570     1.1621840    -0.0164710
  H        1.8952280    -0.9774960    -1.3410860
  H        1.8622980     0.7788290    -1.0968800
  H        2.2724650     0.4877290     1.3331980
  H        2.2931660    -1.2799200     1.1504100
  H        3.5653110    -0.2984830     0.4074420
units angstrom
no_reorient  #important for SAPT in psi4, default
symmetry c1  #important for SAPT in psi4, default
}

set PROPERTIES_ORIGIN ["COM"]
properties('MP2/aug-cc-pvtz', properties = ['dipole'])
--------------------------------------------------------------------------

    Molecular point group: c1
  Charge       = 0
  Multiplicity = 1
  Basis Set: AUG-CC-PVTZ
    Blend: AUG-CC-PVTZ
  Basis Set: (AUG-CC-PVTZ AUX)
    Blend: AUG-CC-PVTZ-JKFIT

    Orbital Energies [Eh]
    ---------------------

    Doubly Occupied:

       1A    -20.509541     2A    -15.580314     3A    -11.341062
       4A    -11.278200     5A    -11.256974     6A    -11.244288
       7A    -11.242495     8A    -11.216774     9A     -1.366701
      10A     -1.254422    11A     -1.092980    12A     -0.998972
      13A     -0.969242    14A     -0.874315    15A     -0.829392
      16A     -0.725690    17A     -0.691889    18A     -0.665414
      19A     -0.640599    20A     -0.607092    21A     -0.589415
      22A     -0.570606    23A     -0.563283    24A     -0.554812
      25A     -0.524184    26A     -0.514186    27A     -0.509300
      28A     -0.487220    29A     -0.477522    30A     -0.409132
      31A     -0.367670

  @DF-RHF Final Energy:  -363.07324080267819

   => Energetics <=

    Nuclear Repulsion Energy =            394.1697578632307000
    One-Electron Energy =               -1274.5786245534575301
    Two-Electron Energy =                 517.3356258875486446
    Total Energy =                       -363.0732408026782423
  Basis Set: (AUG-CC-PVTZ AUX)
    Blend: AUG-CC-PVTZ-RI
    Molecular point group: c1

    Geometry (in Angstrom), charge = 0, multiplicity = 1:

       Center              X                  Y                   Z               Mass
    ------------   -----------------  -----------------  -----------------  -----------------
         O            0.002413221935     2.013664888771    -0.098263788160    15.994914619570
         N            0.285651121935    -0.247898811229    -0.353983988160    14.003074004430
         C           -0.478276778065    -1.491511111229    -0.013300788160    12.000000000000
         C           -1.937706778065    -1.015562111229    -0.032503788160    12.000000000000
         C           -1.836351778065     0.442750888771     0.416872211840    12.000000000000
         C           -0.445735778065     0.869345888771    -0.035205788160    12.000000000000
         C            1.674287221935    -0.241688111229    -0.605710788160    12.000000000000
         C            2.510447221935    -0.388619111229     0.661841211840    12.000000000000
         H           -0.193492778065    -1.878540111229     0.976658211840     1.007825032230
         H           -0.272827778065    -2.273379111229    -0.752902788160     1.007825032230
         H           -2.582621778065    -1.628312111229     0.602614211840     1.007825032230
         H           -2.320103778065    -1.065856111229    -1.056283788160     1.007825032230
         H           -1.879132778065     0.535956888771     1.509148211840     1.007825032230
         H           -2.598099778065     1.104966888771    -0.000693788160     1.007825032230
         H            1.907785221935    -1.034713111229    -1.325308788160     1.007825032230
         H            1.874855221935     0.721611888771    -1.081102788160     1.007825032230
         H            2.285022221935     0.430511888771     1.348975211840     1.007825032230
         H            2.305723221935    -1.337137111229     1.166187211840     1.007825032230
         H            3.577868221935    -0.355700111229     0.423219211840     1.007825032230

  Basis Set: AUG-CC-PVTZ
    Blend: AUG-CC-PVTZ
  Basis Set: (AUG-CC-PVTZ AUX)
    Blend: AUG-CC-PVTZ-JKFIT
	 Reference Energy          =    -363.0732408026781854 [Eh]
	 Singles Energy            =      -0.0000000000000000 [Eh]
	 Same-Spin Energy          =      -0.3768080304656476 [Eh]
	 Opposite-Spin Energy      =      -1.2470814730975437 [Eh]
	 Correlation Energy        =      -1.6238895035631913 [Eh]
	 Total Energy              =    -364.6971303062413767 [Eh]

	 ================> DF-SCS-MP2 Energies <==================
	-----------------------------------------------------------
	 SCS Same-Spin Scale       =       0.3333333333333333 [-]
	 SCS Opposite-Spin Scale   =       1.2000000000000000 [-]
	 SCS Same-Spin Energy      =      -0.1256026768218825 [Eh]
	 SCS Opposite-Spin Energy  =      -1.4964977677170523 [Eh]
	 SCS Correlation Energy    =      -1.6221004445389349 [Eh]
	 SCS Total Energy          =    -364.6953412472171294 [Eh]
	-----------------------------------------------------------

  Dipole Moment: [D]
     X:    -0.6103      Y:    -4.0095      Z:     0.2864     Total:     4.0658

*** Psi4 exiting successfully. Buy a developer a beer!
