                               Psi4 1.4a3.dev225

  ==> Input File <==

--------------------------------------------------------------------------
#psi4
#
memory 32 gb

molecule  {
0 1
  O       -0.0101440     2.0708820    -0.1140410
  N        0.2351990    -0.2177110    -0.3583720
  C       -0.4908340    -1.4342940    -0.0290780
  C       -1.9027317    -0.9738462    -0.0476556
  C       -1.8489090     0.4999680     0.4010950
  C       -0.4582930     0.9265630    -0.0509830
  C        1.6617300    -0.1844710    -0.6214880
  C        2.4978900    -0.3314020     0.6460640
  H       -0.2060500    -1.8213230     0.9608810
  H       -0.2853850    -2.2161620    -0.7686800
  H       -2.5951790    -1.5710950     0.5868370
  H       -2.3326610    -1.0086390    -1.0720610
  H       -1.8916900     0.5931740     1.4933710
  H       -2.6106570     1.1621840    -0.0164710
  H        1.8952280    -0.9774960    -1.3410860
  H        1.8622980     0.7788290    -1.0968800
  H        2.2724650     0.4877290     1.3331980
  H        2.2931660    -1.2799200     1.1504100
  H        3.5653110    -0.2984830     0.4074420
units angstrom
no_reorient  #important for SAPT in psi4, default
symmetry c1  #important for SAPT in psi4, default
}

set PROPERTIES_ORIGIN ["COM"]
properties('MP2/aug-cc-pvtz', properties = ['dipole'])
--------------------------------------------------------------------------

    Molecular point group: c1
  Charge       = 0
  Multiplicity = 1
  Basis Set: AUG-CC-PVTZ
    Blend: AUG-CC-PVTZ
  Basis Set: (AUG-CC-PVTZ AUX)
    Blend: AUG-CC-PVTZ-JKFIT

    Orbital Energies [Eh]
    ---------------------

    Doubly Occupied:

       1A    -20.511284     2A    -15.581136     3A    -11.341026
       4A    -11.273275     5A    -11.260953     6A    -11.243469
       7A    -11.240487     8A    -11.218789     9A     -1.366941
      10A     -1.260686    11A     -1.089982    12A     -0.999545
      13A     -0.977441    14A     -0.868910    15A     -0.827320
      16A     -0.727369    17A     -0.694289    18A     -0.669863
      19A     -0.638978    20A     -0.603192    21A     -0.589404
      22A     -0.572561    23A     -0.563682    24A     -0.553081
      25A     -0.520678    26A     -0.517715    27A     -0.510234
      28A     -0.493215    29A     -0.473428    30A     -0.407879
      31A     -0.370022

  @DF-RHF Final Energy:  -363.07327742259969

   => Energetics <=

    Nuclear Repulsion Energy =            394.9198149217663172
    One-Electron Energy =               -1276.0525174131275890
    Two-Electron Energy =                 518.0594250687615840
    Total Energy =                       -363.0732774225996309
  Basis Set: (AUG-CC-PVTZ AUX)
    Blend: AUG-CC-PVTZ-RI
    Molecular point group: c1

    Geometry (in Angstrom), charge = 0, multiplicity = 1:

       Center              X                  Y                   Z               Mass
    ------------   -----------------  -----------------  -----------------  -----------------
         O            0.002061779747     2.018656818388    -0.099740464931    15.994914619570
         N            0.247404779747    -0.269936181612    -0.344071464931    14.003074004430
         C           -0.478628220253    -1.486519181612    -0.014777464931    12.000000000000
         C           -1.890525920253    -1.026071381612    -0.033355064931    12.000000000000
         C           -1.836703220253     0.447742818388     0.415395535069    12.000000000000
         C           -0.446087220253     0.874337818388    -0.036682464931    12.000000000000
         C            1.673935779747    -0.236696181612    -0.607187464931    12.000000000000
         C            2.510095779747    -0.383627181612     0.660364535069    12.000000000000
         H           -0.193844220253    -1.873548181612     0.975181535069     1.007825032230
         H           -0.273179220253    -2.268387181612    -0.754379464931     1.007825032230
         H           -2.582973220253    -1.623320181612     0.601137535069     1.007825032230
         H           -2.320455220253    -1.060864181612    -1.057760464931     1.007825032230
         H           -1.879484220253     0.540948818388     1.507671535069     1.007825032230
         H           -2.598451220253     1.109958818388    -0.002170464931     1.007825032230
         H            1.907433779747    -1.029721181612    -1.326785464931     1.007825032230
         H            1.874503779747     0.726603818388    -1.082579464931     1.007825032230
         H            2.284670779747     0.435503818388     1.347498535069     1.007825032230
         H            2.305371779747    -1.332145181612     1.164710535069     1.007825032230
         H            3.577516779747    -0.350708181612     0.421742535069     1.007825032230

  Basis Set: AUG-CC-PVTZ
    Blend: AUG-CC-PVTZ
  Basis Set: (AUG-CC-PVTZ AUX)
    Blend: AUG-CC-PVTZ-JKFIT
	 Reference Energy          =    -363.0732774225996877 [Eh]
	 Singles Energy            =      -0.0000000000000000 [Eh]
	 Same-Spin Energy          =      -0.3770291250717291 [Eh]
	 Opposite-Spin Energy      =      -1.2471387515463379 [Eh]
	 Correlation Energy        =      -1.6241678766180669 [Eh]
	 Total Energy              =    -364.6974452992177476 [Eh]

	 ================> DF-SCS-MP2 Energies <==================
	-----------------------------------------------------------
	 SCS Same-Spin Scale       =       0.3333333333333333 [-]
	 SCS Opposite-Spin Scale   =       1.2000000000000000 [-]
	 SCS Same-Spin Energy      =      -0.1256763750239097 [Eh]
	 SCS Opposite-Spin Energy  =      -1.4965665018556054 [Eh]
	 SCS Correlation Energy    =      -1.6222428768795150 [Eh]
	 SCS Total Energy          =    -364.6955202994791989 [Eh]
	-----------------------------------------------------------

  Dipole Moment: [D]
     X:    -0.4560      Y:    -3.9400      Z:     0.2562     Total:     3.9745

*** Psi4 exiting successfully. Buy a developer a beer!
