                               Psi4 1.3.2 release

  ==> Input File <==

--------------------------------------------------------------------------
#psi4
#
memory 32 gb

molecule  {
0 1
  O       -0.0101440     2.0708820    -0.1140410
  N        0.2351990    -0.2177110    -0.3583720
  C       -0.4908340    -1.4342940    -0.0290780
  C       -1.8647906    -0.9790248     0.0122292
  C       -1.8489090     0.4999680     0.4010950
  C       -0.4582930     0.9265630    -0.0509830
  C        1.6617300    -0.1844710    -0.6214880
  C        2.4978900    -0.3314020     0.6460640
  H       -0.2060500    -1.8213230     0.9608810
  H       -0.2853850    -2.2161620    -0.7686800
  H       -2.5951790    -1.5710950     0.5868370
  H       -2.3326610    -1.0086390    -1.0720610
  H       -1.8916900     0.5931740     1.4933710
  H       -2.6106570     1.1621840    -0.0164710
  H        1.8952280    -0.9774960    -1.3410860
  H        1.8622980     0.7788290    -1.0968800
  H        2.2724650     0.4877290     1.3331980
  H        2.2931660    -1.2799200     1.1504100
  H        3.5653110    -0.2984830     0.4074420
units angstrom
no_reorient  #important for SAPT in psi4, default
symmetry c1  #important for SAPT in psi4, default
}

set PROPERTIES_ORIGIN ["COM"]
properties('MP2/aug-cc-pvtz', properties = ['dipole'])
--------------------------------------------------------------------------

    Molecular point group: c1
  Charge       = 0
  Multiplicity = 1
  Basis Set: AUG-CC-PVTZ
    Blend: AUG-CC-PVTZ
  Basis Set: (AUG-CC-PVTZ AUX)
    Blend: AUG-CC-PVTZ-JKFIT

    Orbital Energies [Eh]
    ---------------------

    Doubly Occupied:

       1A    -20.511576     2A    -15.581946     3A    -11.341656
       4A    -11.272357     5A    -11.261390     6A    -11.246197
       7A    -11.240945     8A    -11.218980     9A     -1.367588
      10A     -1.263143    11A     -1.094325    12A     -1.000184
      13A     -0.982397    14A     -0.868526    15A     -0.824055
      16A     -0.729448    17A     -0.695415    18A     -0.672216
      19A     -0.639658    20A     -0.603096    21A     -0.588583
      22A     -0.572613    23A     -0.563066    24A     -0.557978
      25A     -0.530571    26A     -0.517741    27A     -0.508530
      28A     -0.494062    29A     -0.458781    30A     -0.408441
      31A     -0.370429

  @DF-RHF Final Energy:  -363.06375969599992

   => Energetics <=

    Nuclear Repulsion Energy =            395.5702757352893855
    One-Electron Energy =               -1277.2962863566019678
    Two-Electron Energy =                 518.6622509253126054
    Total Energy =                       -363.0637596959999200
  Basis Set: (AUG-CC-PVTZ AUX)
    Blend: AUG-CC-PVTZ-RI
    Molecular point group: c1

    Geometry (in Angstrom), charge = 0, multiplicity = 1:

       Center              X                  Y                   Z               Mass
    ------------   -----------------  -----------------  -----------------  -----------------
         O           -0.001964368448     2.019206349399    -0.106095185258    15.994914619570
         N            0.243378631552    -0.269386650601    -0.350426185258    14.003074004430
         C           -0.482654368448    -1.485969650601    -0.021132185258    12.000000000000
         C           -1.856610968448    -1.030700450601     0.020175014742    12.000000000000
         C           -1.840729368448     0.448292349399     0.409040814742    12.000000000000
         C           -0.450113368448     0.874887349399    -0.043037185258    12.000000000000
         C            1.669909631552    -0.236146650601    -0.613542185258    12.000000000000
         C            2.506069631552    -0.383077650601     0.654009814742    12.000000000000
         H           -0.197870368448    -1.872998650601     0.968826814742     1.007825032230
         H           -0.277205368448    -2.267837650601    -0.760734185258     1.007825032230
         H           -2.586999368448    -1.622770650601     0.594782814742     1.007825032230
         H           -2.324481368448    -1.060314650601    -1.064115185258     1.007825032230
         H           -1.883510368448     0.541498349399     1.501316814742     1.007825032230
         H           -2.602477368448     1.110508349399    -0.008525185258     1.007825032230
         H            1.903407631552    -1.029171650601    -1.333140185258     1.007825032230
         H            1.870477631552     0.727153349399    -1.088934185258     1.007825032230
         H            2.280644631552     0.436053349399     1.341143814742     1.007825032230
         H            2.301345631552    -1.331595650601     1.158355814742     1.007825032230
         H            3.573490631552    -0.350158650601     0.415387814742     1.007825032230

  Basis Set: AUG-CC-PVTZ
    Blend: AUG-CC-PVTZ
  Basis Set: (AUG-CC-PVTZ AUX)
    Blend: AUG-CC-PVTZ-JKFIT
	 Reference Energy          =    -363.0637596959999200 [Eh]
	 Singles Energy            =      -0.0000000000000000 [Eh]
	 Same-Spin Energy          =      -0.3775065627820550 [Eh]
	 Opposite-Spin Energy      =      -1.2478097713014684 [Eh]
	 Correlation Energy        =      -1.6253163340835233 [Eh]
	 Total Energy              =    -364.6890760300834700 [Eh]

	 ================> DF-SCS-MP2 Energies <==================
	-----------------------------------------------------------
	 SCS Same-Spin Scale       =       0.3333333333333333 [-]
	 SCS Opposite-Spin Scale   =       1.2000000000000000 [-]
	 SCS Same-Spin Energy      =      -0.1258355209273516 [Eh]
	 SCS Opposite-Spin Energy  =      -1.4973717255617620 [Eh]
	 SCS Correlation Energy    =      -1.6232072464891136 [Eh]
	 SCS Total Energy          =    -364.6869669424890503 [Eh]
	-----------------------------------------------------------

  Dipole Moment: [D]
     X:    -0.4382      Y:    -3.9365      Z:     0.3022     Total:     3.9724

*** Psi4 exiting successfully. Buy a developer a beer!
