                               Psi4 1.3.2 release

  ==> Input File <==

--------------------------------------------------------------------------
#psi4
#
memory 32 gb

molecule  {
0 1
  O       -0.0101440     2.0708820    -0.1140410
  N        0.2351990    -0.2177110    -0.3583720
  C       -0.4908340    -1.4342940    -0.0290780
  C       -1.9502640    -0.9583450    -0.0482810
  C       -1.8489090     0.4999680     0.4010950
  C       -0.4582930     0.9265630    -0.0509830
  C        1.6617300    -0.1844710    -0.6214880
  C        2.4978900    -0.3314020     0.6460640
  H       -0.1542906    -1.8916654     1.1408057
  H       -0.2853850    -2.2161620    -0.7686800
  H       -2.5951790    -1.5710950     0.5868370
  H       -2.3326610    -1.0086390    -1.0720610
  H       -1.8916900     0.5931740     1.4933710
  H       -2.6106570     1.1621840    -0.0164710
  H        1.8952280    -0.9774960    -1.3410860
  H        1.8622980     0.7788290    -1.0968800
  H        2.2724650     0.4877290     1.3331980
  H        2.2931660    -1.2799200     1.1504100
  H        3.5653110    -0.2984830     0.4074420
units angstrom
no_reorient  #important for SAPT in psi4, default
symmetry c1  #important for SAPT in psi4, default
}

set PROPERTIES_ORIGIN ["COM"]
properties('MP2/aug-cc-pvtz', properties = ['dipole'])
--------------------------------------------------------------------------

    Molecular point group: c1
  Charge       = 0
  Multiplicity = 1
  Basis Set: AUG-CC-PVTZ
    Blend: AUG-CC-PVTZ
  Basis Set: (AUG-CC-PVTZ AUX)
    Blend: AUG-CC-PVTZ-JKFIT

    Orbital Energies [Eh]
    ---------------------

    Doubly Occupied:

       1A    -20.514215     2A    -15.585305     3A    -11.343644
       4A    -11.297807     5A    -11.262051     6A    -11.245087
       7A    -11.241319     8A    -11.218254     9A     -1.369214
      10A     -1.260398    11A     -1.088799    12A     -1.001370
      13A     -0.966136    14A     -0.870101    15A     -0.826776
      16A     -0.725754    17A     -0.681214    18A     -0.670163
      19A     -0.641037    20A     -0.605381    21A     -0.579230
      22A     -0.571014    23A     -0.563059    24A     -0.554275
      25A     -0.519149    26A     -0.512585    27A     -0.511291
      28A     -0.491498    29A     -0.472742    30A     -0.411276
      31A     -0.367698

  @DF-RHF Final Energy:  -363.05645962917868

   => Energetics <=

    Nuclear Repulsion Energy =            393.4052368814869851
    One-Electron Energy =               -1272.9877091357193422
    Two-Electron Energy =                 516.5260126250536814
    Total Energy =                       -363.0564596291786756
  Basis Set: (AUG-CC-PVTZ AUX)
    Blend: AUG-CC-PVTZ-RI
    Molecular point group: c1

    Geometry (in Angstrom), charge = 0, multiplicity = 1:

       Center              X                  Y                   Z               Mass
    ------------   -----------------  -----------------  -----------------  -----------------
         O            0.006644416440     2.017638800779    -0.101277620658    15.994914619570
         N            0.251987416440    -0.270954199221    -0.345608620658    14.003074004430
         C           -0.474045583560    -1.487537199221    -0.016314620658    12.000000000000
         C           -1.933475583560    -1.011588199221    -0.035517620658    12.000000000000
         C           -1.832120583560     0.446724800779     0.413858379342    12.000000000000
         C           -0.441504583560     0.873319800779    -0.038219620658    12.000000000000
         C            1.678518416440    -0.237714199221    -0.608724620658    12.000000000000
         C            2.514678416440    -0.384645199221     0.658827379342    12.000000000000
         H           -0.137502183560    -1.944908599221     1.153569079342     1.007825032230
         H           -0.268596583560    -2.269405199221    -0.755916620658     1.007825032230
         H           -2.578390583560    -1.624338199221     0.599600379342     1.007825032230
         H           -2.315872583560    -1.061882199221    -1.059297620658     1.007825032230
         H           -1.874901583560     0.539930800779     1.506134379342     1.007825032230
         H           -2.593868583560     1.108940800779    -0.003707620658     1.007825032230
         H            1.912016416440    -1.030739199221    -1.328322620658     1.007825032230
         H            1.879086416440     0.725585800779    -1.084116620658     1.007825032230
         H            2.289253416440     0.434485800779     1.345961379342     1.007825032230
         H            2.309954416440    -1.333163199221     1.163173379342     1.007825032230
         H            3.582099416440    -0.351726199221     0.420205379342     1.007825032230

  Basis Set: AUG-CC-PVTZ
    Blend: AUG-CC-PVTZ
  Basis Set: (AUG-CC-PVTZ AUX)
    Blend: AUG-CC-PVTZ-JKFIT
	 Reference Energy          =    -363.0564596291786756 [Eh]
	 Singles Energy            =      -0.0000000000000000 [Eh]
	 Same-Spin Energy          =      -0.3770805613609542 [Eh]
	 Opposite-Spin Energy      =      -1.2487023911827344 [Eh]
	 Correlation Energy        =      -1.6257829525436887 [Eh]
	 Total Energy              =    -364.6822425817223916 [Eh]

	 ================> DF-SCS-MP2 Energies <==================
	-----------------------------------------------------------
	 SCS Same-Spin Scale       =       0.3333333333333333 [-]
	 SCS Opposite-Spin Scale   =       1.2000000000000000 [-]
	 SCS Same-Spin Energy      =      -0.1256935204536514 [Eh]
	 SCS Opposite-Spin Energy  =      -1.4984428694192813 [Eh]
	 SCS Correlation Energy    =      -1.6241363898729326 [Eh]
	 SCS Total Energy          =    -364.6805960190516203 [Eh]
	-----------------------------------------------------------

  Dipole Moment: [D]
     X:    -0.4989      Y:    -3.7613      Z:     0.0839     Total:     3.7952

*** Psi4 exiting successfully. Buy a developer a beer!
