                               Psi4 1.3.2 release

  ==> Input File <==

--------------------------------------------------------------------------
#psi4
#
memory 32 gb

molecule  {
0 1
  O       -0.0101440     2.0708820    -0.1140410
  N        0.2351990    -0.2177110    -0.3583720
  C       -0.5751609    -1.3780876    -0.0229983
  C       -1.9502640    -0.9583450    -0.0482810
  C       -1.8489090     0.4999680     0.4010950
  C       -0.4582930     0.9265630    -0.0509830
  C        1.6617300    -0.1844710    -0.6214880
  C        2.4978900    -0.3314020     0.6460640
  H       -0.2060500    -1.8213230     0.9608810
  H       -0.2853850    -2.2161620    -0.7686800
  H       -2.5951790    -1.5710950     0.5868370
  H       -2.3326610    -1.0086390    -1.0720610
  H       -1.8916900     0.5931740     1.4933710
  H       -2.6106570     1.1621840    -0.0164710
  H        1.8952280    -0.9774960    -1.3410860
  H        1.8622980     0.7788290    -1.0968800
  H        2.2724650     0.4877290     1.3331980
  H        2.2931660    -1.2799200     1.1504100
  H        3.5653110    -0.2984830     0.4074420
units angstrom
no_reorient  #important for SAPT in psi4, default
symmetry c1  #important for SAPT in psi4, default
}

set PROPERTIES_ORIGIN ["COM"]
properties('MP2/aug-cc-pvtz', properties = ['dipole'])
--------------------------------------------------------------------------

    Molecular point group: c1
  Charge       = 0
  Multiplicity = 1
  Basis Set: AUG-CC-PVTZ
    Blend: AUG-CC-PVTZ
  Basis Set: (AUG-CC-PVTZ AUX)
    Blend: AUG-CC-PVTZ-JKFIT

    Orbital Energies [Eh]
    ---------------------

    Doubly Occupied:

       1A    -20.510700     2A    -15.580934     3A    -11.340035
       4A    -11.279650     5A    -11.263650     6A    -11.241288
       7A    -11.238746     8A    -11.219260     9A     -1.367035
      10A     -1.262239    11A     -1.100196    12A     -1.004037
      13A     -0.972729    14A     -0.872094    15A     -0.826356
      16A     -0.726766    17A     -0.695238    18A     -0.668159
      19A     -0.636704    20A     -0.605605    21A     -0.585001
      22A     -0.571548    23A     -0.567659    24A     -0.561203
      25A     -0.523428    26A     -0.521308    27A     -0.504925
      28A     -0.495724    29A     -0.471338    30A     -0.408006
      31A     -0.365346

  @DF-RHF Final Energy:  -363.06346802359451

   => Energetics <=

    Nuclear Repulsion Energy =            395.3196477048282418
    One-Electron Energy =               -1276.7924145538497669
    Two-Electron Energy =                 518.4092988254270722
    Total Energy =                       -363.0634680235945098
  Basis Set: (AUG-CC-PVTZ AUX)
    Blend: AUG-CC-PVTZ-RI
    Molecular point group: c1

    Geometry (in Angstrom), charge = 0, multiplicity = 1:

       Center              X                  Y                   Z               Mass
    ------------   -----------------  -----------------  -----------------  -----------------
         O            0.016054117344     2.011047512799    -0.100319252054    15.994914619570
         N            0.261397117344    -0.277545487201    -0.344650252054    14.003074004430
         C           -0.548962782656    -1.437922087201    -0.009276552054    12.000000000000
         C           -1.924065882656    -1.018179487201    -0.034559252054    12.000000000000
         C           -1.822710882656     0.440133512799     0.414816747946    12.000000000000
         C           -0.432094882656     0.866728512799    -0.037261252054    12.000000000000
         C            1.687928117344    -0.244305487201    -0.607766252054    12.000000000000
         C            2.524088117344    -0.391236487201     0.659785747946    12.000000000000
         H           -0.179851882656    -1.881157487201     0.974602747946     1.007825032230
         H           -0.259186882656    -2.275996487201    -0.754958252054     1.007825032230
         H           -2.568980882656    -1.630929487201     0.600558747946     1.007825032230
         H           -2.306462882656    -1.068473487201    -1.058339252054     1.007825032230
         H           -1.865491882656     0.533339512799     1.507092747946     1.007825032230
         H           -2.584458882656     1.102349512799    -0.002749252054     1.007825032230
         H            1.921426117344    -1.037330487201    -1.327364252054     1.007825032230
         H            1.888496117344     0.718994512799    -1.083158252054     1.007825032230
         H            2.298663117344     0.427894512799     1.346919747946     1.007825032230
         H            2.319364117344    -1.339754487201     1.164131747946     1.007825032230
         H            3.591509117344    -0.358317487201     0.421163747946     1.007825032230

  Basis Set: AUG-CC-PVTZ
    Blend: AUG-CC-PVTZ
  Basis Set: (AUG-CC-PVTZ AUX)
    Blend: AUG-CC-PVTZ-JKFIT
	 Reference Energy          =    -363.0634680235945098 [Eh]
	 Singles Energy            =      -0.0000000000000000 [Eh]
	 Same-Spin Energy          =      -0.3776930499281643 [Eh]
	 Opposite-Spin Energy      =      -1.2479096834023005 [Eh]
	 Correlation Energy        =      -1.6256027333304648 [Eh]
	 Total Energy              =    -364.6890707569249912 [Eh]

	 ================> DF-SCS-MP2 Energies <==================
	-----------------------------------------------------------
	 SCS Same-Spin Scale       =       0.3333333333333333 [-]
	 SCS Opposite-Spin Scale   =       1.2000000000000000 [-]
	 SCS Same-Spin Energy      =      -0.1258976833093881 [Eh]
	 SCS Opposite-Spin Energy  =      -1.4974916200827606 [Eh]
	 SCS Correlation Energy    =      -1.6233893033921487 [Eh]
	 SCS Total Energy          =    -364.6868573269866829 [Eh]
	-----------------------------------------------------------

  Dipole Moment: [D]
     X:    -0.5025      Y:    -3.8811      Z:     0.2492     Total:     3.9215

*** Psi4 exiting successfully. Buy a developer a beer!
