                               Psi4 1.4a3.dev225

  ==> Input File <==

--------------------------------------------------------------------------
#psi4
#
memory 32 gb

molecule  {
0 1
  O       -0.0101440     2.0708820    -0.1140410
  N        0.2351990    -0.2177110    -0.3583720
  C       -0.5008171    -1.4510223    -0.0245501
  C       -1.9502640    -0.9583450    -0.0482810
  C       -1.8489090     0.4999680     0.4010950
  C       -0.4582930     0.9265630    -0.0509830
  C        1.6617300    -0.1844710    -0.6214880
  C        2.4978900    -0.3314020     0.6460640
  H       -0.2060500    -1.8213230     0.9608810
  H       -0.2853850    -2.2161620    -0.7686800
  H       -2.5951790    -1.5710950     0.5868370
  H       -2.3326610    -1.0086390    -1.0720610
  H       -1.8916900     0.5931740     1.4933710
  H       -2.6106570     1.1621840    -0.0164710
  H        1.8952280    -0.9774960    -1.3410860
  H        1.8622980     0.7788290    -1.0968800
  H        2.2724650     0.4877290     1.3331980
  H        2.2931660    -1.2799200     1.1504100
  H        3.5653110    -0.2984830     0.4074420
units angstrom
no_reorient  #important for SAPT in psi4, default
symmetry c1  #important for SAPT in psi4, default
}

set PROPERTIES_ORIGIN ["COM"]
properties('MP2/aug-cc-pvtz', properties = ['dipole'])
--------------------------------------------------------------------------

    Molecular point group: c1
  Charge       = 0
  Multiplicity = 1
  Basis Set: AUG-CC-PVTZ
    Blend: AUG-CC-PVTZ
  Basis Set: (AUG-CC-PVTZ AUX)
    Blend: AUG-CC-PVTZ-JKFIT

    Orbital Energies [Eh]
    ---------------------

    Doubly Occupied:

       1A    -20.510779     2A    -15.580362     3A    -11.340633
       4A    -11.275324     5A    -11.260247     6A    -11.242654
       7A    -11.240005     8A    -11.218305     9A     -1.365661
      10A     -1.254431    11A     -1.087819    12A     -0.999588
      13A     -0.973063    14A     -0.869392    15A     -0.829191
      16A     -0.724972    17A     -0.692560    18A     -0.667163
      19A     -0.639013    20A     -0.604052    21A     -0.590299
      22A     -0.571544    23A     -0.562246    24A     -0.554200
      25A     -0.522548    26A     -0.512680    27A     -0.511271
      28A     -0.489698    29A     -0.477890    30A     -0.408542
      31A     -0.369557

  @DF-RHF Final Energy:  -363.07555014889238

   => Energetics <=

    Nuclear Repulsion Energy =            393.9440144914291864
    One-Electron Energy =               -1274.1477486502597003
    Two-Electron Energy =                 517.1281840099380815
    Total Energy =                       -363.0755501488923755
  Basis Set: (AUG-CC-PVTZ AUX)
    Blend: AUG-CC-PVTZ-RI
    Molecular point group: c1

    Geometry (in Angstrom), charge = 0, multiplicity = 1:

       Center              X                  Y                   Z               Mass
    ------------   -----------------  -----------------  -----------------  -----------------
         O            0.008165069421     2.018787033022    -0.100154581636    15.994914619570
         N            0.253508069421    -0.269805966978    -0.344485581636    14.003074004430
         C           -0.482508030579    -1.503117266978    -0.010663681636    12.000000000000
         C           -1.931954930579    -1.010439966978    -0.034394581636    12.000000000000
         C           -1.830599930579     0.447873033022     0.414981418364    12.000000000000
         C           -0.439983930579     0.874468033022    -0.037096581636    12.000000000000
         C            1.680039069421    -0.236565966978    -0.607601581636    12.000000000000
         C            2.516199069421    -0.383496966978     0.659950418364    12.000000000000
         H           -0.187740930579    -1.873417966978     0.974767418364     1.007825032230
         H           -0.267075930579    -2.268256966978    -0.754793581636     1.007825032230
         H           -2.576869930579    -1.623189966978     0.600723418364     1.007825032230
         H           -2.314351930579    -1.060733966978    -1.058174581636     1.007825032230
         H           -1.873380930579     0.541079033022     1.507257418364     1.007825032230
         H           -2.592347930579     1.110089033022    -0.002584581636     1.007825032230
         H            1.913537069421    -1.029590966978    -1.327199581636     1.007825032230
         H            1.880607069421     0.726734033022    -1.082993581636     1.007825032230
         H            2.290774069421     0.435634033022     1.347084418364     1.007825032230
         H            2.311475069421    -1.332014966978     1.164296418364     1.007825032230
         H            3.583620069421    -0.350577966978     0.421328418364     1.007825032230

  Basis Set: AUG-CC-PVTZ
    Blend: AUG-CC-PVTZ
  Basis Set: (AUG-CC-PVTZ AUX)
    Blend: AUG-CC-PVTZ-JKFIT
	 Reference Energy          =    -363.0755501488923755 [Eh]
	 Singles Energy            =      -0.0000000000000000 [Eh]
	 Same-Spin Energy          =      -0.3767232708458083 [Eh]
	 Opposite-Spin Energy      =      -1.2469932470651917 [Eh]
	 Correlation Energy        =      -1.6237165179110000 [Eh]
	 Total Energy              =    -364.6992666668033962 [Eh]

	 ================> DF-SCS-MP2 Energies <==================
	-----------------------------------------------------------
	 SCS Same-Spin Scale       =       0.3333333333333333 [-]
	 SCS Opposite-Spin Scale   =       1.2000000000000000 [-]
	 SCS Same-Spin Energy      =      -0.1255744236152694 [Eh]
	 SCS Opposite-Spin Energy  =      -1.4963918964782299 [Eh]
	 SCS Correlation Energy    =      -1.6219663200934993 [Eh]
	 SCS Total Energy          =    -364.6975164689858957 [Eh]
	-----------------------------------------------------------

  Dipole Moment: [D]
     X:    -0.4828      Y:    -3.9995      Z:     0.2640     Total:     4.0371

*** Psi4 exiting successfully. Buy a developer a beer!
