                               Psi4 1.3.2 release

  ==> Input File <==

--------------------------------------------------------------------------
#psi4
#
memory 32 gb

molecule  {
0 1
  O       -0.0101440     2.0708820    -0.1140410
  N        0.3100977    -0.1622913    -0.3807619
  C       -0.4908340    -1.4342940    -0.0290780
  C       -1.9502640    -0.9583450    -0.0482810
  C       -1.8489090     0.4999680     0.4010950
  C       -0.4582930     0.9265630    -0.0509830
  C        1.6617300    -0.1844710    -0.6214880
  C        2.4978900    -0.3314020     0.6460640
  H       -0.2060500    -1.8213230     0.9608810
  H       -0.2853850    -2.2161620    -0.7686800
  H       -2.5951790    -1.5710950     0.5868370
  H       -2.3326610    -1.0086390    -1.0720610
  H       -1.8916900     0.5931740     1.4933710
  H       -2.6106570     1.1621840    -0.0164710
  H        1.8952280    -0.9774960    -1.3410860
  H        1.8622980     0.7788290    -1.0968800
  H        2.2724650     0.4877290     1.3331980
  H        2.2931660    -1.2799200     1.1504100
  H        3.5653110    -0.2984830     0.4074420
units angstrom
no_reorient  #important for SAPT in psi4, default
symmetry c1  #important for SAPT in psi4, default
}

set PROPERTIES_ORIGIN ["COM"]
properties('MP2/aug-cc-pvtz', properties = ['dipole'])
--------------------------------------------------------------------------

    Molecular point group: c1
  Charge       = 0
  Multiplicity = 1
  Basis Set: AUG-CC-PVTZ
    Blend: AUG-CC-PVTZ
  Basis Set: (AUG-CC-PVTZ AUX)
    Blend: AUG-CC-PVTZ-JKFIT

    Orbital Energies [Eh]
    ---------------------

    Doubly Occupied:

       1A    -20.507635     2A    -15.579581     3A    -11.341207
       4A    -11.281139     5A    -11.253187     6A    -11.246124
       7A    -11.245051     8A    -11.214913     9A     -1.366984
      10A     -1.252363    11A     -1.097809    12A     -0.997524
      13A     -0.966913    14A     -0.878729    15A     -0.829516
      16A     -0.725126    17A     -0.690761    18A     -0.663548
      19A     -0.642107    20A     -0.610304    21A     -0.590278
      22A     -0.575510    23A     -0.556998    24A     -0.554919
      25A     -0.525238    26A     -0.514830    27A     -0.508932
      28A     -0.483896    29A     -0.476366    30A     -0.408373
      31A     -0.365218

  @DF-RHF Final Energy:  -363.06469535691491

   => Energetics <=

    Nuclear Repulsion Energy =            394.0967985857343479
    One-Electron Energy =               -1274.4208292510163574
    Two-Electron Energy =                 517.2593353083669854
    Total Energy =                       -363.0646953569149673
  Basis Set: (AUG-CC-PVTZ AUX)
    Blend: AUG-CC-PVTZ-RI
    Molecular point group: c1

    Geometry (in Angstrom), charge = 0, multiplicity = 1:

       Center              X                  Y                   Z               Mass
    ------------   -----------------  -----------------  -----------------  -----------------
         O           -0.002168917507     2.010149337081    -0.096901583701    15.994914619570
         N            0.318072782493    -0.223023962919    -0.363622483701    14.003074004430
         C           -0.482858917507    -1.495026662919    -0.011938583701    12.000000000000
         C           -1.942288917507    -1.019077662919    -0.031141583701    12.000000000000
         C           -1.840933917507     0.439235337081     0.418234416299    12.000000000000
         C           -0.450317917507     0.865830337081    -0.033843583701    12.000000000000
         C            1.669705082493    -0.245203662919    -0.604348583701    12.000000000000
         C            2.505865082493    -0.392134662919     0.663203416299    12.000000000000
         H           -0.198074917507    -1.882055662919     0.978020416299     1.007825032230
         H           -0.277409917507    -2.276894662919    -0.751540583701     1.007825032230
         H           -2.587203917507    -1.631827662919     0.603976416299     1.007825032230
         H           -2.324685917507    -1.069371662919    -1.054921583701     1.007825032230
         H           -1.883714917507     0.532441337081     1.510510416299     1.007825032230
         H           -2.602681917507     1.101451337081     0.000668416299     1.007825032230
         H            1.903203082493    -1.038228662919    -1.323946583701     1.007825032230
         H            1.870273082493     0.718096337081    -1.079740583701     1.007825032230
         H            2.280440082493     0.426996337081     1.350337416299     1.007825032230
         H            2.301141082493    -1.340652662919     1.167549416299     1.007825032230
         H            3.573286082493    -0.359215662919     0.424581416299     1.007825032230

  Basis Set: AUG-CC-PVTZ
    Blend: AUG-CC-PVTZ
  Basis Set: (AUG-CC-PVTZ AUX)
    Blend: AUG-CC-PVTZ-JKFIT
	 Reference Energy          =    -363.0646953569149105 [Eh]
	 Singles Energy            =      -0.0000000000000000 [Eh]
	 Same-Spin Energy          =      -0.3770979084277997 [Eh]
	 Opposite-Spin Energy      =      -1.2477332533210719 [Eh]
	 Correlation Energy        =      -1.6248311617488715 [Eh]
	 Total Energy              =    -364.6895265186637971 [Eh]

	 ================> DF-SCS-MP2 Energies <==================
	-----------------------------------------------------------
	 SCS Same-Spin Scale       =       0.3333333333333333 [-]
	 SCS Opposite-Spin Scale   =       1.2000000000000000 [-]
	 SCS Same-Spin Energy      =      -0.1256993028092666 [Eh]
	 SCS Opposite-Spin Energy  =      -1.4972799039852862 [Eh]
	 SCS Correlation Energy    =      -1.6229792067945528 [Eh]
	 SCS Total Energy          =    -364.6876745637094359 [Eh]
	-----------------------------------------------------------

  Dipole Moment: [D]
     X:    -0.7538      Y:    -4.0641      Z:     0.3164     Total:     4.1455

*** Psi4 exiting successfully. Buy a developer a beer!
