                               Psi4 1.3.2 release

  ==> Input File <==

--------------------------------------------------------------------------
#psi4
#
memory 32 gb

molecule  {
0 1
  O       -0.0101440     2.0708820    -0.1140410
  N        0.2351990    -0.2177110    -0.3583720
  C       -0.4908340    -1.4342940    -0.0290780
  C       -2.0453286    -0.9273425    -0.0495318
  C       -1.8489090     0.4999680     0.4010950
  C       -0.4582930     0.9265630    -0.0509830
  C        1.6617300    -0.1844710    -0.6214880
  C        2.4978900    -0.3314020     0.6460640
  H       -0.2060500    -1.8213230     0.9608810
  H       -0.2853850    -2.2161620    -0.7686800
  H       -2.5951790    -1.5710950     0.5868370
  H       -2.3326610    -1.0086390    -1.0720610
  H       -1.8916900     0.5931740     1.4933710
  H       -2.6106570     1.1621840    -0.0164710
  H        1.8952280    -0.9774960    -1.3410860
  H        1.8622980     0.7788290    -1.0968800
  H        2.2724650     0.4877290     1.3331980
  H        2.2931660    -1.2799200     1.1504100
  H        3.5653110    -0.2984830     0.4074420
units angstrom
no_reorient  #important for SAPT in psi4, default
symmetry c1  #important for SAPT in psi4, default
}

set PROPERTIES_ORIGIN ["COM"]
properties('MP2/aug-cc-pvtz', properties = ['dipole'])
--------------------------------------------------------------------------

    Molecular point group: c1
  Charge       = 0
  Multiplicity = 1
  Basis Set: AUG-CC-PVTZ
    Blend: AUG-CC-PVTZ
  Basis Set: (AUG-CC-PVTZ AUX)
    Blend: AUG-CC-PVTZ-JKFIT

    Orbital Energies [Eh]
    ---------------------

    Doubly Occupied:

       1A    -20.512442     2A    -15.580809     3A    -11.342217
       4A    -11.277180     5A    -11.260899     6A    -11.242359
       7A    -11.239833     8A    -11.218420     9A     -1.366979
      10A     -1.255083    11A     -1.085092    12A     -1.002662
      13A     -0.962728    14A     -0.873030    15A     -0.833209
      16A     -0.724825    17A     -0.692339    18A     -0.664140
      19A     -0.641045    20A     -0.608702    21A     -0.590466
      22A     -0.572047    23A     -0.564100    24A     -0.558902
      25A     -0.529371    26A     -0.515090    27A     -0.501814
      28A     -0.483810    29A     -0.468568    30A     -0.412147
      31A     -0.368378

  @DF-RHF Final Energy:  -363.06803879597459

   => Energetics <=

    Nuclear Repulsion Energy =            393.0525438811680488
    One-Electron Energy =               -1272.3437962579378109
    Two-Electron Energy =                 516.2232135807951181
    Total Energy =                       -363.0680387959746440
  Basis Set: (AUG-CC-PVTZ AUX)
    Blend: AUG-CC-PVTZ-RI
    Molecular point group: c1

    Geometry (in Angstrom), charge = 0, multiplicity = 1:

       Center              X                  Y                   Z               Mass
    ------------   -----------------  -----------------  -----------------  -----------------
         O            0.017193556407     2.013722043492    -0.099541370565    15.994914619570
         N            0.262536556407    -0.274870956508    -0.343872370565    14.003074004430
         C           -0.463496443593    -1.491453956508    -0.014578370565    12.000000000000
         C           -2.017991043593    -0.984502456508    -0.035032170565    12.000000000000
         C           -1.821571443593     0.442808043492     0.415594629435    12.000000000000
         C           -0.430955443593     0.869403043492    -0.036483370565    12.000000000000
         C            1.689067556407    -0.241630956508    -0.606988370565    12.000000000000
         C            2.525227556407    -0.388561956508     0.660563629435    12.000000000000
         H           -0.178712443593    -1.878482956508     0.975380629435     1.007825032230
         H           -0.258047443593    -2.273321956508    -0.754180370565     1.007825032230
         H           -2.567841443593    -1.628254956508     0.601336629435     1.007825032230
         H           -2.305323443593    -1.065798956508    -1.057561370565     1.007825032230
         H           -1.864352443593     0.536014043492     1.507870629435     1.007825032230
         H           -2.583319443593     1.105024043492    -0.001971370565     1.007825032230
         H            1.922565556407    -1.034655956508    -1.326586370565     1.007825032230
         H            1.889635556407     0.721669043492    -1.082380370565     1.007825032230
         H            2.299802556407     0.430569043492     1.347697629435     1.007825032230
         H            2.320503556407    -1.337079956508     1.164909629435     1.007825032230
         H            3.592648556407    -0.355642956508     0.421941629435     1.007825032230

  Basis Set: AUG-CC-PVTZ
    Blend: AUG-CC-PVTZ
  Basis Set: (AUG-CC-PVTZ AUX)
    Blend: AUG-CC-PVTZ-JKFIT
	 Reference Energy          =    -363.0680387959745872 [Eh]
	 Singles Energy            =      -0.0000000000000000 [Eh]
	 Same-Spin Energy          =      -0.3768703129728870 [Eh]
	 Opposite-Spin Energy      =      -1.2475212784952929 [Eh]
	 Correlation Energy        =      -1.6243915914681799 [Eh]
	 Total Energy              =    -364.6924303874427551 [Eh]

	 ================> DF-SCS-MP2 Energies <==================
	-----------------------------------------------------------
	 SCS Same-Spin Scale       =       0.3333333333333333 [-]
	 SCS Opposite-Spin Scale   =       1.2000000000000000 [-]
	 SCS Same-Spin Energy      =      -0.1256234376576290 [Eh]
	 SCS Opposite-Spin Energy  =      -1.4970255341943515 [Eh]
	 SCS Correlation Energy    =      -1.6226489718519805 [Eh]
	 SCS Total Energy          =    -364.6906877678265460 [Eh]
	-----------------------------------------------------------

  Dipole Moment: [D]
     X:    -0.4656      Y:    -3.9473      Z:     0.2497     Total:     3.9825

*** Psi4 exiting successfully. Buy a developer a beer!
