                               Psi4 1.3.2 release

  ==> Input File <==

--------------------------------------------------------------------------
#psi4
#
memory 32 gb

molecule  {
0 1
  O       -0.0101440     2.0708820    -0.1140410
  N        0.3036490    -0.2314666    -0.2230772
  C       -0.4908340    -1.4342940    -0.0290780
  C       -1.9502640    -0.9583450    -0.0482810
  C       -1.8489090     0.4999680     0.4010950
  C       -0.4582930     0.9265630    -0.0509830
  C        1.6617300    -0.1844710    -0.6214880
  C        2.4978900    -0.3314020     0.6460640
  H       -0.2060500    -1.8213230     0.9608810
  H       -0.2853850    -2.2161620    -0.7686800
  H       -2.5951790    -1.5710950     0.5868370
  H       -2.3326610    -1.0086390    -1.0720610
  H       -1.8916900     0.5931740     1.4933710
  H       -2.6106570     1.1621840    -0.0164710
  H        1.8952280    -0.9774960    -1.3410860
  H        1.8622980     0.7788290    -1.0968800
  H        2.2724650     0.4877290     1.3331980
  H        2.2931660    -1.2799200     1.1504100
  H        3.5653110    -0.2984830     0.4074420
units angstrom
no_reorient  #important for SAPT in psi4, default
symmetry c1  #important for SAPT in psi4, default
}

set PROPERTIES_ORIGIN ["COM"]
properties('MP2/aug-cc-pvtz', properties = ['dipole'])
--------------------------------------------------------------------------

    Molecular point group: c1
  Charge       = 0
  Multiplicity = 1
  Basis Set: AUG-CC-PVTZ
    Blend: AUG-CC-PVTZ
  Basis Set: (AUG-CC-PVTZ AUX)
    Blend: AUG-CC-PVTZ-JKFIT

    Orbital Energies [Eh]
    ---------------------

    Doubly Occupied:

       1A    -20.514053     2A    -15.577709     3A    -11.344470
       4A    -11.274693     5A    -11.257743     6A    -11.244557
       7A    -11.242290     8A    -11.213375     9A     -1.366979
      10A     -1.258647    11A     -1.092964    12A     -0.997313
      13A     -0.969677    14A     -0.869684    15A     -0.827669
      16A     -0.732684    17A     -0.689005    18A     -0.670530
      19A     -0.641312    20A     -0.606572    21A     -0.586617
      22A     -0.572894    23A     -0.564099    24A     -0.555544
      25A     -0.519865    26A     -0.514682    27A     -0.509666
      28A     -0.491169    29A     -0.476145    30A     -0.409692
      31A     -0.361848

  @DF-RHF Final Energy:  -363.06845250065140

   => Energetics <=

    Nuclear Repulsion Energy =            394.5975067128517821
    One-Electron Energy =               -1275.4236303907616730
    Two-Electron Energy =                 517.7576711772585440
    Total Energy =                       -363.0684525006513468
  Basis Set: (AUG-CC-PVTZ AUX)
    Blend: AUG-CC-PVTZ-RI
    Molecular point group: c1

    Geometry (in Angstrom), charge = 0, multiplicity = 1:

       Center              X                  Y                   Z               Mass
    ------------   -----------------  -----------------  -----------------  -----------------
         O           -0.001370382151     2.018715237625    -0.116427504912    15.994914619570
         N            0.312422617849    -0.283633362375    -0.225463704912    14.003074004430
         C           -0.482060382151    -1.486460762375    -0.031464504912    12.000000000000
         C           -1.941490382151    -1.010511762375    -0.050667504912    12.000000000000
         C           -1.840135382151     0.447801237625     0.398708495088    12.000000000000
         C           -0.449519382151     0.874396237625    -0.053369504912    12.000000000000
         C            1.670503617849    -0.236637762375    -0.623874504912    12.000000000000
         C            2.506663617849    -0.383568762375     0.643677495088    12.000000000000
         H           -0.197276382151    -1.873489762375     0.958494495088     1.007825032230
         H           -0.276611382151    -2.268328762375    -0.771066504912     1.007825032230
         H           -2.586405382151    -1.623261762375     0.584450495088     1.007825032230
         H           -2.323887382151    -1.060805762375    -1.074447504912     1.007825032230
         H           -1.882916382151     0.541007237625     1.490984495088     1.007825032230
         H           -2.601883382151     1.110017237625    -0.018857504912     1.007825032230
         H            1.904001617849    -1.029662762375    -1.343472504912     1.007825032230
         H            1.871071617849     0.726662237625    -1.099266504912     1.007825032230
         H            2.281238617849     0.435562237625     1.330811495088     1.007825032230
         H            2.301939617849    -1.332086762375     1.148023495088     1.007825032230
         H            3.574084617849    -0.350649762375     0.405055495088     1.007825032230

  Basis Set: AUG-CC-PVTZ
    Blend: AUG-CC-PVTZ
  Basis Set: (AUG-CC-PVTZ AUX)
    Blend: AUG-CC-PVTZ-JKFIT
	 Reference Energy          =    -363.0684525006514036 [Eh]
	 Singles Energy            =      -0.0000000000000000 [Eh]
	 Same-Spin Energy          =      -0.3774075807478505 [Eh]
	 Opposite-Spin Energy      =      -1.2479479924693053 [Eh]
	 Correlation Energy        =      -1.6253555732171558 [Eh]
	 Total Energy              =    -364.6938080738685812 [Eh]

	 ================> DF-SCS-MP2 Energies <==================
	-----------------------------------------------------------
	 SCS Same-Spin Scale       =       0.3333333333333333 [-]
	 SCS Opposite-Spin Scale   =       1.2000000000000000 [-]
	 SCS Same-Spin Energy      =      -0.1258025269159502 [Eh]
	 SCS Opposite-Spin Energy  =      -1.4975375909631663 [Eh]
	 SCS Correlation Energy    =      -1.6233401178791165 [Eh]
	 SCS Total Energy          =    -364.6917926185305419 [Eh]
	-----------------------------------------------------------

  Dipole Moment: [D]
     X:    -0.6834      Y:    -3.8893      Z:     0.0528     Total:     3.9493

*** Psi4 exiting successfully. Buy a developer a beer!
