                               Psi4 1.3.2 release

  ==> Input File <==

--------------------------------------------------------------------------
#psi4
#
memory 32 gb

molecule  {
0 1
  O       -0.0101440     2.0708820    -0.1140410
  N        0.2351990    -0.2177110    -0.3583720
  C       -0.4908340    -1.4342940    -0.0290780
  C       -1.9502640    -0.9583450    -0.0482810
  C       -1.8489090     0.4999680     0.4010950
  C       -0.4378463     0.8862273    -0.0230235
  C        1.6617300    -0.1844710    -0.6214880
  C        2.4978900    -0.3314020     0.6460640
  H       -0.2060500    -1.8213230     0.9608810
  H       -0.2853850    -2.2161620    -0.7686800
  H       -2.5951790    -1.5710950     0.5868370
  H       -2.3326610    -1.0086390    -1.0720610
  H       -1.8916900     0.5931740     1.4933710
  H       -2.6106570     1.1621840    -0.0164710
  H        1.8952280    -0.9774960    -1.3410860
  H        1.8622980     0.7788290    -1.0968800
  H        2.2724650     0.4877290     1.3331980
  H        2.2931660    -1.2799200     1.1504100
  H        3.5653110    -0.2984830     0.4074420
units angstrom
no_reorient  #important for SAPT in psi4, default
symmetry c1  #important for SAPT in psi4, default
}

set PROPERTIES_ORIGIN ["COM"]
properties('MP2/aug-cc-pvtz', properties = ['dipole'])
--------------------------------------------------------------------------

    Molecular point group: c1
  Charge       = 0
  Multiplicity = 1
  Basis Set: AUG-CC-PVTZ
    Blend: AUG-CC-PVTZ
  Basis Set: (AUG-CC-PVTZ AUX)
    Blend: AUG-CC-PVTZ-JKFIT

    Orbital Energies [Eh]
    ---------------------

    Doubly Occupied:

       1A    -20.502525     2A    -15.588250     3A    -11.339222
       4A    -11.278268     5A    -11.264448     6A    -11.243293
       7A    -11.239849     8A    -11.221291     9A     -1.352591
      10A     -1.261081    11A     -1.090979    12A     -1.005819
      13A     -0.974986    14A     -0.875158    15A     -0.834097
      16A     -0.728469    17A     -0.697342    18A     -0.668190
      19A     -0.637620    20A     -0.606427    21A     -0.590914
      22A     -0.569252    23A     -0.565142    24A     -0.545783
      25A     -0.524297    26A     -0.515025    27A     -0.511155
      28A     -0.492674    29A     -0.472254    30A     -0.404348
      31A     -0.372213

  @DF-RHF Final Energy:  -363.07166085097867

   => Energetics <=

    Nuclear Repulsion Energy =            394.6438864520635548
    One-Electron Energy =               -1275.4851687938748910
    Two-Electron Energy =                 517.7696214908327192
    Total Energy =                       -363.0716608509786738
  Basis Set: (AUG-CC-PVTZ AUX)
    Blend: AUG-CC-PVTZ-RI
    Molecular point group: c1

    Geometry (in Angstrom), charge = 0, multiplicity = 1:

       Center              X                  Y                   Z               Mass
    ------------   -----------------  -----------------  -----------------  -----------------
         O            0.004935988442     2.021292149924    -0.102641043390    15.994914619570
         N            0.250278988442    -0.267300850076    -0.346972043390    14.003074004430
         C           -0.475754011558    -1.483883850076    -0.017678043390    12.000000000000
         C           -1.935184011558    -1.007934850076    -0.036881043390    12.000000000000
         C           -1.833829011558     0.450378149924     0.412494956610    12.000000000000
         C           -0.422766311558     0.836637449924    -0.011623543390    12.000000000000
         C            1.676809988442    -0.234060850076    -0.610088043390    12.000000000000
         C            2.512969988442    -0.380991850076     0.657463956610    12.000000000000
         H           -0.190970011558    -1.870912850076     0.972280956610     1.007825032230
         H           -0.270305011558    -2.265751850076    -0.757280043390     1.007825032230
         H           -2.580099011558    -1.620684850076     0.598236956610     1.007825032230
         H           -2.317581011558    -1.058228850076    -1.060661043390     1.007825032230
         H           -1.876610011558     0.543584149924     1.504770956610     1.007825032230
         H           -2.595577011558     1.112594149924    -0.005071043390     1.007825032230
         H            1.910307988442    -1.027085850076    -1.329686043390     1.007825032230
         H            1.877377988442     0.729239149924    -1.085480043390     1.007825032230
         H            2.287544988442     0.438139149924     1.344597956610     1.007825032230
         H            2.308245988442    -1.329509850076     1.161809956610     1.007825032230
         H            3.580390988442    -0.348072850076     0.418841956610     1.007825032230

  Basis Set: AUG-CC-PVTZ
    Blend: AUG-CC-PVTZ
  Basis Set: (AUG-CC-PVTZ AUX)
    Blend: AUG-CC-PVTZ-JKFIT
	 Reference Energy          =    -363.0716608509786738 [Eh]
	 Singles Energy            =      -0.0000000000000000 [Eh]
	 Same-Spin Energy          =      -0.3772472179198403 [Eh]
	 Opposite-Spin Energy      =      -1.2478775815681868 [Eh]
	 Correlation Energy        =      -1.6251247994880271 [Eh]
	 Total Energy              =    -364.6967856504667225 [Eh]

	 ================> DF-SCS-MP2 Energies <==================
	-----------------------------------------------------------
	 SCS Same-Spin Scale       =       0.3333333333333333 [-]
	 SCS Opposite-Spin Scale   =       1.2000000000000000 [-]
	 SCS Same-Spin Energy      =      -0.1257490726399468 [Eh]
	 SCS Opposite-Spin Energy  =      -1.4974530978818241 [Eh]
	 SCS Correlation Energy    =      -1.6232021705217710 [Eh]
	 SCS Total Energy          =    -364.6948630215004528 [Eh]
	-----------------------------------------------------------

  Dipole Moment: [D]
     X:    -0.3686      Y:    -4.2956      Z:     0.2386     Total:     4.3180

*** Psi4 exiting successfully. Buy a developer a beer!
