                               Psi4 1.3.2 release

  ==> Input File <==

--------------------------------------------------------------------------
#psi4
#
memory 32 gb

molecule  {
0 1
  O       -0.0101440     2.0708820    -0.1140410
  N        0.2351990    -0.2177110    -0.3583720
  C       -0.4908340    -1.4342940    -0.0290780
  C       -1.9502640    -0.9583450    -0.0482810
  C       -1.8489090     0.4999680     0.4010950
  C       -0.4174574     0.9513415    -0.0548297
  C        1.6617300    -0.1844710    -0.6214880
  C        2.4978900    -0.3314020     0.6460640
  H       -0.2060500    -1.8213230     0.9608810
  H       -0.2853850    -2.2161620    -0.7686800
  H       -2.5951790    -1.5710950     0.5868370
  H       -2.3326610    -1.0086390    -1.0720610
  H       -1.8916900     0.5931740     1.4933710
  H       -2.6106570     1.1621840    -0.0164710
  H        1.8952280    -0.9774960    -1.3410860
  H        1.8622980     0.7788290    -1.0968800
  H        2.2724650     0.4877290     1.3331980
  H        2.2931660    -1.2799200     1.1504100
  H        3.5653110    -0.2984830     0.4074420
units angstrom
no_reorient  #important for SAPT in psi4, default
symmetry c1  #important for SAPT in psi4, default
}

set PROPERTIES_ORIGIN ["COM"]
properties('MP2/aug-cc-pvtz', properties = ['dipole'])
--------------------------------------------------------------------------

    Molecular point group: c1
  Charge       = 0
  Multiplicity = 1
  Basis Set: AUG-CC-PVTZ
    Blend: AUG-CC-PVTZ
  Basis Set: (AUG-CC-PVTZ AUX)
    Blend: AUG-CC-PVTZ-JKFIT

    Orbital Energies [Eh]
    ---------------------

    Doubly Occupied:

       1A    -20.517627     2A    -15.578261     3A    -11.339322
       4A    -11.274301     5A    -11.259818     6A    -11.239723
       7A    -11.236600     8A    -11.218558     9A     -1.390376
      10A     -1.261456    11A     -1.082517    12A     -0.998814
      13A     -0.966483    14A     -0.868317    15A     -0.825892
      16A     -0.724475    17A     -0.691782    18A     -0.668530
      19A     -0.643453    20A     -0.603709    21A     -0.588578
      22A     -0.577327    23A     -0.565553    24A     -0.557393
      25A     -0.524354    26A     -0.513205    27A     -0.506461
      28A     -0.490393    29A     -0.481876    30A     -0.405455
      31A     -0.371220

  @DF-RHF Final Energy:  -363.07575288731391

   => Energetics <=

    Nuclear Repulsion Energy =            394.4211707611312363
    One-Electron Energy =               -1275.0501904196726173
    Two-Electron Energy =                 517.5532667712275270
    Total Energy =                       -363.0757528873139108
  Basis Set: (AUG-CC-PVTZ AUX)
    Blend: AUG-CC-PVTZ-RI
    Molecular point group: c1

    Geometry (in Angstrom), charge = 0, multiplicity = 1:

       Center              X                  Y                   Z               Mass
    ------------   -----------------  -----------------  -----------------  -----------------
         O            0.002772405074     2.014382507906    -0.099265904696    15.994914619570
         N            0.248115405074    -0.274210492094    -0.343596904696    14.003074004430
         C           -0.477917594926    -1.490793492094    -0.014302904696    12.000000000000
         C           -1.937347594926    -1.014844492094    -0.033505904696    12.000000000000
         C           -1.835992594926     0.443468507906     0.415870095304    12.000000000000
         C           -0.404540994926     0.894842007906    -0.040054604696    12.000000000000
         C            1.674646405074    -0.240970492094    -0.606712904696    12.000000000000
         C            2.510806405074    -0.387901492094     0.660839095304    12.000000000000
         H           -0.193133594926    -1.877822492094     0.975656095304     1.007825032230
         H           -0.272468594926    -2.272661492094    -0.753904904696     1.007825032230
         H           -2.582262594926    -1.627594492094     0.601612095304     1.007825032230
         H           -2.319744594926    -1.065138492094    -1.057285904696     1.007825032230
         H           -1.878773594926     0.536674507906     1.508146095304     1.007825032230
         H           -2.597740594926     1.105684507906    -0.001695904696     1.007825032230
         H            1.908144405074    -1.033995492094    -1.326310904696     1.007825032230
         H            1.875214405074     0.722329507906    -1.082104904696     1.007825032230
         H            2.285381405074     0.431229507906     1.347973095304     1.007825032230
         H            2.306082405074    -1.336419492094     1.165185095304     1.007825032230
         H            3.578227405074    -0.354982492094     0.422217095304     1.007825032230

  Basis Set: AUG-CC-PVTZ
    Blend: AUG-CC-PVTZ
  Basis Set: (AUG-CC-PVTZ AUX)
    Blend: AUG-CC-PVTZ-JKFIT
	 Reference Energy          =    -363.0757528873139108 [Eh]
	 Singles Energy            =      -0.0000000000000000 [Eh]
	 Same-Spin Energy          =      -0.3759429472239715 [Eh]
	 Opposite-Spin Energy      =      -1.2453407260503240 [Eh]
	 Correlation Energy        =      -1.6212836732742955 [Eh]
	 Total Energy              =    -364.6970365605882307 [Eh]

	 ================> DF-SCS-MP2 Energies <==================
	-----------------------------------------------------------
	 SCS Same-Spin Scale       =       0.3333333333333333 [-]
	 SCS Opposite-Spin Scale   =       1.2000000000000000 [-]
	 SCS Same-Spin Energy      =      -0.1253143157413238 [Eh]
	 SCS Opposite-Spin Energy  =      -1.4944088712603887 [Eh]
	 SCS Correlation Energy    =      -1.6197231870017126 [Eh]
	 SCS Total Energy          =    -364.6954760743156498 [Eh]
	-----------------------------------------------------------

  Dipole Moment: [D]
     X:    -0.3103      Y:    -3.7283      Z:     0.2151     Total:     3.7474

*** Psi4 exiting successfully. Buy a developer a beer!
