                               Psi4 1.3.2 release

  ==> Input File <==

--------------------------------------------------------------------------
#psi4
#
memory 32 gb

molecule  {
0 1
  O       -0.0101440     2.0708820    -0.1140410
  N        0.2351990    -0.2177110    -0.3583720
  C       -0.4908340    -1.4342940    -0.0290780
  C       -1.9502640    -0.9583450    -0.0482810
  C       -1.8489090     0.4999680     0.4010950
  C       -0.4582930     0.9265630    -0.0509830
  C        1.6617300    -0.1844710    -0.6214880
  C        2.4978900    -0.3314020     0.6460640
  H       -0.2060500    -1.8213230     0.9608810
  H       -0.2853850    -2.2161620    -0.7686800
  H       -2.7131821    -1.6832127     0.7030475
  H       -2.3326610    -1.0086390    -1.0720610
  H       -1.8916900     0.5931740     1.4933710
  H       -2.6106570     1.1621840    -0.0164710
  H        1.8952280    -0.9774960    -1.3410860
  H        1.8622980     0.7788290    -1.0968800
  H        2.2724650     0.4877290     1.3331980
  H        2.2931660    -1.2799200     1.1504100
  H        3.5653110    -0.2984830     0.4074420
units angstrom
no_reorient  #important for SAPT in psi4, default
symmetry c1  #important for SAPT in psi4, default
}

set PROPERTIES_ORIGIN ["COM"]
properties('MP2/aug-cc-pvtz', properties = ['dipole'])
--------------------------------------------------------------------------

    Molecular point group: c1
  Charge       = 0
  Multiplicity = 1
  Basis Set: AUG-CC-PVTZ
    Blend: AUG-CC-PVTZ
  Basis Set: (AUG-CC-PVTZ AUX)
    Blend: AUG-CC-PVTZ-JKFIT

    Orbital Energies [Eh]
    ---------------------

    Doubly Occupied:

       1A    -20.513389     2A    -15.582973     3A    -11.343425
       4A    -11.277173     5A    -11.265228     6A    -11.262297
       7A    -11.242361     8A    -11.219591     9A     -1.368649
      10A     -1.260432    11A     -1.086762    12A     -0.999699
      13A     -0.972369    14A     -0.868324    15A     -0.822163
      16A     -0.727347    17A     -0.689904    18A     -0.669513
      19A     -0.637725    20A     -0.602953    21A     -0.590462
      22A     -0.573499    23A     -0.564871    24A     -0.543849
      25A     -0.516280    26A     -0.513585    27A     -0.507717
      28A     -0.490475    29A     -0.474001    30A     -0.409472
      31A     -0.371150

  @DF-RHF Final Energy:  -363.05551502397515

   => Energetics <=

    Nuclear Repulsion Energy =            393.3882950561015264
    One-Electron Energy =               -1272.9523415469730026
    Two-Electron Energy =                 516.5085314668964429
    Total Energy =                       -363.0555150239750901
  Basis Set: (AUG-CC-PVTZ AUX)
    Blend: AUG-CC-PVTZ-RI
    Molecular point group: c1

    Geometry (in Angstrom), charge = 0, multiplicity = 1:

       Center              X                  Y                   Z               Mass
    ------------   -----------------  -----------------  -----------------  -----------------
         O            0.008157369645     2.018011109587    -0.100709788521    15.994914619570
         N            0.253500369645    -0.270581890413    -0.345040788521    14.003074004430
         C           -0.472532630355    -1.487164890413    -0.015746788521    12.000000000000
         C           -1.931962630355    -1.011215890413    -0.034949788521    12.000000000000
         C           -1.830607630355     0.447097109587     0.414426211479    12.000000000000
         C           -0.439991630355     0.873692109587    -0.037651788521    12.000000000000
         C            1.680031369645    -0.237341890413    -0.608156788521    12.000000000000
         C            2.516191369645    -0.384272890413     0.659395211479    12.000000000000
         H           -0.187748630355    -1.874193890413     0.974212211479     1.007825032230
         H           -0.267083630355    -2.269032890413    -0.755348788521     1.007825032230
         H           -2.694880730355    -1.736083590413     0.716378711479     1.007825032230
         H           -2.314359630355    -1.061509890413    -1.058729788521     1.007825032230
         H           -1.873388630355     0.540303109587     1.506702211479     1.007825032230
         H           -2.592355630355     1.109313109587    -0.003139788521     1.007825032230
         H            1.913529369645    -1.030366890413    -1.327754788521     1.007825032230
         H            1.880599369645     0.725958109587    -1.083548788521     1.007825032230
         H            2.290766369645     0.434858109587     1.346529211479     1.007825032230
         H            2.311467369645    -1.332790890413     1.163741211479     1.007825032230
         H            3.583612369645    -0.351353890413     0.420773211479     1.007825032230

  Basis Set: AUG-CC-PVTZ
    Blend: AUG-CC-PVTZ
  Basis Set: (AUG-CC-PVTZ AUX)
    Blend: AUG-CC-PVTZ-JKFIT
	 Reference Energy          =    -363.0555150239751470 [Eh]
	 Singles Energy            =      -0.0000000000000000 [Eh]
	 Same-Spin Energy          =      -0.3768449211800486 [Eh]
	 Opposite-Spin Energy      =      -1.2486401276162791 [Eh]
	 Correlation Energy        =      -1.6254850487963277 [Eh]
	 Total Energy              =    -364.6810000727714964 [Eh]

	 ================> DF-SCS-MP2 Energies <==================
	-----------------------------------------------------------
	 SCS Same-Spin Scale       =       0.3333333333333333 [-]
	 SCS Opposite-Spin Scale   =       1.2000000000000000 [-]
	 SCS Same-Spin Energy      =      -0.1256149737266829 [Eh]
	 SCS Opposite-Spin Energy  =      -1.4983681531395348 [Eh]
	 SCS Correlation Energy    =      -1.6239831268662177 [Eh]
	 SCS Total Energy          =    -364.6794981508413684 [Eh]
	-----------------------------------------------------------

  Dipole Moment: [D]
     X:    -0.3266      Y:    -3.8358      Z:     0.2028     Total:     3.8550

*** Psi4 exiting successfully. Buy a developer a beer!
