                               Psi4 1.4a3.dev225

  ==> Input File <==

--------------------------------------------------------------------------
#psi4
#
memory 32 gb

molecule  {
0 1
  O       -0.0101440     2.0708820    -0.1140410
  N        0.2351990    -0.2177110    -0.3583720
  C       -0.4908340    -1.4342940    -0.0290780
  C       -1.9502640    -0.9583450    -0.0482810
  C       -1.8489090     0.4999680     0.4010950
  C       -0.4510093     0.9451613    -0.0520079
  C        1.6617300    -0.1844710    -0.6214880
  C        2.4978900    -0.3314020     0.6460640
  H       -0.2060500    -1.8213230     0.9608810
  H       -0.2853850    -2.2161620    -0.7686800
  H       -2.5951790    -1.5710950     0.5868370
  H       -2.3326610    -1.0086390    -1.0720610
  H       -1.8916900     0.5931740     1.4933710
  H       -2.6106570     1.1621840    -0.0164710
  H        1.8952280    -0.9774960    -1.3410860
  H        1.8622980     0.7788290    -1.0968800
  H        2.2724650     0.4877290     1.3331980
  H        2.2931660    -1.2799200     1.1504100
  H        3.5653110    -0.2984830     0.4074420
units angstrom
no_reorient  #important for SAPT in psi4, default
symmetry c1  #important for SAPT in psi4, default
}

set PROPERTIES_ORIGIN ["COM"]
properties('MP2/aug-cc-pvtz', properties = ['dipole'])
--------------------------------------------------------------------------

    Molecular point group: c1
  Charge       = 0
  Multiplicity = 1
  Basis Set: AUG-CC-PVTZ
    Blend: AUG-CC-PVTZ
  Basis Set: (AUG-CC-PVTZ AUX)
    Blend: AUG-CC-PVTZ-JKFIT

    Orbital Energies [Eh]
    ---------------------

    Doubly Occupied:

       1A    -20.516033     2A    -15.577844     3A    -11.341319
       4A    -11.273655     5A    -11.259481     6A    -11.241464
       7A    -11.239230     8A    -11.217840     9A     -1.379091
      10A     -1.257292    11A     -1.085389    12A     -0.998472
      13A     -0.969579    14A     -0.868310    15A     -0.827017
      16A     -0.725251    17A     -0.691662    18A     -0.668075
      19A     -0.640903    20A     -0.603608    21A     -0.588954
      22A     -0.575197    23A     -0.564186    24A     -0.556467
      25A     -0.523043    26A     -0.512517    27A     -0.508207
      28A     -0.489644    29A     -0.480205    30A     -0.409687
      31A     -0.368838

  @DF-RHF Final Energy:  -363.07659924068400

   => Energetics <=

    Nuclear Repulsion Energy =            394.2265888483117351
    One-Electron Energy =               -1274.6894511422096912
    Two-Electron Energy =                 517.3862630532139519
    Total Energy =                       -363.0765992406840041
  Basis Set: (AUG-CC-PVTZ AUX)
    Blend: AUG-CC-PVTZ-RI
    Molecular point group: c1

    Geometry (in Angstrom), charge = 0, multiplicity = 1:

       Center              X                  Y                   Z               Mass
    ------------   -----------------  -----------------  -----------------  -----------------
         O            0.006332790029     2.015038324450    -0.099565342113    15.994914619570
         N            0.251675790029    -0.273554675550    -0.343896342113    14.003074004430
         C           -0.474357209971    -1.490137675550    -0.014602342113    12.000000000000
         C           -1.933787209971    -1.014188675550    -0.033805342113    12.000000000000
         C           -1.832432209971     0.444124324450     0.415570657887    12.000000000000
         C           -0.434532509971     0.889317624450    -0.037532242113    12.000000000000
         C            1.678206790029    -0.240314675550    -0.607012342113    12.000000000000
         C            2.514366790029    -0.387245675550     0.660539657887    12.000000000000
         H           -0.189573209971    -1.877166675550     0.975356657887     1.007825032230
         H           -0.268908209971    -2.272005675550    -0.754204342113     1.007825032230
         H           -2.578702209971    -1.626938675550     0.601312657887     1.007825032230
         H           -2.316184209971    -1.064482675550    -1.057585342113     1.007825032230
         H           -1.875213209971     0.537330324450     1.507846657887     1.007825032230
         H           -2.594180209971     1.106340324450    -0.001995342113     1.007825032230
         H            1.911704790029    -1.033339675550    -1.326610342113     1.007825032230
         H            1.878774790029     0.722985324450    -1.082404342113     1.007825032230
         H            2.288941790029     0.431885324450     1.347673657887     1.007825032230
         H            2.309642790029    -1.335763675550     1.164885657887     1.007825032230
         H            3.581787790029    -0.354326675550     0.421917657887     1.007825032230

  Basis Set: AUG-CC-PVTZ
    Blend: AUG-CC-PVTZ
  Basis Set: (AUG-CC-PVTZ AUX)
    Blend: AUG-CC-PVTZ-JKFIT
	 Reference Energy          =    -363.0765992406840041 [Eh]
	 Singles Energy            =      -0.0000000000000000 [Eh]
	 Same-Spin Energy          =      -0.3764012788513619 [Eh]
	 Opposite-Spin Energy      =      -1.2461871802094189 [Eh]
	 Correlation Energy        =      -1.6225884590607809 [Eh]
	 Total Energy              =    -364.6991876997448117 [Eh]

	 ================> DF-SCS-MP2 Energies <==================
	-----------------------------------------------------------
	 SCS Same-Spin Scale       =       0.3333333333333333 [-]
	 SCS Opposite-Spin Scale   =       1.2000000000000000 [-]
	 SCS Same-Spin Energy      =      -0.1254670929504539 [Eh]
	 SCS Opposite-Spin Energy  =      -1.4954246162513025 [Eh]
	 SCS Correlation Energy    =      -1.6208917092017565 [Eh]
	 SCS Total Energy          =    -364.6974909498857755 [Eh]
	-----------------------------------------------------------

  Dipole Moment: [D]
     X:    -0.4544      Y:    -3.7774      Z:     0.2518     Total:     3.8129

*** Psi4 exiting successfully. Buy a developer a beer!
