                               Psi4 1.4a3.dev225

  ==> Input File <==

--------------------------------------------------------------------------
#psi4
#
memory 32 gb

molecule  {
0 1
  O       -0.0101440     2.0708820    -0.1140410
  N        0.2351990    -0.2177110    -0.3583720
  C       -0.4908340    -1.4342940    -0.0290780
  C       -1.9502640    -0.9583450    -0.0482810
  C       -1.8489090     0.4999680     0.4010950
  C       -0.4582930     0.9265630    -0.0509830
  C        1.6617300    -0.1844710    -0.6214880
  C        2.4978900    -0.3314020     0.6460640
  H       -0.2060500    -1.8213230     0.9608810
  H       -0.2853850    -2.2161620    -0.7686800
  H       -2.5951790    -1.5710950     0.5868370
  H       -2.3326610    -1.0086390    -1.0720610
  H       -1.8936398     0.5974219     1.5431521
  H       -2.6106570     1.1621840    -0.0164710
  H        1.8952280    -0.9774960    -1.3410860
  H        1.8622980     0.7788290    -1.0968800
  H        2.2724650     0.4877290     1.3331980
  H        2.2931660    -1.2799200     1.1504100
  H        3.5653110    -0.2984830     0.4074420
units angstrom
no_reorient  #important for SAPT in psi4, default
symmetry c1  #important for SAPT in psi4, default
}

set PROPERTIES_ORIGIN ["COM"]
properties('MP2/aug-cc-pvtz', properties = ['dipole'])
--------------------------------------------------------------------------

    Molecular point group: c1
  Charge       = 0
  Multiplicity = 1
  Basis Set: AUG-CC-PVTZ
    Blend: AUG-CC-PVTZ
  Basis Set: (AUG-CC-PVTZ AUX)
    Blend: AUG-CC-PVTZ-JKFIT

    Orbital Energies [Eh]
    ---------------------

    Doubly Occupied:

       1A    -20.511642     2A    -15.581166     3A    -11.341697
       4A    -11.275042     5A    -11.261025     6A    -11.245839
       7A    -11.242852     8A    -11.218695     9A     -1.366927
      10A     -1.258621    11A     -1.087119    12A     -1.000001
      13A     -0.970920    14A     -0.870344    15A     -0.827393
      16A     -0.726109    17A     -0.691597    18A     -0.667843
      19A     -0.639341    20A     -0.603339    21A     -0.586361
      22A     -0.571842    23A     -0.562782    24A     -0.554686
      25A     -0.523109    26A     -0.513197    27A     -0.509478
      28A     -0.490193    29A     -0.474741    30A     -0.409575
      31A     -0.369600

  @DF-RHF Final Energy:  -363.07380602120236

   => Energetics <=

    Nuclear Repulsion Energy =            394.0493026358650468
    One-Electron Energy =               -1274.3400673847570488
    Two-Electron Energy =                 517.2169587276896436
    Total Energy =                       -363.0738060212023584
  Basis Set: (AUG-CC-PVTZ AUX)
    Blend: AUG-CC-PVTZ-RI
    Molecular point group: c1

    Geometry (in Angstrom), charge = 0, multiplicity = 1:

       Center              X                  Y                   Z               Mass
    ------------   -----------------  -----------------  -----------------  -----------------
         O            0.007123082260     2.016974038929    -0.100117758046    15.994914619570
         N            0.252466082260    -0.271618961071    -0.344448758046    14.003074004430
         C           -0.473566917740    -1.488201961071    -0.015154758046    12.000000000000
         C           -1.932996917740    -1.012252961071    -0.034357758046    12.000000000000
         C           -1.831641917740     0.446060038929     0.415018241954    12.000000000000
         C           -0.441025917740     0.872655038929    -0.037059758046    12.000000000000
         C            1.678997082260    -0.238378961071    -0.607564758046    12.000000000000
         C            2.515157082260    -0.385309961071     0.659987241954    12.000000000000
         H           -0.188782917740    -1.875230961071     0.974804241954     1.007825032230
         H           -0.268117917740    -2.270069961071    -0.754756758046     1.007825032230
         H           -2.577911917740    -1.625002961071     0.600760241954     1.007825032230
         H           -2.315393917740    -1.062546961071    -1.058137758046     1.007825032230
         H           -1.876372717740     0.543513938929     1.557075341954     1.007825032230
         H           -2.593389917740     1.108276038929    -0.002547758046     1.007825032230
         H            1.912495082260    -1.031403961071    -1.327162758046     1.007825032230
         H            1.879565082260     0.724921038929    -1.082956758046     1.007825032230
         H            2.289732082260     0.433821038929     1.347121241954     1.007825032230
         H            2.310433082260    -1.333827961071     1.164333241954     1.007825032230
         H            3.582578082260    -0.352390961071     0.421365241954     1.007825032230

  Basis Set: AUG-CC-PVTZ
    Blend: AUG-CC-PVTZ
  Basis Set: (AUG-CC-PVTZ AUX)
    Blend: AUG-CC-PVTZ-JKFIT
	 Reference Energy          =    -363.0738060212023584 [Eh]
	 Singles Energy            =      -0.0000000000000000 [Eh]
	 Same-Spin Energy          =      -0.3768180268980941 [Eh]
	 Opposite-Spin Energy      =      -1.2472754344593975 [Eh]
	 Correlation Energy        =      -1.6240934613574916 [Eh]
	 Total Energy              =    -364.6978994825598761 [Eh]

	 ================> DF-SCS-MP2 Energies <==================
	-----------------------------------------------------------
	 SCS Same-Spin Scale       =       0.3333333333333333 [-]
	 SCS Opposite-Spin Scale   =       1.2000000000000000 [-]
	 SCS Same-Spin Energy      =      -0.1256060089660314 [Eh]
	 SCS Opposite-Spin Energy  =      -1.4967305213512769 [Eh]
	 SCS Correlation Energy    =      -1.6223365303173083 [Eh]
	 SCS Total Energy          =    -364.6961425515196424 [Eh]
	-----------------------------------------------------------

  Dipole Moment: [D]
     X:    -0.4580      Y:    -3.9556      Z:     0.2339     Total:     3.9889

*** Psi4 exiting successfully. Buy a developer a beer!
