                               Psi4 1.4a3.dev225

  ==> Input File <==

--------------------------------------------------------------------------
#psi4
#
memory 32 gb

molecule  {
0 1
  O       -0.0101440     2.0708820    -0.1140410
  N        0.2351990    -0.2177110    -0.3583720
  C       -0.4908340    -1.4342940    -0.0290780
  C       -1.9977963    -0.9428438    -0.0489064
  C       -1.8489090     0.4999680     0.4010950
  C       -0.4582930     0.9265630    -0.0509830
  C        1.6617300    -0.1844710    -0.6214880
  C        2.4978900    -0.3314020     0.6460640
  H       -0.2060500    -1.8213230     0.9608810
  H       -0.2853850    -2.2161620    -0.7686800
  H       -2.5951790    -1.5710950     0.5868370
  H       -2.3326610    -1.0086390    -1.0720610
  H       -1.8916900     0.5931740     1.4933710
  H       -2.6106570     1.1621840    -0.0164710
  H        1.8952280    -0.9774960    -1.3410860
  H        1.8622980     0.7788290    -1.0968800
  H        2.2724650     0.4877290     1.3331980
  H        2.2931660    -1.2799200     1.1504100
  H        3.5653110    -0.2984830     0.4074420
units angstrom
no_reorient  #important for SAPT in psi4, default
symmetry c1  #important for SAPT in psi4, default
}

set PROPERTIES_ORIGIN ["COM"]
properties('MP2/aug-cc-pvtz', properties = ['dipole'])
--------------------------------------------------------------------------

    Molecular point group: c1
  Charge       = 0
  Multiplicity = 1
  Basis Set: AUG-CC-PVTZ
    Blend: AUG-CC-PVTZ
  Basis Set: (AUG-CC-PVTZ AUX)
    Blend: AUG-CC-PVTZ-JKFIT

    Orbital Energies [Eh]
    ---------------------

    Doubly Occupied:

       1A    -20.511992     2A    -15.580855     3A    -11.341749
       4A    -11.276187     5A    -11.260893     6A    -11.242061
       7A    -11.239739     8A    -11.218531     9A     -1.366877
      10A     -1.256640    11A     -1.086274    12A     -1.001573
      13A     -0.967131    14A     -0.871627    15A     -0.831419
      16A     -0.725516    17A     -0.692635    18A     -0.665816
      19A     -0.640095    20A     -0.606471    21A     -0.589701
      22A     -0.572043    23A     -0.563320    24A     -0.557038
      25A     -0.526362    26A     -0.514047    27A     -0.504186
      28A     -0.483765    29A     -0.478799    30A     -0.410806
      31A     -0.368970

  @DF-RHF Final Energy:  -363.07394819706315

   => Energetics <=

    Nuclear Repulsion Energy =            393.6662230204531738
    One-Electron Energy =               -1273.5741132113396361
    Two-Electron Energy =                 516.8339419938233732
    Total Energy =                       -363.0739481970631459
  Basis Set: (AUG-CC-PVTZ AUX)
    Blend: AUG-CC-PVTZ-RI
    Molecular point group: c1

    Geometry (in Angstrom), charge = 0, multiplicity = 1:

       Center              X                  Y                   Z               Mass
    ------------   -----------------  -----------------  -----------------  -----------------
         O            0.012149630854     2.015366975532    -0.099607735354    15.994914619570
         N            0.257492630854    -0.273226024468    -0.343938735354    14.003074004430
         C           -0.468540369146    -1.489809024468    -0.014644735354    12.000000000000
         C           -1.975502669146    -0.998358824468    -0.034473135354    12.000000000000
         C           -1.826615369146     0.444452975532     0.415528264646    12.000000000000
         C           -0.435999369146     0.871047975532    -0.036549735354    12.000000000000
         C            1.684023630854    -0.239986024468    -0.607054735354    12.000000000000
         C            2.520183630854    -0.386917024468     0.660497264646    12.000000000000
         H           -0.183756369146    -1.876838024468     0.975314264646     1.007825032230
         H           -0.263091369146    -2.271677024468    -0.754246735354     1.007825032230
         H           -2.572885369146    -1.626610024468     0.601270264646     1.007825032230
         H           -2.310367369146    -1.064154024468    -1.057627735354     1.007825032230
         H           -1.869396369146     0.537658975532     1.507804264646     1.007825032230
         H           -2.588363369146     1.106668975532    -0.002037735354     1.007825032230
         H            1.917521630854    -1.033011024468    -1.326652735354     1.007825032230
         H            1.884591630854     0.723313975532    -1.082446735354     1.007825032230
         H            2.294758630854     0.432213975532     1.347631264646     1.007825032230
         H            2.315459630854    -1.335435024468     1.164843264646     1.007825032230
         H            3.587604630854    -0.353998024468     0.421875264646     1.007825032230

  Basis Set: AUG-CC-PVTZ
    Blend: AUG-CC-PVTZ
  Basis Set: (AUG-CC-PVTZ AUX)
    Blend: AUG-CC-PVTZ-JKFIT
	 Reference Energy          =    -363.0739481970631459 [Eh]
	 Singles Energy            =      -0.0000000000000000 [Eh]
	 Same-Spin Energy          =      -0.3767372074419449 [Eh]
	 Opposite-Spin Energy      =      -1.2470538576554351 [Eh]
	 Correlation Energy        =      -1.6237910650973799 [Eh]
	 Total Energy              =    -364.6977392621605532 [Eh]

	 ================> DF-SCS-MP2 Energies <==================
	-----------------------------------------------------------
	 SCS Same-Spin Scale       =       0.3333333333333333 [-]
	 SCS Opposite-Spin Scale   =       1.2000000000000000 [-]
	 SCS Same-Spin Energy      =      -0.1255790691473150 [Eh]
	 SCS Opposite-Spin Energy  =      -1.4964646291865220 [Eh]
	 SCS Correlation Energy    =      -1.6220436983338369 [Eh]
	 SCS Total Energy          =    -364.6959918953969577 [Eh]
	-----------------------------------------------------------

  Dipole Moment: [D]
     X:    -0.4663      Y:    -3.9490      Z:     0.2514     Total:     3.9844

*** Psi4 exiting successfully. Buy a developer a beer!
