                               Psi4 1.3.2 release

  ==> Input File <==

--------------------------------------------------------------------------
#psi4
#
memory 32 gb

molecule  {
0 1
  O       -0.0101440     2.0708820    -0.1140410
  N        0.2351990    -0.2177110    -0.3583720
  C       -0.4908340    -1.4342940    -0.0290780
  C       -1.9502640    -0.9583450    -0.0482810
  C       -1.8489090     0.4999680     0.4010950
  C       -0.4582930     0.9265630    -0.0509830
  C        1.6617300    -0.1844710    -0.6214880
  C        2.4978900    -0.3314020     0.6460640
  H       -0.2060500    -1.8213230     0.9608810
  H       -0.2853850    -2.2161620    -0.7686800
  H       -2.5951790    -1.5710950     0.5868370
  H       -2.3326610    -1.0086390    -1.0720610
  H       -1.9485116     0.6436721     1.4841522
  H       -2.6106570     1.1621840    -0.0164710
  H        1.8952280    -0.9774960    -1.3410860
  H        1.8622980     0.7788290    -1.0968800
  H        2.2724650     0.4877290     1.3331980
  H        2.2931660    -1.2799200     1.1504100
  H        3.5653110    -0.2984830     0.4074420
units angstrom
no_reorient  #important for SAPT in psi4, default
symmetry c1  #important for SAPT in psi4, default
}

set PROPERTIES_ORIGIN ["COM"]
properties('MP2/aug-cc-pvtz', properties = ['dipole'])
--------------------------------------------------------------------------

    Molecular point group: c1
  Charge       = 0
  Multiplicity = 1
  Basis Set: AUG-CC-PVTZ
    Blend: AUG-CC-PVTZ
  Basis Set: (AUG-CC-PVTZ AUX)
    Blend: AUG-CC-PVTZ-JKFIT

    Orbital Energies [Eh]
    ---------------------

    Doubly Occupied:

       1A    -20.511542     2A    -15.581098     3A    -11.341666
       4A    -11.274869     5A    -11.260975     6A    -11.242790
       7A    -11.239548     8A    -11.218638     9A     -1.366806
      10A     -1.258486    11A     -1.087446    12A     -1.000463
      13A     -0.972039    14A     -0.870296    15A     -0.830319
      16A     -0.726977    17A     -0.692867    18A     -0.667169
      19A     -0.640039    20A     -0.604754    21A     -0.586914
      22A     -0.571522    23A     -0.564049    24A     -0.554231
      25A     -0.522935    26A     -0.513249    27A     -0.511182
      28A     -0.489797    29A     -0.476051    30A     -0.409606
      31A     -0.369450

  @DF-RHF Final Energy:  -363.07533913776268

   => Energetics <=

    Nuclear Repulsion Energy =            394.1783021013235384
    One-Electron Energy =               -1274.5917388938921704
    Two-Electron Energy =                 517.3380976548060062
    Total Energy =                       -363.0753391377626258
  Basis Set: (AUG-CC-PVTZ AUX)
    Blend: AUG-CC-PVTZ-RI
    Molecular point group: c1

    Geometry (in Angstrom), charge = 0, multiplicity = 1:

       Center              X                  Y                   Z               Mass
    ------------   -----------------  -----------------  -----------------  -----------------
         O            0.007612109376     2.016561849027    -0.099591940578    15.994914619570
         N            0.252955109376    -0.272031150973    -0.343922940578    14.003074004430
         C           -0.473077890624    -1.488614150973    -0.014628940578    12.000000000000
         C           -1.932507890624    -1.012665150973    -0.033831940578    12.000000000000
         C           -1.831152890624     0.445647849027     0.415544059422    12.000000000000
         C           -0.440536890624     0.872242849027    -0.036533940578    12.000000000000
         C            1.679486109376    -0.238791150973    -0.607038940578    12.000000000000
         C            2.515646109376    -0.385722150973     0.660513059422    12.000000000000
         H           -0.188293890624    -1.875643150973     0.975330059422     1.007825032230
         H           -0.267628890624    -2.270482150973    -0.754230940578     1.007825032230
         H           -2.577422890624    -1.625415150973     0.601286059422     1.007825032230
         H           -2.314904890624    -1.062959150973    -1.057611940578     1.007825032230
         H           -1.930755490624     0.589351949027     1.498601259422     1.007825032230
         H           -2.592900890624     1.107863849027    -0.002021940578     1.007825032230
         H            1.912984109376    -1.031816150973    -1.326636940578     1.007825032230
         H            1.880054109376     0.724508849027    -1.082430940578     1.007825032230
         H            2.290221109376     0.433408849027     1.347647059422     1.007825032230
         H            2.310922109376    -1.334240150973     1.164859059422     1.007825032230
         H            3.583067109376    -0.352803150973     0.421891059422     1.007825032230

  Basis Set: AUG-CC-PVTZ
    Blend: AUG-CC-PVTZ
  Basis Set: (AUG-CC-PVTZ AUX)
    Blend: AUG-CC-PVTZ-JKFIT
	 Reference Energy          =    -363.0753391377626826 [Eh]
	 Singles Energy            =      -0.0000000000000000 [Eh]
	 Same-Spin Energy          =      -0.3767872416044730 [Eh]
	 Opposite-Spin Energy      =      -1.2468952416307446 [Eh]
	 Correlation Energy        =      -1.6236824832352177 [Eh]
	 Total Energy              =    -364.6990216209978826 [Eh]

	 ================> DF-SCS-MP2 Energies <==================
	-----------------------------------------------------------
	 SCS Same-Spin Scale       =       0.3333333333333333 [-]
	 SCS Opposite-Spin Scale   =       1.2000000000000000 [-]
	 SCS Same-Spin Energy      =      -0.1255957472014910 [Eh]
	 SCS Opposite-Spin Energy  =      -1.4962742899568935 [Eh]
	 SCS Correlation Energy    =      -1.6218700371583845 [Eh]
	 SCS Total Energy          =    -364.6972091749210563 [Eh]
	-----------------------------------------------------------

  Dipole Moment: [D]
     X:    -0.4804      Y:    -3.9344      Z:     0.2605     Total:     3.9722

*** Psi4 exiting successfully. Buy a developer a beer!
