                               Psi4 1.3.2 release

  ==> Input File <==

--------------------------------------------------------------------------
#psi4
#
memory 32 gb

molecule  {
0 1
  O       -0.0101440     2.0708820    -0.1140410
  N        0.2351990    -0.2177110    -0.3583720
  C       -0.6029915    -1.3442984     0.0209301
  C       -1.9502640    -0.9583450    -0.0482810
  C       -1.8489090     0.4999680     0.4010950
  C       -0.4582930     0.9265630    -0.0509830
  C        1.6617300    -0.1844710    -0.6214880
  C        2.4978900    -0.3314020     0.6460640
  H       -0.2060500    -1.8213230     0.9608810
  H       -0.2853850    -2.2161620    -0.7686800
  H       -2.5951790    -1.5710950     0.5868370
  H       -2.3326610    -1.0086390    -1.0720610
  H       -1.8916900     0.5931740     1.4933710
  H       -2.6106570     1.1621840    -0.0164710
  H        1.8952280    -0.9774960    -1.3410860
  H        1.8622980     0.7788290    -1.0968800
  H        2.2724650     0.4877290     1.3331980
  H        2.2931660    -1.2799200     1.1504100
  H        3.5653110    -0.2984830     0.4074420
units angstrom
no_reorient  #important for SAPT in psi4, default
symmetry c1  #important for SAPT in psi4, default
}

set PROPERTIES_ORIGIN ["COM"]
properties('MP2/aug-cc-pvtz', properties = ['dipole'])
--------------------------------------------------------------------------

    Molecular point group: c1
  Charge       = 0
  Multiplicity = 1
  Basis Set: AUG-CC-PVTZ
    Blend: AUG-CC-PVTZ
  Basis Set: (AUG-CC-PVTZ AUX)
    Blend: AUG-CC-PVTZ-JKFIT

    Orbital Energies [Eh]
    ---------------------

    Doubly Occupied:

       1A    -20.510688     2A    -15.581228     3A    -11.339624
       4A    -11.282259     5A    -11.264865     6A    -11.241895
       7A    -11.237626     8A    -11.219905     9A     -1.367581
      10A     -1.264637    11A     -1.106502    12A     -1.006181
      13A     -0.972101    14A     -0.873667    15A     -0.824802
      16A     -0.728078    17A     -0.699556    18A     -0.667260
      19A     -0.634403    20A     -0.606290    21A     -0.589936
      22A     -0.576453    23A     -0.564883    24A     -0.562726
      25A     -0.526366    26A     -0.522211    27A     -0.498909
      28A     -0.496073    29A     -0.466274    30A     -0.407712
      31A     -0.364148

  @DF-RHF Final Energy:  -363.04844632285631

   => Energetics <=

    Nuclear Repulsion Energy =            395.8848847629029706
    One-Electron Energy =               -1277.8569773556364453
    Two-Electron Energy =                 518.9236462698771675
    Total Energy =                       -363.0484463228563072
  Basis Set: (AUG-CC-PVTZ AUX)
    Blend: AUG-CC-PVTZ-RI
    Molecular point group: c1

    Geometry (in Angstrom), charge = 0, multiplicity = 1:

       Center              X                  Y                   Z               Mass
    ------------   -----------------  -----------------  -----------------  -----------------
         O            0.019007382271     2.007461946578    -0.104980747064    15.994914619570
         N            0.264350382271    -0.281131053422    -0.349311747064    14.003074004430
         C           -0.573840117729    -1.407718453422     0.029990352936    12.000000000000
         C           -1.921112617729    -1.021765053422    -0.039220747064    12.000000000000
         C           -1.819757617729     0.436547946578     0.410155252936    12.000000000000
         C           -0.429141617729     0.863142946578    -0.041922747064    12.000000000000
         C            1.690881382271    -0.247891053422    -0.612427747064    12.000000000000
         C            2.527041382271    -0.394822053422     0.655124252936    12.000000000000
         H           -0.176898617729    -1.884743053422     0.969941252936     1.007825032230
         H           -0.256233617729    -2.279582053422    -0.759619747064     1.007825032230
         H           -2.566027617729    -1.634515053422     0.595897252936     1.007825032230
         H           -2.303509617729    -1.072059053422    -1.063000747064     1.007825032230
         H           -1.862538617729     0.529753946578     1.502431252936     1.007825032230
         H           -2.581505617729     1.098763946578    -0.007410747064     1.007825032230
         H            1.924379382271    -1.040916053422    -1.332025747064     1.007825032230
         H            1.891449382271     0.715408946578    -1.087819747064     1.007825032230
         H            2.301616382271     0.424308946578     1.342258252936     1.007825032230
         H            2.322317382271    -1.343340053422     1.159470252936     1.007825032230
         H            3.594462382271    -0.361903053422     0.416502252936     1.007825032230

  Basis Set: AUG-CC-PVTZ
    Blend: AUG-CC-PVTZ
  Basis Set: (AUG-CC-PVTZ AUX)
    Blend: AUG-CC-PVTZ-JKFIT
	 Reference Energy          =    -363.0484463228563072 [Eh]
	 Singles Energy            =      -0.0000000000000000 [Eh]
	 Same-Spin Energy          =      -0.3784143640216654 [Eh]
	 Opposite-Spin Energy      =      -1.2489996991171282 [Eh]
	 Correlation Energy        =      -1.6274140631387937 [Eh]
	 Total Energy              =    -364.6758603859951222 [Eh]

	 ================> DF-SCS-MP2 Energies <==================
	-----------------------------------------------------------
	 SCS Same-Spin Scale       =       0.3333333333333333 [-]
	 SCS Opposite-Spin Scale   =       1.2000000000000000 [-]
	 SCS Same-Spin Energy      =      -0.1261381213405551 [Eh]
	 SCS Opposite-Spin Energy  =      -1.4987996389405538 [Eh]
	 SCS Correlation Energy    =      -1.6249377602811088 [Eh]
	 SCS Total Energy          =    -364.6733840831374209 [Eh]
	-----------------------------------------------------------

  Dipole Moment: [D]
     X:    -0.5184      Y:    -3.8083      Z:     0.3237     Total:     3.8571

*** Psi4 exiting successfully. Buy a developer a beer!
