                               Psi4 1.3.2 release

  ==> Input File <==

--------------------------------------------------------------------------
#psi4
#
memory 32 gb

molecule  {
0 1
  O       -0.0101440     2.0708820    -0.1140410
  N        0.2351990    -0.2177110    -0.3583720
  C       -0.4678868    -1.3546052    -0.0969409
  C       -1.9502640    -0.9583450    -0.0482810
  C       -1.8489090     0.4999680     0.4010950
  C       -0.4582930     0.9265630    -0.0509830
  C        1.6617300    -0.1844710    -0.6214880
  C        2.4978900    -0.3314020     0.6460640
  H       -0.2060500    -1.8213230     0.9608810
  H       -0.2853850    -2.2161620    -0.7686800
  H       -2.5951790    -1.5710950     0.5868370
  H       -2.3326610    -1.0086390    -1.0720610
  H       -1.8916900     0.5931740     1.4933710
  H       -2.6106570     1.1621840    -0.0164710
  H        1.8952280    -0.9774960    -1.3410860
  H        1.8622980     0.7788290    -1.0968800
  H        2.2724650     0.4877290     1.3331980
  H        2.2931660    -1.2799200     1.1504100
  H        3.5653110    -0.2984830     0.4074420
units angstrom
no_reorient  #important for SAPT in psi4, default
symmetry c1  #important for SAPT in psi4, default
}

set PROPERTIES_ORIGIN ["COM"]
properties('MP2/aug-cc-pvtz', properties = ['dipole'])
--------------------------------------------------------------------------

    Molecular point group: c1
  Charge       = 0
  Multiplicity = 1
  Basis Set: AUG-CC-PVTZ
    Blend: AUG-CC-PVTZ
  Basis Set: (AUG-CC-PVTZ AUX)
    Blend: AUG-CC-PVTZ-JKFIT

    Orbital Energies [Eh]
    ---------------------

    Doubly Occupied:

       1A    -20.515778     2A    -15.583686     3A    -11.345136
       4A    -11.276090     5A    -11.264855     6A    -11.241732
       7A    -11.240584     8A    -11.220082     9A     -1.373832
      10A     -1.280553    11A     -1.090513    12A     -1.006339
      13A     -0.969298    14A     -0.874874    15A     -0.833159
      16A     -0.732485    17A     -0.694989    18A     -0.673690
      19A     -0.643131    20A     -0.607682    21A     -0.588595
      22A     -0.577390    23A     -0.562270    24A     -0.556912
      25A     -0.525494    26A     -0.514415    27A     -0.507473
      28A     -0.491633    29A     -0.471651    30A     -0.412941
      31A     -0.363583

  @DF-RHF Final Energy:  -363.06421675445483

   => Energetics <=

    Nuclear Repulsion Energy =            396.0085361636623702
    One-Electron Energy =               -1278.0638151242610547
    Two-Electron Energy =                 518.9910622061438517
    Total Energy =                       -363.0642167544548329
  Basis Set: (AUG-CC-PVTZ AUX)
    Blend: AUG-CC-PVTZ-RI
    Molecular point group: c1

    Geometry (in Angstrom), charge = 0, multiplicity = 1:

       Center              X                  Y                   Z               Mass
    ------------   -----------------  -----------------  -----------------  -----------------
         O            0.004670646015     2.008555660366    -0.092472777769    15.994914619570
         N            0.250013646015    -0.280037339634    -0.336803777769    14.003074004430
         C           -0.453072153985    -1.416931539634    -0.075372677769    12.000000000000
         C           -1.935449353985    -1.020671339634    -0.026712777769    12.000000000000
         C           -1.834094353985     0.437641660366     0.422663222231    12.000000000000
         C           -0.443478353985     0.864236660366    -0.029414777769    12.000000000000
         C            1.676544646015    -0.246797339634    -0.599919777769    12.000000000000
         C            2.512704646015    -0.393728339634     0.667632222231    12.000000000000
         H           -0.191235353985    -1.883649339634     0.982449222231     1.007825032230
         H           -0.270570353985    -2.278488339634    -0.747111777769     1.007825032230
         H           -2.580364353985    -1.633421339634     0.608405222231     1.007825032230
         H           -2.317846353985    -1.070965339634    -1.050492777769     1.007825032230
         H           -1.876875353985     0.530847660366     1.514939222231     1.007825032230
         H           -2.595842353985     1.099857660366     0.005097222231     1.007825032230
         H            1.910042646015    -1.039822339634    -1.319517777769     1.007825032230
         H            1.877112646015     0.716502660366    -1.075311777769     1.007825032230
         H            2.287279646015     0.425402660366     1.354766222231     1.007825032230
         H            2.307980646015    -1.342246339634     1.171978222231     1.007825032230
         H            3.580125646015    -0.360809339634     0.429010222231     1.007825032230

  Basis Set: AUG-CC-PVTZ
    Blend: AUG-CC-PVTZ
  Basis Set: (AUG-CC-PVTZ AUX)
    Blend: AUG-CC-PVTZ-JKFIT
	 Reference Energy          =    -363.0642167544548329 [Eh]
	 Singles Energy            =      -0.0000000000000000 [Eh]
	 Same-Spin Energy          =      -0.3775817261964072 [Eh]
	 Opposite-Spin Energy      =      -1.2474052472142596 [Eh]
	 Correlation Energy        =      -1.6249869734106668 [Eh]
	 Total Energy              =    -364.6892037278655039 [Eh]

	 ================> DF-SCS-MP2 Energies <==================
	-----------------------------------------------------------
	 SCS Same-Spin Scale       =       0.3333333333333333 [-]
	 SCS Opposite-Spin Scale   =       1.2000000000000000 [-]
	 SCS Same-Spin Energy      =      -0.1258605753988024 [Eh]
	 SCS Opposite-Spin Energy  =      -1.4968862966571115 [Eh]
	 SCS Correlation Energy    =      -1.6227468720559139 [Eh]
	 SCS Total Energy          =    -364.6869636265107602 [Eh]
	-----------------------------------------------------------

  Dipole Moment: [D]
     X:    -0.3839      Y:    -3.6615      Z:     0.1026     Total:     3.6830

*** Psi4 exiting successfully. Buy a developer a beer!
