                               Psi4 1.3.2 release

  ==> Input File <==

--------------------------------------------------------------------------
#psi4
#
memory 32 gb

molecule  {
0 1
  O       -0.0101440     2.0708820    -0.1140410
  N        0.2351990    -0.2177110    -0.3583720
  C       -0.5456335    -1.5771798    -0.0780943
  C       -1.9502640    -0.9583450    -0.0482810
  C       -1.8489090     0.4999680     0.4010950
  C       -0.4582930     0.9265630    -0.0509830
  C        1.6617300    -0.1844710    -0.6214880
  C        2.4978900    -0.3314020     0.6460640
  H       -0.2060500    -1.8213230     0.9608810
  H       -0.2853850    -2.2161620    -0.7686800
  H       -2.5951790    -1.5710950     0.5868370
  H       -2.3326610    -1.0086390    -1.0720610
  H       -1.8916900     0.5931740     1.4933710
  H       -2.6106570     1.1621840    -0.0164710
  H        1.8952280    -0.9774960    -1.3410860
  H        1.8622980     0.7788290    -1.0968800
  H        2.2724650     0.4877290     1.3331980
  H        2.2931660    -1.2799200     1.1504100
  H        3.5653110    -0.2984830     0.4074420
units angstrom
no_reorient  #important for SAPT in psi4, default
symmetry c1  #important for SAPT in psi4, default
}

set PROPERTIES_ORIGIN ["COM"]
properties('MP2/aug-cc-pvtz', properties = ['dipole'])
--------------------------------------------------------------------------

    Molecular point group: c1
  Charge       = 0
  Multiplicity = 1
  Basis Set: AUG-CC-PVTZ
    Blend: AUG-CC-PVTZ
  Basis Set: (AUG-CC-PVTZ AUX)
    Blend: AUG-CC-PVTZ-JKFIT

    Orbital Energies [Eh]
    ---------------------

    Doubly Occupied:

       1A    -20.506699     2A    -15.576607     3A    -11.337759
       4A    -11.281199     5A    -11.255958     6A    -11.246489
       7A    -11.241373     8A    -11.215670     9A     -1.359971
      10A     -1.233413    11A     -1.085362    12A     -0.994963
      13A     -0.981804    14A     -0.864522    15A     -0.832566
      16A     -0.718715    17A     -0.686408    18A     -0.671824
      19A     -0.639434    20A     -0.602249    21A     -0.592954
      22A     -0.573976    23A     -0.553836    24A     -0.547545
      25A     -0.530303    26A     -0.517471    27A     -0.506120
      28A     -0.479929    29A     -0.475600    30A     -0.403650
      31A     -0.366216

  @DF-RHF Final Energy:  -363.04907835558828

   => Energetics <=

    Nuclear Repulsion Energy =            391.5818183122266305
    One-Electron Energy =               -1269.5006262163581141
    Two-Electron Energy =                 514.8697295485430914
    Total Energy =                       -363.0490783555883354
  Basis Set: (AUG-CC-PVTZ AUX)
    Blend: AUG-CC-PVTZ-RI
    Molecular point group: c1

    Geometry (in Angstrom), charge = 0, multiplicity = 1:

       Center              X                  Y                   Z               Mass
    ------------   -----------------  -----------------  -----------------  -----------------
         O            0.012920795215     2.032174330460    -0.094472698819    15.994914619570
         N            0.258263795215    -0.256418669540    -0.338803698819    14.003074004430
         C           -0.522568704785    -1.615887469540    -0.058525998819    12.000000000000
         C           -1.927199204785    -0.997052669540    -0.028712698819    12.000000000000
         C           -1.825844204785     0.461260330460     0.420663301181    12.000000000000
         C           -0.435228204785     0.887855330460    -0.031414698819    12.000000000000
         C            1.684794795215    -0.223178669540    -0.601919698819    12.000000000000
         C            2.520954795215    -0.370109669540     0.665632301181    12.000000000000
         H           -0.182985204785    -1.860030669540     0.980449301181     1.007825032230
         H           -0.262320204785    -2.254869669540    -0.749111698819     1.007825032230
         H           -2.572114204785    -1.609802669540     0.606405301181     1.007825032230
         H           -2.309596204785    -1.047346669540    -1.052492698819     1.007825032230
         H           -1.868625204785     0.554466330460     1.512939301181     1.007825032230
         H           -2.587592204785     1.123476330460     0.003097301181     1.007825032230
         H            1.918292795215    -1.016203669540    -1.321517698819     1.007825032230
         H            1.885362795215     0.740121330460    -1.077311698819     1.007825032230
         H            2.295529795215     0.449021330460     1.352766301181     1.007825032230
         H            2.316230795215    -1.318627669540     1.169978301181     1.007825032230
         H            3.588375795215    -0.337190669540     0.427010301181     1.007825032230

  Basis Set: AUG-CC-PVTZ
    Blend: AUG-CC-PVTZ
  Basis Set: (AUG-CC-PVTZ AUX)
    Blend: AUG-CC-PVTZ-JKFIT
	 Reference Energy          =    -363.0490783555882786 [Eh]
	 Singles Energy            =      -0.0000000000000000 [Eh]
	 Same-Spin Energy          =      -0.3769117509898892 [Eh]
	 Opposite-Spin Energy      =      -1.2488091853550292 [Eh]
	 Correlation Energy        =      -1.6257209363449183 [Eh]
	 Total Energy              =    -364.6747992919331978 [Eh]

	 ================> DF-SCS-MP2 Energies <==================
	-----------------------------------------------------------
	 SCS Same-Spin Scale       =       0.3333333333333333 [-]
	 SCS Opposite-Spin Scale   =       1.2000000000000000 [-]
	 SCS Same-Spin Energy      =      -0.1256372503299631 [Eh]
	 SCS Opposite-Spin Energy  =      -1.4985710224260349 [Eh]
	 SCS Correlation Energy    =      -1.6242082727559979 [Eh]
	 SCS Total Energy          =    -364.6732866283442718 [Eh]
	-----------------------------------------------------------

  Dipole Moment: [D]
     X:    -0.6080      Y:    -4.2783      Z:     0.2230     Total:     4.3270

*** Psi4 exiting successfully. Buy a developer a beer!
