                               Psi4 1.4a3.dev225

  ==> Input File <==

--------------------------------------------------------------------------
#psi4
#
memory 32 gb

molecule  {
0 1
  O       -0.0101440     2.0708820    -0.1140410
  N        0.2351990    -0.2177110    -0.3583720
  C       -0.4908340    -1.4342940    -0.0290780
  C       -1.9502640    -0.9583450    -0.0482810
  C       -1.8489090     0.4999680     0.4010950
  C       -0.4582930     0.9265630    -0.0509830
  C        1.6617300    -0.1844710    -0.6214880
  C        2.4978900    -0.3314020     0.6460640
  H       -0.2060500    -1.8213230     0.9608810
  H       -0.2853850    -2.2161620    -0.7686800
  H       -2.5951790    -1.5710950     0.5868370
  H       -2.3326610    -1.0086390    -1.0720610
  H       -1.8924699     0.5948732     1.5132834
  H       -2.6106570     1.1621840    -0.0164710
  H        1.8952280    -0.9774960    -1.3410860
  H        1.8622980     0.7788290    -1.0968800
  H        2.2724650     0.4877290     1.3331980
  H        2.2931660    -1.2799200     1.1504100
  H        3.5653110    -0.2984830     0.4074420
units angstrom
no_reorient  #important for SAPT in psi4, default
symmetry c1  #important for SAPT in psi4, default
}

set PROPERTIES_ORIGIN ["COM"]
properties('MP2/aug-cc-pvtz', properties = ['dipole'])
--------------------------------------------------------------------------

    Molecular point group: c1
  Charge       = 0
  Multiplicity = 1
  Basis Set: AUG-CC-PVTZ
    Blend: AUG-CC-PVTZ
  Basis Set: (AUG-CC-PVTZ AUX)
    Blend: AUG-CC-PVTZ-JKFIT

    Orbital Energies [Eh]
    ---------------------

    Doubly Occupied:

       1A    -20.511614     2A    -15.581038     3A    -11.341482
       4A    -11.274949     5A    -11.260954     6A    -11.242797
       7A    -11.242137     8A    -11.218668     9A     -1.366881
      10A     -1.258537    11A     -1.087534    12A     -1.000278
      13A     -0.971580    14A     -0.870279    15A     -0.828584
      16A     -0.726251    17A     -0.692572    18A     -0.667758
      19A     -0.639374    20A     -0.604015    21A     -0.588159
      22A     -0.572077    23A     -0.563058    24A     -0.554656
      25A     -0.522998    26A     -0.513142    27A     -0.509528
      28A     -0.490151    29A     -0.476421    30A     -0.409457
      31A     -0.369543

  @DF-RHF Final Energy:  -363.07541323267100

   => Energetics <=

    Nuclear Repulsion Energy =            394.1904776465727878
    One-Electron Energy =               -1274.6188377706871506
    Two-Electron Energy =                 517.3529468914433664
    Total Energy =                       -363.0754132326709396
  Basis Set: (AUG-CC-PVTZ AUX)
    Blend: AUG-CC-PVTZ-RI
    Molecular point group: c1

    Geometry (in Angstrom), charge = 0, multiplicity = 1:

       Center              X                  Y                   Z               Mass
    ------------   -----------------  -----------------  -----------------  -----------------
         O            0.007112655906     2.016996753391    -0.099851562947    15.994914619570
         N            0.252455655906    -0.271596246609    -0.344182562947    14.003074004430
         C           -0.473577344094    -1.488179246609    -0.014888562947    12.000000000000
         C           -1.933007344094    -1.012230246609    -0.034091562947    12.000000000000
         C           -1.831652344094     0.446082753391     0.415284437053    12.000000000000
         C           -0.441036344094     0.872677753391    -0.036793562947    12.000000000000
         C            1.678986655906    -0.238356246609    -0.607298562947    12.000000000000
         C            2.515146655906    -0.385287246609     0.660253437053    12.000000000000
         H           -0.188793344094    -1.875208246609     0.975070437053     1.007825032230
         H           -0.268128344094    -2.270047246609    -0.754490562947     1.007825032230
         H           -2.577922344094    -1.624980246609     0.601026437053     1.007825032230
         H           -2.315404344094    -1.062524246609    -1.057871562947     1.007825032230
         H           -1.875213244094     0.540987953391     1.527472837053     1.007825032230
         H           -2.593400344094     1.108298753391    -0.002281562947     1.007825032230
         H            1.912484655906    -1.031381246609    -1.326896562947     1.007825032230
         H            1.879554655906     0.724943753391    -1.082690562947     1.007825032230
         H            2.289721655906     0.433843753391     1.347387437053     1.007825032230
         H            2.310422655906    -1.333805246609     1.164599437053     1.007825032230
         H            3.582567655906    -0.352368246609     0.421631437053     1.007825032230

  Basis Set: AUG-CC-PVTZ
    Blend: AUG-CC-PVTZ
  Basis Set: (AUG-CC-PVTZ AUX)
    Blend: AUG-CC-PVTZ-JKFIT
	 Reference Energy          =    -363.0754132326709964 [Eh]
	 Singles Energy            =      -0.0000000000000000 [Eh]
	 Same-Spin Energy          =      -0.3767971750362460 [Eh]
	 Opposite-Spin Energy      =      -1.2470562364551654 [Eh]
	 Correlation Energy        =      -1.6238534114914114 [Eh]
	 Total Energy              =    -364.6992666441624351 [Eh]

	 ================> DF-SCS-MP2 Energies <==================
	-----------------------------------------------------------
	 SCS Same-Spin Scale       =       0.3333333333333333 [-]
	 SCS Opposite-Spin Scale   =       1.2000000000000000 [-]
	 SCS Same-Spin Energy      =      -0.1255990583454153 [Eh]
	 SCS Opposite-Spin Energy  =      -1.4964674837461984 [Eh]
	 SCS Correlation Energy    =      -1.6220665420916138 [Eh]
	 SCS Total Energy          =    -364.6974797747625985 [Eh]
	-----------------------------------------------------------

  Dipole Moment: [D]
     X:    -0.4612      Y:    -3.9501      Z:     0.2461     Total:     3.9845

*** Psi4 exiting successfully. Buy a developer a beer!
