                               Psi4 1.3.2 release

  ==> Input File <==

--------------------------------------------------------------------------
#psi4
#
memory 32 gb

molecule  {
0 1
  O       -0.0101440     2.0708820    -0.1140410
  N        0.2351990    -0.2177110    -0.3583720
  C       -0.4908340    -1.4342940    -0.0290780
  C       -1.9502640    -0.9583450    -0.0482810
  C       -1.7510731     0.5227869     0.2764644
  C       -0.4582930     0.9265630    -0.0509830
  C        1.6617300    -0.1844710    -0.6214880
  C        2.4978900    -0.3314020     0.6460640
  H       -0.2060500    -1.8213230     0.9608810
  H       -0.2853850    -2.2161620    -0.7686800
  H       -2.5951790    -1.5710950     0.5868370
  H       -2.3326610    -1.0086390    -1.0720610
  H       -1.8916900     0.5931740     1.4933710
  H       -2.6106570     1.1621840    -0.0164710
  H        1.8952280    -0.9774960    -1.3410860
  H        1.8622980     0.7788290    -1.0968800
  H        2.2724650     0.4877290     1.3331980
  H        2.2931660    -1.2799200     1.1504100
  H        3.5653110    -0.2984830     0.4074420
units angstrom
no_reorient  #important for SAPT in psi4, default
symmetry c1  #important for SAPT in psi4, default
}

set PROPERTIES_ORIGIN ["COM"]
properties('MP2/aug-cc-pvtz', properties = ['dipole'])
--------------------------------------------------------------------------

    Molecular point group: c1
  Charge       = 0
  Multiplicity = 1
  Basis Set: AUG-CC-PVTZ
    Blend: AUG-CC-PVTZ
  Basis Set: (AUG-CC-PVTZ AUX)
    Blend: AUG-CC-PVTZ-JKFIT

    Orbital Energies [Eh]
    ---------------------

    Doubly Occupied:

       1A    -20.508767     2A    -15.580089     3A    -11.335459
       4A    -11.274940     5A    -11.259936     6A    -11.246662
       7A    -11.244867     8A    -11.217959     9A     -1.370051
      10A     -1.262246    11A     -1.095412    12A     -0.998567
      13A     -0.985991    14A     -0.872424    15A     -0.829848
      16A     -0.732353    17A     -0.693019    18A     -0.670917
      19A     -0.643345    20A     -0.604196    21A     -0.581201
      22A     -0.579189    23A     -0.565939    24A     -0.559507
      25A     -0.523999    26A     -0.513072    27A     -0.504083
      28A     -0.487738    29A     -0.449926    30A     -0.418436
      31A     -0.369835

  @DF-RHF Final Energy:  -363.05001827470494

   => Energetics <=

    Nuclear Repulsion Energy =            396.6145276713947396
    One-Electron Energy =               -1279.3691448214883621
    Two-Electron Energy =                 519.7045988753886832
    Total Energy =                       -363.0500182747049394
  Basis Set: (AUG-CC-PVTZ AUX)
    Blend: AUG-CC-PVTZ-RI
    Molecular point group: c1

    Geometry (in Angstrom), charge = 0, multiplicity = 1:

       Center              X                  Y                   Z               Mass
    ------------   -----------------  -----------------  -----------------  -----------------
         O           -0.003276224378     2.014590452325    -0.086448830839    15.994914619570
         N            0.242066775622    -0.274002547675    -0.330779830839    14.003074004430
         C           -0.483966224378    -1.490585547675    -0.001485830839    12.000000000000
         C           -1.943396224378    -1.014636547675    -0.020688830839    12.000000000000
         C           -1.744205324378     0.466495352325     0.304056569161    12.000000000000
         C           -0.451425224378     0.870271452325    -0.023390830839    12.000000000000
         C            1.668597775622    -0.240762547675    -0.593895830839    12.000000000000
         C            2.504757775622    -0.387693547675     0.673656169161    12.000000000000
         H           -0.199182224378    -1.877614547675     0.988473169161     1.007825032230
         H           -0.278517224378    -2.272453547675    -0.741087830839     1.007825032230
         H           -2.588311224378    -1.627386547675     0.614429169161     1.007825032230
         H           -2.325793224378    -1.064930547675    -1.044468830839     1.007825032230
         H           -1.884822224378     0.536882452325     1.520963169161     1.007825032230
         H           -2.603789224378     1.105892452325     0.011121169161     1.007825032230
         H            1.902095775622    -1.033787547675    -1.313493830839     1.007825032230
         H            1.869165775622     0.722537452325    -1.069287830839     1.007825032230
         H            2.279332775622     0.431437452325     1.360790169161     1.007825032230
         H            2.300033775622    -1.336211547675     1.178002169161     1.007825032230
         H            3.572178775622    -0.354774547675     0.435034169161     1.007825032230

  Basis Set: AUG-CC-PVTZ
    Blend: AUG-CC-PVTZ
  Basis Set: (AUG-CC-PVTZ AUX)
    Blend: AUG-CC-PVTZ-JKFIT
	 Reference Energy          =    -363.0500182747049394 [Eh]
	 Singles Energy            =      -0.0000000000000000 [Eh]
	 Same-Spin Energy          =      -0.3783388079808016 [Eh]
	 Opposite-Spin Energy      =      -1.2489801435303198 [Eh]
	 Correlation Energy        =      -1.6273189515111215 [Eh]
	 Total Energy              =    -364.6773372262160819 [Eh]

	 ================> DF-SCS-MP2 Energies <==================
	-----------------------------------------------------------
	 SCS Same-Spin Scale       =       0.3333333333333333 [-]
	 SCS Opposite-Spin Scale   =       1.2000000000000000 [-]
	 SCS Same-Spin Energy      =      -0.1261129359936005 [Eh]
	 SCS Opposite-Spin Energy  =      -1.4987761722363837 [Eh]
	 SCS Correlation Energy    =      -1.6248891082299841 [Eh]
	 SCS Total Energy          =    -364.6749073829349186 [Eh]
	-----------------------------------------------------------

  Dipole Moment: [D]
     X:    -0.6612      Y:    -4.0477      Z:     0.2445     Total:     4.1086

*** Psi4 exiting successfully. Buy a developer a beer!
