                               Psi4 1.3.2 release

  ==> Input File <==

--------------------------------------------------------------------------
#psi4
#
memory 32 gb

molecule  {
0 1
  O       -0.0101440     2.0708820    -0.1140410
  N        0.2579617    -0.1008840    -0.2640338
  C       -0.4908340    -1.4342940    -0.0290780
  C       -1.9502640    -0.9583450    -0.0482810
  C       -1.8489090     0.4999680     0.4010950
  C       -0.4582930     0.9265630    -0.0509830
  C        1.6617300    -0.1844710    -0.6214880
  C        2.4978900    -0.3314020     0.6460640
  H       -0.2060500    -1.8213230     0.9608810
  H       -0.2853850    -2.2161620    -0.7686800
  H       -2.5951790    -1.5710950     0.5868370
  H       -2.3326610    -1.0086390    -1.0720610
  H       -1.8916900     0.5931740     1.4933710
  H       -2.6106570     1.1621840    -0.0164710
  H        1.8952280    -0.9774960    -1.3410860
  H        1.8622980     0.7788290    -1.0968800
  H        2.2724650     0.4877290     1.3331980
  H        2.2931660    -1.2799200     1.1504100
  H        3.5653110    -0.2984830     0.4074420
units angstrom
no_reorient  #important for SAPT in psi4, default
symmetry c1  #important for SAPT in psi4, default
}

set PROPERTIES_ORIGIN ["COM"]
properties('MP2/aug-cc-pvtz', properties = ['dipole'])
--------------------------------------------------------------------------

    Molecular point group: c1
  Charge       = 0
  Multiplicity = 1
  Basis Set: AUG-CC-PVTZ
    Blend: AUG-CC-PVTZ
  Basis Set: (AUG-CC-PVTZ AUX)
    Blend: AUG-CC-PVTZ-JKFIT

    Orbital Energies [Eh]
    ---------------------

    Doubly Occupied:

       1A    -20.487328     2A    -15.585420     3A    -11.322201
       4A    -11.285214     5A    -11.265686     6A    -11.243986
       7A    -11.237504     8A    -11.220139     9A     -1.368259
      10A     -1.254110    11A     -1.090612    12A     -1.013607
      13A     -0.969988    14A     -0.874425    15A     -0.835635
      16A     -0.727767    17A     -0.692098    18A     -0.668200
      19A     -0.635638    20A     -0.614302    21A     -0.585659
      22A     -0.580513    23A     -0.557860    24A     -0.547822
      25A     -0.520027    26A     -0.518714    27A     -0.508328
      28A     -0.483559    29A     -0.475771    30A     -0.398135
      31A     -0.371659

  @DF-RHF Final Energy:  -363.06058023074951

   => Energetics <=

    Nuclear Repulsion Energy =            395.4383260390645773
    One-Electron Energy =               -1277.1174824899610485
    Two-Electron Energy =                 518.6185762201469061
    Total Energy =                       -363.0605802307495651
  Basis Set: (AUG-CC-PVTZ AUX)
    Blend: AUG-CC-PVTZ-RI
    Molecular point group: c1

    Geometry (in Angstrom), charge = 0, multiplicity = 1:

       Center              X                  Y                   Z               Mass
    ------------   -----------------  -----------------  -----------------  -----------------
         O            0.004287025449     2.002545339346    -0.111355894637    15.994914619570
         N            0.272392725449    -0.169220660654    -0.261348694637    14.003074004430
         C           -0.476402974551    -1.502630660654    -0.026392894637    12.000000000000
         C           -1.935832974551    -1.026681660654    -0.045595894637    12.000000000000
         C           -1.834477974551     0.431631339346     0.403780105363    12.000000000000
         C           -0.443861974551     0.858226339346    -0.048297894637    12.000000000000
         C            1.676161025449    -0.252807660654    -0.618802894637    12.000000000000
         C            2.512321025449    -0.399738660654     0.648749105363    12.000000000000
         H           -0.191618974551    -1.889659660654     0.963566105363     1.007825032230
         H           -0.270953974551    -2.284498660654    -0.765994894637     1.007825032230
         H           -2.580747974551    -1.639431660654     0.589522105363     1.007825032230
         H           -2.318229974551    -1.076975660654    -1.069375894637     1.007825032230
         H           -1.877258974551     0.524837339346     1.496056105363     1.007825032230
         H           -2.596225974551     1.093847339346    -0.013785894637     1.007825032230
         H            1.909659025449    -1.045832660654    -1.338400894637     1.007825032230
         H            1.876729025449     0.710492339346    -1.094194894637     1.007825032230
         H            2.286896025449     0.419392339346     1.335883105363     1.007825032230
         H            2.307597025449    -1.348256660654     1.153095105363     1.007825032230
         H            3.579742025449    -0.366819660654     0.410127105363     1.007825032230

  Basis Set: AUG-CC-PVTZ
    Blend: AUG-CC-PVTZ
  Basis Set: (AUG-CC-PVTZ AUX)
    Blend: AUG-CC-PVTZ-JKFIT
	 Reference Energy          =    -363.0605802307495082 [Eh]
	 Singles Energy            =      -0.0000000000000000 [Eh]
	 Same-Spin Energy          =      -0.3762229787223739 [Eh]
	 Opposite-Spin Energy      =      -1.2462508973215978 [Eh]
	 Correlation Energy        =      -1.6224738760439716 [Eh]
	 Total Energy              =    -364.6830541067934632 [Eh]

	 ================> DF-SCS-MP2 Energies <==================
	-----------------------------------------------------------
	 SCS Same-Spin Scale       =       0.3333333333333333 [-]
	 SCS Opposite-Spin Scale   =       1.2000000000000000 [-]
	 SCS Same-Spin Energy      =      -0.1254076595741246 [Eh]
	 SCS Opposite-Spin Energy  =      -1.4955010767859174 [Eh]
	 SCS Correlation Energy    =      -1.6209087363600421 [Eh]
	 SCS Total Energy          =    -364.6814889671095443 [Eh]
	-----------------------------------------------------------

  Dipole Moment: [D]
     X:    -0.3711      Y:    -4.6333      Z:     0.0922     Total:     4.6490

*** Psi4 exiting successfully. Buy a developer a beer!
