                               Psi4 1.3.2 release

  ==> Input File <==

--------------------------------------------------------------------------
#psi4
#
memory 32 gb

molecule  {
0 1
  O       -0.0101440     2.0708820    -0.1140410
  N        0.2351990    -0.2177110    -0.3583720
  C       -0.5665673    -1.3757200     0.0046963
  C       -1.9502640    -0.9583450    -0.0482810
  C       -1.8489090     0.4999680     0.4010950
  C       -0.4582930     0.9265630    -0.0509830
  C        1.6617300    -0.1844710    -0.6214880
  C        2.4978900    -0.3314020     0.6460640
  H       -0.2060500    -1.8213230     0.9608810
  H       -0.2853850    -2.2161620    -0.7686800
  H       -2.5951790    -1.5710950     0.5868370
  H       -2.3326610    -1.0086390    -1.0720610
  H       -1.8916900     0.5931740     1.4933710
  H       -2.6106570     1.1621840    -0.0164710
  H        1.8952280    -0.9774960    -1.3410860
  H        1.8622980     0.7788290    -1.0968800
  H        2.2724650     0.4877290     1.3331980
  H        2.2931660    -1.2799200     1.1504100
  H        3.5653110    -0.2984830     0.4074420
units angstrom
no_reorient  #important for SAPT in psi4, default
symmetry c1  #important for SAPT in psi4, default
}

set PROPERTIES_ORIGIN ["COM"]
properties('MP2/aug-cc-pvtz', properties = ['dipole'])
--------------------------------------------------------------------------

    Molecular point group: c1
  Charge       = 0
  Multiplicity = 1
  Basis Set: AUG-CC-PVTZ
    Blend: AUG-CC-PVTZ
  Basis Set: (AUG-CC-PVTZ AUX)
    Blend: AUG-CC-PVTZ-JKFIT

    Orbital Energies [Eh]
    ---------------------

    Doubly Occupied:

       1A    -20.510855     2A    -15.580888     3A    -11.340004
       4A    -11.279164     5A    -11.263468     6A    -11.241024
       7A    -11.239172     8A    -11.219457     9A     -1.367132
      10A     -1.262146    11A     -1.099336    12A     -1.003881
      13A     -0.971870    14A     -0.872416    15A     -0.826542
      16A     -0.726820    17A     -0.697295    18A     -0.666680
      19A     -0.635810    20A     -0.605356    21A     -0.587905
      22A     -0.571664    23A     -0.565830    24A     -0.561029
      25A     -0.523536    26A     -0.521563    27A     -0.502365
      28A     -0.495612    29A     -0.471947    30A     -0.408207
      31A     -0.366478

  @DF-RHF Final Energy:  -363.06369255262189

   => Energetics <=

    Nuclear Repulsion Energy =            395.3169520575697788
    One-Electron Energy =               -1276.7903876234320251
    Two-Electron Energy =                 518.4097430132403588
    Total Energy =                       -363.0636925526218874
  Basis Set: (AUG-CC-PVTZ AUX)
    Blend: AUG-CC-PVTZ-RI
    Molecular point group: c1

    Geometry (in Angstrom), charge = 0, multiplicity = 1:

       Center              X                  Y                   Z               Mass
    ------------   -----------------  -----------------  -----------------  -----------------
         O            0.015142201054     2.010796273155    -0.103258085239    15.994914619570
         N            0.260485201054    -0.277796726845    -0.347589085239    14.003074004430
         C           -0.541281098946    -1.435805726845     0.015479214761    12.000000000000
         C           -1.924977798946    -1.018430726845    -0.037498085239    12.000000000000
         C           -1.823622798946     0.439882273155     0.411877914761    12.000000000000
         C           -0.433006798946     0.866477273155    -0.040200085239    12.000000000000
         C            1.687016201054    -0.244556726845    -0.610705085239    12.000000000000
         C            2.523176201054    -0.391487726845     0.656846914761    12.000000000000
         H           -0.180763798946    -1.881408726845     0.971663914761     1.007825032230
         H           -0.260098798946    -2.276247726845    -0.757897085239     1.007825032230
         H           -2.569892798946    -1.631180726845     0.597619914761     1.007825032230
         H           -2.307374798946    -1.068724726845    -1.061278085239     1.007825032230
         H           -1.866403798946     0.533088273155     1.504153914761     1.007825032230
         H           -2.585370798946     1.102098273155    -0.005688085239     1.007825032230
         H            1.920514201054    -1.037581726845    -1.330303085239     1.007825032230
         H            1.887584201054     0.718743273155    -1.086097085239     1.007825032230
         H            2.297751201054     0.427643273155     1.343980914761     1.007825032230
         H            2.318452201054    -1.340005726845     1.161192914761     1.007825032230
         H            3.590597201054    -0.358568726845     0.418224914761     1.007825032230

  Basis Set: AUG-CC-PVTZ
    Blend: AUG-CC-PVTZ
  Basis Set: (AUG-CC-PVTZ AUX)
    Blend: AUG-CC-PVTZ-JKFIT
	 Reference Energy          =    -363.0636925526218874 [Eh]
	 Singles Energy            =      -0.0000000000000000 [Eh]
	 Same-Spin Energy          =      -0.3776434561993751 [Eh]
	 Opposite-Spin Energy      =      -1.2478959139121490 [Eh]
	 Correlation Energy        =      -1.6255393701115242 [Eh]
	 Total Energy              =    -364.6892319227334269 [Eh]

	 ================> DF-SCS-MP2 Energies <==================
	-----------------------------------------------------------
	 SCS Same-Spin Scale       =       0.3333333333333333 [-]
	 SCS Opposite-Spin Scale   =       1.2000000000000000 [-]
	 SCS Same-Spin Energy      =      -0.1258811520664584 [Eh]
	 SCS Opposite-Spin Energy  =      -1.4974750966945789 [Eh]
	 SCS Correlation Energy    =      -1.6233562487610373 [Eh]
	 SCS Total Energy          =    -364.6870488013829004 [Eh]
	-----------------------------------------------------------

  Dipole Moment: [D]
     X:    -0.4935      Y:    -3.8696      Z:     0.2965     Total:     3.9122

*** Psi4 exiting successfully. Buy a developer a beer!
