                               Psi4 1.3.2 release

  ==> Input File <==

--------------------------------------------------------------------------
#psi4
#
memory 32 gb

molecule  {
0 1
  O       -0.0101440     2.0708820    -0.1140410
  N        0.2351990    -0.2177110    -0.3583720
  C       -0.4908340    -1.4342940    -0.0290780
  C       -1.9502640    -0.9583450    -0.0482810
  C       -1.8489090     0.4999680     0.4010950
  C       -0.4379777     0.9391285    -0.0528598
  C        1.6617300    -0.1844710    -0.6214880
  C        2.4978900    -0.3314020     0.6460640
  H       -0.2060500    -1.8213230     0.9608810
  H       -0.2853850    -2.2161620    -0.7686800
  H       -2.5951790    -1.5710950     0.5868370
  H       -2.3326610    -1.0086390    -1.0720610
  H       -1.8916900     0.5931740     1.4933710
  H       -2.6106570     1.1621840    -0.0164710
  H        1.8952280    -0.9774960    -1.3410860
  H        1.8622980     0.7788290    -1.0968800
  H        2.2724650     0.4877290     1.3331980
  H        2.2931660    -1.2799200     1.1504100
  H        3.5653110    -0.2984830     0.4074420
units angstrom
no_reorient  #important for SAPT in psi4, default
symmetry c1  #important for SAPT in psi4, default
}

set PROPERTIES_ORIGIN ["COM"]
properties('MP2/aug-cc-pvtz', properties = ['dipole'])
--------------------------------------------------------------------------

    Molecular point group: c1
  Charge       = 0
  Multiplicity = 1
  Basis Set: AUG-CC-PVTZ
    Blend: AUG-CC-PVTZ
  Basis Set: (AUG-CC-PVTZ AUX)
    Blend: AUG-CC-PVTZ-JKFIT

    Orbital Energies [Eh]
    ---------------------

    Doubly Occupied:

       1A    -20.514602     2A    -15.579534     3A    -11.340285
       4A    -11.274586     5A    -11.260330     6A    -11.241099
       7A    -11.238418     8A    -11.218583     9A     -1.378210
      10A     -1.260217    11A     -1.085083    12A     -0.999594
      13A     -0.969304    14A     -0.869266    15A     -0.827663
      16A     -0.725335    17A     -0.692481    18A     -0.667949
      19A     -0.641339    20A     -0.603993    21A     -0.588782
      22A     -0.574833    23A     -0.563842    24A     -0.556479
      25A     -0.523366    26A     -0.513170    27A     -0.508020
      28A     -0.490277    29A     -0.480019    30A     -0.407881
      31A     -0.370428

  @DF-RHF Final Energy:  -363.07674972498899

   => Energetics <=

    Nuclear Repulsion Energy =            394.3481424234454380
    One-Electron Energy =               -1274.9198463573463869
    Two-Electron Energy =                 517.4949542089119632
    Total Energy =                       -363.0767497249889857
  Basis Set: (AUG-CC-PVTZ AUX)
    Blend: AUG-CC-PVTZ-RI
    Molecular point group: c1

    Geometry (in Angstrom), charge = 0, multiplicity = 1:

       Center              X                  Y                   Z               Mass
    ------------   -----------------  -----------------  -----------------  -----------------
         O            0.004949932051     2.015678499532    -0.099474942107    15.994914619570
         N            0.250292932051    -0.272914500468    -0.343805942107    14.003074004430
         C           -0.475740067949    -1.489497500468    -0.014511942107    12.000000000000
         C           -1.935170067949    -1.013548500468    -0.033714942107    12.000000000000
         C           -1.833815067949     0.444764499532     0.415661057893    12.000000000000
         C           -0.422883767949     0.883924999532    -0.038293742107    12.000000000000
         C            1.676823932051    -0.239674500468    -0.606921942107    12.000000000000
         C            2.512983932051    -0.386605500468     0.660630057893    12.000000000000
         H           -0.190956067949    -1.876526500468     0.975447057893     1.007825032230
         H           -0.270291067949    -2.271365500468    -0.754113942107     1.007825032230
         H           -2.580085067949    -1.626298500468     0.601403057893     1.007825032230
         H           -2.317567067949    -1.063842500468    -1.057494942107     1.007825032230
         H           -1.876596067949     0.537970499532     1.507937057893     1.007825032230
         H           -2.595563067949     1.106980499532    -0.001904942107     1.007825032230
         H            1.910321932051    -1.032699500468    -1.326519942107     1.007825032230
         H            1.877391932051     0.723625499532    -1.082313942107     1.007825032230
         H            2.287558932051     0.432525499532     1.347764057893     1.007825032230
         H            2.308259932051    -1.335123500468     1.164976057893     1.007825032230
         H            3.580404932051    -0.353686500468     0.422008057893     1.007825032230

  Basis Set: AUG-CC-PVTZ
    Blend: AUG-CC-PVTZ
  Basis Set: (AUG-CC-PVTZ AUX)
    Blend: AUG-CC-PVTZ-JKFIT
	 Reference Energy          =    -363.0767497249889857 [Eh]
	 Singles Energy            =      -0.0000000000000000 [Eh]
	 Same-Spin Energy          =      -0.3763341763151443 [Eh]
	 Opposite-Spin Energy      =      -1.2460779321370694 [Eh]
	 Correlation Energy        =      -1.6224121084522136 [Eh]
	 Total Energy              =    -364.6991618334412237 [Eh]

	 ================> DF-SCS-MP2 Energies <==================
	-----------------------------------------------------------
	 SCS Same-Spin Scale       =       0.3333333333333333 [-]
	 SCS Opposite-Spin Scale   =       1.2000000000000000 [-]
	 SCS Same-Spin Energy      =      -0.1254447254383814 [Eh]
	 SCS Opposite-Spin Energy  =      -1.4952935185644833 [Eh]
	 SCS Correlation Energy    =      -1.6207382440028648 [Eh]
	 SCS Total Energy          =    -364.6974879689918225 [Eh]
	-----------------------------------------------------------

  Dipole Moment: [D]
     X:    -0.3902      Y:    -3.8380      Z:     0.2350     Total:     3.8649

*** Psi4 exiting successfully. Buy a developer a beer!
