                               Psi4 1.3.2 release

  ==> Input File <==

--------------------------------------------------------------------------
#psi4
#
memory 32 gb

molecule  {
0 1
  O       -0.0101440     2.0708820    -0.1140410
  N        0.2351990    -0.2177110    -0.3583720
  C       -0.4908340    -1.4342940    -0.0290780
  C       -1.9502640    -0.9583450    -0.0482810
  C       -1.8489090     0.4999680     0.4010950
  C       -0.4582930     0.9265630    -0.0509830
  C        1.6617300    -0.1844710    -0.6214880
  C        2.4978900    -0.3314020     0.6460640
  H       -0.2060500    -1.8213230     0.9608810
  H       -0.2853850    -2.2161620    -0.7686800
  H       -2.5951790    -1.5710950     0.5868370
  H       -2.3326610    -1.0086390    -1.0720610
  H       -1.9059258     0.6058508     1.4915639
  H       -2.6106570     1.1621840    -0.0164710
  H        1.8952280    -0.9774960    -1.3410860
  H        1.8622980     0.7788290    -1.0968800
  H        2.2724650     0.4877290     1.3331980
  H        2.2931660    -1.2799200     1.1504100
  H        3.5653110    -0.2984830     0.4074420
units angstrom
no_reorient  #important for SAPT in psi4, default
symmetry c1  #important for SAPT in psi4, default
}

set PROPERTIES_ORIGIN ["COM"]
properties('MP2/aug-cc-pvtz', properties = ['dipole'])
--------------------------------------------------------------------------

    Molecular point group: c1
  Charge       = 0
  Multiplicity = 1
  Basis Set: AUG-CC-PVTZ
    Blend: AUG-CC-PVTZ
  Basis Set: (AUG-CC-PVTZ AUX)
    Blend: AUG-CC-PVTZ-JKFIT

    Orbital Energies [Eh]
    ---------------------

    Doubly Occupied:

       1A    -20.511592     2A    -15.580998     3A    -11.341425
       4A    -11.274884     5A    -11.260927     6A    -11.242525
       7A    -11.239852     8A    -11.218650     9A     -1.366847
      10A     -1.258488    11A     -1.087748    12A     -1.000489
      13A     -0.972052    14A     -0.870256    15A     -0.829663
      16A     -0.726521    17A     -0.693155    18A     -0.667561
      19A     -0.639560    20A     -0.604637    21A     -0.588727
      22A     -0.572060    23A     -0.563411    24A     -0.554535
      25A     -0.522925    26A     -0.513129    27A     -0.509979
      28A     -0.490028    29A     -0.477203    30A     -0.409447
      31A     -0.369494

  @DF-RHF Final Energy:  -363.07590760295244

   => Energetics <=

    Nuclear Repulsion Energy =            394.2589691237773764
    One-Electron Energy =               -1274.7522113071761396
    Two-Electron Energy =                 517.4173345804463224
    Total Energy =                       -363.0759076029523840
  Basis Set: (AUG-CC-PVTZ AUX)
    Blend: AUG-CC-PVTZ-RI
    Molecular point group: c1

    Geometry (in Angstrom), charge = 0, multiplicity = 1:

       Center              X                  Y                   Z               Mass
    ------------   -----------------  -----------------  -----------------  -----------------
         O            0.007232577249     2.016898919093    -0.099657994950    15.994914619570
         N            0.252575577249    -0.271694080907    -0.343988994950    14.003074004430
         C           -0.473457422751    -1.488277080907    -0.014694994950    12.000000000000
         C           -1.932887422751    -1.012328080907    -0.033897994950    12.000000000000
         C           -1.831532422751     0.445984919093     0.415478005050    12.000000000000
         C           -0.440916422751     0.872579919093    -0.036599994950    12.000000000000
         C            1.679106577249    -0.238454080907    -0.607104994950    12.000000000000
         C            2.515266577249    -0.385385080907     0.660447005050    12.000000000000
         H           -0.188673422751    -1.875306080907     0.975264005050     1.007825032230
         H           -0.268008422751    -2.270145080907    -0.754296994950     1.007825032230
         H           -2.577802422751    -1.625078080907     0.601220005050     1.007825032230
         H           -2.315284422751    -1.062622080907    -1.057677994950     1.007825032230
         H           -1.888549222751     0.551867719093     1.505946905050     1.007825032230
         H           -2.593280422751     1.108200919093    -0.002087994950     1.007825032230
         H            1.912604577249    -1.031479080907    -1.326702994950     1.007825032230
         H            1.879674577249     0.724845919093    -1.082496994950     1.007825032230
         H            2.289841577249     0.433745919093     1.347581005050     1.007825032230
         H            2.310542577249    -1.333903080907     1.164793005050     1.007825032230
         H            3.582687577249    -0.352466080907     0.421825005050     1.007825032230

  Basis Set: AUG-CC-PVTZ
    Blend: AUG-CC-PVTZ
  Basis Set: (AUG-CC-PVTZ AUX)
    Blend: AUG-CC-PVTZ-JKFIT
	 Reference Energy          =    -363.0759076029524408 [Eh]
	 Singles Energy            =      -0.0000000000000000 [Eh]
	 Same-Spin Energy          =      -0.3767801128327288 [Eh]
	 Opposite-Spin Energy      =      -1.2469088017510812 [Eh]
	 Correlation Energy        =      -1.6236889145838100 [Eh]
	 Total Energy              =    -364.6995965175362358 [Eh]

	 ================> DF-SCS-MP2 Energies <==================
	-----------------------------------------------------------
	 SCS Same-Spin Scale       =       0.3333333333333333 [-]
	 SCS Opposite-Spin Scale   =       1.2000000000000000 [-]
	 SCS Same-Spin Energy      =      -0.1255933709442429 [Eh]
	 SCS Opposite-Spin Energy  =      -1.4962905621012974 [Eh]
	 SCS Correlation Energy    =      -1.6218839330455403 [Eh]
	 SCS Total Energy          =    -364.6977915359979647 [Eh]
	-----------------------------------------------------------

  Dipole Moment: [D]
     X:    -0.4670      Y:    -3.9437      Z:     0.2555     Total:     3.9795

*** Psi4 exiting successfully. Buy a developer a beer!
