                               Psi4 1.3.2 release

  ==> Input File <==

--------------------------------------------------------------------------
#psi4
#
memory 32 gb

molecule  {
0 1
  O       -0.0101440     2.0708820    -0.1140410
  N        0.2351990    -0.2177110    -0.3583720
  C       -0.4691831    -1.4474296    -0.0308499
  C       -1.9502640    -0.9583450    -0.0482810
  C       -1.8489090     0.4999680     0.4010950
  C       -0.4582930     0.9265630    -0.0509830
  C        1.6617300    -0.1844710    -0.6214880
  C        2.4978900    -0.3314020     0.6460640
  H       -0.2060500    -1.8213230     0.9608810
  H       -0.2853850    -2.2161620    -0.7686800
  H       -2.5951790    -1.5710950     0.5868370
  H       -2.3326610    -1.0086390    -1.0720610
  H       -1.8916900     0.5931740     1.4933710
  H       -2.6106570     1.1621840    -0.0164710
  H        1.8952280    -0.9774960    -1.3410860
  H        1.8622980     0.7788290    -1.0968800
  H        2.2724650     0.4877290     1.3331980
  H        2.2931660    -1.2799200     1.1504100
  H        3.5653110    -0.2984830     0.4074420
units angstrom
no_reorient  #important for SAPT in psi4, default
symmetry c1  #important for SAPT in psi4, default
}

set PROPERTIES_ORIGIN ["COM"]
properties('MP2/aug-cc-pvtz', properties = ['dipole'])
--------------------------------------------------------------------------

    Molecular point group: c1
  Charge       = 0
  Multiplicity = 1
  Basis Set: AUG-CC-PVTZ
    Blend: AUG-CC-PVTZ
  Basis Set: (AUG-CC-PVTZ AUX)
    Blend: AUG-CC-PVTZ-JKFIT

    Orbital Energies [Eh]
    ---------------------

    Doubly Occupied:

       1A    -20.511899     2A    -15.581111     3A    -11.341766
       4A    -11.274101     5A    -11.260286     6A    -11.243258
       7A    -11.239793     8A    -11.218522     9A     -1.366921
      10A     -1.257805    11A     -1.085401    12A     -0.999888
      13A     -0.972051    14A     -0.869851    15A     -0.830047
      16A     -0.726752    17A     -0.692961    18A     -0.667881
      19A     -0.640180    20A     -0.604609    21A     -0.590775
      22A     -0.573554    23A     -0.562395    24A     -0.552931
      25A     -0.523322    26A     -0.513135    27A     -0.507735
      28A     -0.487138    29A     -0.478162    30A     -0.409763
      31A     -0.370285

  @DF-RHF Final Energy:  -363.07542294381000

   => Energetics <=

    Nuclear Repulsion Energy =            394.0535255772388723
    One-Electron Energy =               -1274.3493372761331557
    Two-Electron Energy =                 517.2203887550842865
    Total Energy =                       -363.0754229438100538
  Basis Set: (AUG-CC-PVTZ AUX)
    Blend: AUG-CC-PVTZ-RI
    Molecular point group: c1

    Geometry (in Angstrom), charge = 0, multiplicity = 1:

       Center              X                  Y                   Z               Mass
    ------------   -----------------  -----------------  -----------------  -----------------
         O            0.004808203859     2.018405790975    -0.099486073649    15.994914619570
         N            0.250151203859    -0.270187209025    -0.343817073649    14.003074004430
         C           -0.454230896141    -1.499905809025    -0.016294973649    12.000000000000
         C           -1.935311796141    -1.010821209025    -0.033726073649    12.000000000000
         C           -1.833956796141     0.447491790975     0.415649926351    12.000000000000
         C           -0.443340796141     0.874086790975    -0.036428073649    12.000000000000
         C            1.676682203859    -0.236947209025    -0.606933073649    12.000000000000
         C            2.512842203859    -0.383878209025     0.660618926351    12.000000000000
         H           -0.191097796141    -1.873799209025     0.975435926351     1.007825032230
         H           -0.270432796141    -2.268638209025    -0.754125073649     1.007825032230
         H           -2.580226796141    -1.623571209025     0.601391926351     1.007825032230
         H           -2.317708796141    -1.061115209025    -1.057506073649     1.007825032230
         H           -1.876737796141     0.540697790975     1.507925926351     1.007825032230
         H           -2.595704796141     1.109707790975    -0.001916073649     1.007825032230
         H            1.910180203859    -1.029972209025    -1.326531073649     1.007825032230
         H            1.877250203859     0.726352790975    -1.082325073649     1.007825032230
         H            2.287417203859     0.435252790975     1.347752926351     1.007825032230
         H            2.308118203859    -1.332396209025     1.164964926351     1.007825032230
         H            3.580263203859    -0.350959209025     0.421996926351     1.007825032230

  Basis Set: AUG-CC-PVTZ
    Blend: AUG-CC-PVTZ
  Basis Set: (AUG-CC-PVTZ AUX)
    Blend: AUG-CC-PVTZ-JKFIT
	 Reference Energy          =    -363.0754229438099969 [Eh]
	 Singles Energy            =      -0.0000000000000000 [Eh]
	 Same-Spin Energy          =      -0.3767054663592157 [Eh]
	 Opposite-Spin Energy      =      -1.2469386311649200 [Eh]
	 Correlation Energy        =      -1.6236440975241357 [Eh]
	 Total Energy              =    -364.6990670413341604 [Eh]

	 ================> DF-SCS-MP2 Energies <==================
	-----------------------------------------------------------
	 SCS Same-Spin Scale       =       0.3333333333333333 [-]
	 SCS Opposite-Spin Scale   =       1.2000000000000000 [-]
	 SCS Same-Spin Energy      =      -0.1255684887864052 [Eh]
	 SCS Opposite-Spin Energy  =      -1.4963263573979040 [Eh]
	 SCS Correlation Energy    =      -1.6218948461843092 [Eh]
	 SCS Total Energy          =    -364.6973177899943153 [Eh]
	-----------------------------------------------------------

  Dipole Moment: [D]
     X:    -0.4569      Y:    -3.9549      Z:     0.2552     Total:     3.9894

*** Psi4 exiting successfully. Buy a developer a beer!
