                               Psi4 1.3.2 release

  ==> Input File <==

--------------------------------------------------------------------------
#psi4
#
memory 32 gb

molecule  {
0 1
  O       -0.0101440     2.0708820    -0.1140410
  N        0.2351990    -0.2177110    -0.3583720
  C       -0.4908340    -1.4342940    -0.0290780
  C       -1.9502640    -0.9583450    -0.0482810
  C       -1.8356543     0.6906791     0.4598622
  C       -0.4582930     0.9265630    -0.0509830
  C        1.6617300    -0.1844710    -0.6214880
  C        2.4978900    -0.3314020     0.6460640
  H       -0.2060500    -1.8213230     0.9608810
  H       -0.2853850    -2.2161620    -0.7686800
  H       -2.5951790    -1.5710950     0.5868370
  H       -2.3326610    -1.0086390    -1.0720610
  H       -1.8916900     0.5931740     1.4933710
  H       -2.6106570     1.1621840    -0.0164710
  H        1.8952280    -0.9774960    -1.3410860
  H        1.8622980     0.7788290    -1.0968800
  H        2.2724650     0.4877290     1.3331980
  H        2.2931660    -1.2799200     1.1504100
  H        3.5653110    -0.2984830     0.4074420
units angstrom
no_reorient  #important for SAPT in psi4, default
symmetry c1  #important for SAPT in psi4, default
}

set PROPERTIES_ORIGIN ["COM"]
properties('MP2/aug-cc-pvtz', properties = ['dipole'])
--------------------------------------------------------------------------

    Molecular point group: c1
  Charge       = 0
  Multiplicity = 1
  Basis Set: AUG-CC-PVTZ
    Blend: AUG-CC-PVTZ
  Basis Set: (AUG-CC-PVTZ AUX)
    Blend: AUG-CC-PVTZ-JKFIT

    Orbital Energies [Eh]
    ---------------------

    Doubly Occupied:

       1A    -20.507483     2A    -15.583212     3A    -11.340571
       4A    -11.274325     5A    -11.261968     6A    -11.247434
       7A    -11.239231     8A    -11.219089     9A     -1.367202
      10A     -1.255363    11A     -1.073330    12A     -0.995613
      13A     -0.977397    14A     -0.866898    15A     -0.836890
      16A     -0.727901    17A     -0.692335    18A     -0.664759
      19A     -0.650396    20A     -0.611504    21A     -0.603804
      22A     -0.572360    23A     -0.567234    24A     -0.545497
      25A     -0.521385    26A     -0.512257    27A     -0.496181
      28A     -0.491563    29A     -0.464491    30A     -0.400334
      31A     -0.368913

  @DF-RHF Final Energy:  -363.04774488449902

   => Energetics <=

    Nuclear Repulsion Energy =            392.7854020667689383
    One-Electron Energy =               -1271.7924559144614705
    Two-Electron Energy =                 515.9593089631935072
    Total Energy =                       -363.0477448844990249
  Basis Set: (AUG-CC-PVTZ AUX)
    Blend: AUG-CC-PVTZ-RI
    Molecular point group: c1

    Geometry (in Angstrom), charge = 0, multiplicity = 1:

       Center              X                  Y                   Z               Mass
    ------------   -----------------  -----------------  -----------------  -----------------
         O            0.005699172900     1.996774445992    -0.105910225510    15.994914619570
         N            0.251042172900    -0.291818554008    -0.350241225510    14.003074004430
         C           -0.474990827100    -1.508401554008    -0.020947225510    12.000000000000
         C           -1.934420827100    -1.032452554008    -0.040150225510    12.000000000000
         C           -1.819811127100     0.616571545992     0.467992974490    12.000000000000
         C           -0.442449827100     0.852455445992    -0.042852225510    12.000000000000
         C            1.677573172900    -0.258578554008    -0.613357225510    12.000000000000
         C            2.513733172900    -0.405509554008     0.654194774490    12.000000000000
         H           -0.190206827100    -1.895430554008     0.969011774490     1.007825032230
         H           -0.269541827100    -2.290269554008    -0.760549225510     1.007825032230
         H           -2.579335827100    -1.645202554008     0.594967774490     1.007825032230
         H           -2.316817827100    -1.082746554008    -1.063930225510     1.007825032230
         H           -1.875846827100     0.519066445992     1.501501774490     1.007825032230
         H           -2.594813827100     1.088076445992    -0.008340225510     1.007825032230
         H            1.911071172900    -1.051603554008    -1.332955225510     1.007825032230
         H            1.878141172900     0.704721445992    -1.088749225510     1.007825032230
         H            2.288308172900     0.413621445992     1.341328774490     1.007825032230
         H            2.309009172900    -1.354027554008     1.158540774490     1.007825032230
         H            3.581154172900    -0.372590554008     0.415572774490     1.007825032230

  Basis Set: AUG-CC-PVTZ
    Blend: AUG-CC-PVTZ
  Basis Set: (AUG-CC-PVTZ AUX)
    Blend: AUG-CC-PVTZ-JKFIT
	 Reference Energy          =    -363.0477448844990249 [Eh]
	 Singles Energy            =      -0.0000000000000000 [Eh]
	 Same-Spin Energy          =      -0.3766212604052114 [Eh]
	 Opposite-Spin Energy      =      -1.2483598369583273 [Eh]
	 Correlation Energy        =      -1.6249810973635386 [Eh]
	 Total Energy              =    -364.6727259818625839 [Eh]

	 ================> DF-SCS-MP2 Energies <==================
	-----------------------------------------------------------
	 SCS Same-Spin Scale       =       0.3333333333333333 [-]
	 SCS Opposite-Spin Scale   =       1.2000000000000000 [-]
	 SCS Same-Spin Energy      =      -0.1255404201350704 [Eh]
	 SCS Opposite-Spin Energy  =      -1.4980318043499927 [Eh]
	 SCS Correlation Energy    =      -1.6235722244850632 [Eh]
	 SCS Total Energy          =    -364.6713171089841126 [Eh]
	-----------------------------------------------------------

  Dipole Moment: [D]
     X:    -0.4645      Y:    -3.9171      Z:     0.2878     Total:     3.9551

*** Psi4 exiting successfully. Buy a developer a beer!
