                               Psi4 1.3.2 release

  ==> Input File <==

--------------------------------------------------------------------------
#psi4
#
memory 32 gb

molecule  {
0 1
  O       -0.0101440     2.0708820    -0.1140410
  N        0.2351990    -0.2177110    -0.3583720
  C       -0.4908340    -1.4342940    -0.0290780
  C       -1.9502640    -0.9583450    -0.0482810
  C       -1.8489090     0.4999680     0.4010950
  C       -0.4582930     0.9265630    -0.0509830
  C        1.6617300    -0.1844710    -0.6214880
  C        2.4978900    -0.3314020     0.6460640
  H       -0.2399066    -1.7198508     1.0035908
  H       -0.2853850    -2.2161620    -0.7686800
  H       -2.5951790    -1.5710950     0.5868370
  H       -2.3326610    -1.0086390    -1.0720610
  H       -1.8916900     0.5931740     1.4933710
  H       -2.6106570     1.1621840    -0.0164710
  H        1.8952280    -0.9774960    -1.3410860
  H        1.8622980     0.7788290    -1.0968800
  H        2.2724650     0.4877290     1.3331980
  H        2.2931660    -1.2799200     1.1504100
  H        3.5653110    -0.2984830     0.4074420
units angstrom
no_reorient  #important for SAPT in psi4, default
symmetry c1  #important for SAPT in psi4, default
}

set PROPERTIES_ORIGIN ["COM"]
properties('MP2/aug-cc-pvtz', properties = ['dipole'])
--------------------------------------------------------------------------

    Molecular point group: c1
  Charge       = 0
  Multiplicity = 1
  Basis Set: AUG-CC-PVTZ
    Blend: AUG-CC-PVTZ
  Basis Set: (AUG-CC-PVTZ AUX)
    Blend: AUG-CC-PVTZ-JKFIT

    Orbital Energies [Eh]
    ---------------------

    Doubly Occupied:

       1A    -20.511136     2A    -15.579696     3A    -11.340908
       4A    -11.275214     5A    -11.260728     6A    -11.241849
       7A    -11.239949     8A    -11.218483     9A     -1.366487
      10A     -1.258551    11A     -1.088054    12A     -1.000348
      13A     -0.971770    14A     -0.870196    15A     -0.828483
      16A     -0.725628    17A     -0.694260    18A     -0.667801
      19A     -0.639375    20A     -0.604727    21A     -0.589526
      22A     -0.573311    23A     -0.563249    24A     -0.554067
      25A     -0.522697    26A     -0.513339    27A     -0.508829
      28A     -0.490001    29A     -0.477579    30A     -0.408815
      31A     -0.368698

  @DF-RHF Final Energy:  -363.07443730600005

   => Energetics <=

    Nuclear Repulsion Energy =            394.4517835544432955
    One-Electron Energy =               -1275.1449405884416137
    Two-Electron Energy =                 517.6187197279982684
    Total Energy =                       -363.0744373060000498
  Basis Set: (AUG-CC-PVTZ AUX)
    Blend: AUG-CC-PVTZ-RI
    Molecular point group: c1

    Geometry (in Angstrom), charge = 0, multiplicity = 1:

       Center              X                  Y                   Z               Mass
    ------------   -----------------  -----------------  -----------------  -----------------
         O            0.007407441264     2.016107558898    -0.100054737379    15.994914619570
         N            0.252750441264    -0.272485441102    -0.344385737379    14.003074004430
         C           -0.473282558736    -1.489068441102    -0.015091737379    12.000000000000
         C           -1.932712558736    -1.013119441102    -0.034294737379    12.000000000000
         C           -1.831357558736     0.445193558898     0.415081262621    12.000000000000
         C           -0.440741558736     0.871788558898    -0.036996737379    12.000000000000
         C            1.679281441264    -0.239245441102    -0.607501737379    12.000000000000
         C            2.515441441264    -0.386176441102     0.660050262621    12.000000000000
         H           -0.222355158736    -1.774625241102     1.017577062621     1.007825032230
         H           -0.267833558736    -2.270936441102    -0.754693737379     1.007825032230
         H           -2.577627558736    -1.625869441102     0.600823262621     1.007825032230
         H           -2.315109558736    -1.063413441102    -1.058074737379     1.007825032230
         H           -1.874138558736     0.538399558898     1.507357262621     1.007825032230
         H           -2.593105558736     1.107409558898    -0.002484737379     1.007825032230
         H            1.912779441264    -1.032270441102    -1.327099737379     1.007825032230
         H            1.879849441264     0.724054558898    -1.082893737379     1.007825032230
         H            2.290016441264     0.432954558898     1.347184262621     1.007825032230
         H            2.310717441264    -1.334694441102     1.164396262621     1.007825032230
         H            3.582862441264    -0.353257441102     0.421428262621     1.007825032230

  Basis Set: AUG-CC-PVTZ
    Blend: AUG-CC-PVTZ
  Basis Set: (AUG-CC-PVTZ AUX)
    Blend: AUG-CC-PVTZ-JKFIT
	 Reference Energy          =    -363.0744373060000498 [Eh]
	 Singles Energy            =      -0.0000000000000000 [Eh]
	 Same-Spin Energy          =      -0.3769458242076170 [Eh]
	 Opposite-Spin Energy      =      -1.2472003463655843 [Eh]
	 Correlation Energy        =      -1.6241461705732014 [Eh]
	 Total Energy              =    -364.6985834765732761 [Eh]

	 ================> DF-SCS-MP2 Energies <==================
	-----------------------------------------------------------
	 SCS Same-Spin Scale       =       0.3333333333333333 [-]
	 SCS Opposite-Spin Scale   =       1.2000000000000000 [-]
	 SCS Same-Spin Energy      =      -0.1256486080692057 [Eh]
	 SCS Opposite-Spin Energy  =      -1.4966404156387012 [Eh]
	 SCS Correlation Energy    =      -1.6222890237079068 [Eh]
	 SCS Total Energy          =    -364.6967263297079285 [Eh]
	-----------------------------------------------------------

  Dipole Moment: [D]
     X:    -0.4778      Y:    -3.9518      Z:     0.2462     Total:     3.9882

*** Psi4 exiting successfully. Buy a developer a beer!
