                               Psi4 1.4a3.dev225

  ==> Input File <==

--------------------------------------------------------------------------
#psi4
#
memory 32 gb

molecule  {
0 1
  O       -0.0101440     2.0708820    -0.1140410
  N        0.2351990    -0.2177110    -0.3583720
  C       -0.4908340    -1.4342940    -0.0290780
  C       -1.9692769    -0.9521445    -0.0485312
  C       -1.8489090     0.4999680     0.4010950
  C       -0.4582930     0.9265630    -0.0509830
  C        1.6617300    -0.1844710    -0.6214880
  C        2.4978900    -0.3314020     0.6460640
  H       -0.2060500    -1.8213230     0.9608810
  H       -0.2853850    -2.2161620    -0.7686800
  H       -2.5951790    -1.5710950     0.5868370
  H       -2.3326610    -1.0086390    -1.0720610
  H       -1.8916900     0.5931740     1.4933710
  H       -2.6106570     1.1621840    -0.0164710
  H        1.8952280    -0.9774960    -1.3410860
  H        1.8622980     0.7788290    -1.0968800
  H        2.2724650     0.4877290     1.3331980
  H        2.2931660    -1.2799200     1.1504100
  H        3.5653110    -0.2984830     0.4074420
units angstrom
no_reorient  #important for SAPT in psi4, default
symmetry c1  #important for SAPT in psi4, default
}

set PROPERTIES_ORIGIN ["COM"]
properties('MP2/aug-cc-pvtz', properties = ['dipole'])
--------------------------------------------------------------------------

    Molecular point group: c1
  Charge       = 0
  Multiplicity = 1
  Basis Set: AUG-CC-PVTZ
    Blend: AUG-CC-PVTZ
  Basis Set: (AUG-CC-PVTZ AUX)
    Blend: AUG-CC-PVTZ-JKFIT

    Orbital Energies [Eh]
    ---------------------

    Doubly Occupied:

       1A    -20.511751     2A    -15.580911     3A    -11.341500
       4A    -11.275448     5A    -11.260901     6A    -11.242211
       7A    -11.239833     8A    -11.218603     9A     -1.366856
      10A     -1.257711    11A     -1.087170    12A     -1.000924
      13A     -0.970031    14A     -0.870792    15A     -0.830262
      16A     -0.726014    17A     -0.692972    18A     -0.666924
      19A     -0.639657    20A     -0.605296    21A     -0.589432
      22A     -0.572126    23A     -0.563180    24A     -0.555579
      25A     -0.524348    26A     -0.513338    27A     -0.507097
      28A     -0.487777    29A     -0.478597    30A     -0.409965
      31A     -0.369298

  @DF-RHF Final Energy:  -363.07567097527033

   => Energetics <=

    Nuclear Repulsion Energy =            394.0376064499773179
    One-Electron Energy =               -1274.3135423191672544
    Two-Electron Energy =                 517.2002648939195524
    Total Energy =                       -363.0756709752703273
  Basis Set: (AUG-CC-PVTZ AUX)
    Blend: AUG-CC-PVTZ-RI
    Molecular point group: c1

    Geometry (in Angstrom), charge = 0, multiplicity = 1:

       Center              X                  Y                   Z               Mass
    ------------   -----------------  -----------------  -----------------  -----------------
         O            0.009123273399     2.016353926266    -0.099647549982    15.994914619570
         N            0.254466273399    -0.272239073734    -0.343978549982    14.003074004430
         C           -0.471566726601    -1.488822073734    -0.014684549982    12.000000000000
         C           -1.950009626601    -1.006672573734    -0.034137749982    12.000000000000
         C           -1.829641726601     0.445439926266     0.415488450018    12.000000000000
         C           -0.439025726601     0.872034926266    -0.036589549982    12.000000000000
         C            1.680997273399    -0.238999073734    -0.607094549982    12.000000000000
         C            2.517157273399    -0.385930073734     0.660457450018    12.000000000000
         H           -0.186782726601    -1.875851073734     0.975274450018     1.007825032230
         H           -0.266117726601    -2.270690073734    -0.754286549982     1.007825032230
         H           -2.575911726601    -1.625623073734     0.601230450018     1.007825032230
         H           -2.313393726601    -1.063167073734    -1.057667549982     1.007825032230
         H           -1.872422726601     0.538645926266     1.507764450018     1.007825032230
         H           -2.591389726601     1.107655926266    -0.002077549982     1.007825032230
         H            1.914495273399    -1.032024073734    -1.326692549982     1.007825032230
         H            1.881565273399     0.724300926266    -1.082486549982     1.007825032230
         H            2.291732273399     0.433200926266     1.347591450018     1.007825032230
         H            2.312433273399    -1.334448073734     1.164803450018     1.007825032230
         H            3.584578273399    -0.353011073734     0.421835450018     1.007825032230

  Basis Set: AUG-CC-PVTZ
    Blend: AUG-CC-PVTZ
  Basis Set: (AUG-CC-PVTZ AUX)
    Blend: AUG-CC-PVTZ-JKFIT
	 Reference Energy          =    -363.0756709752703273 [Eh]
	 Singles Energy            =      -0.0000000000000000 [Eh]
	 Same-Spin Energy          =      -0.3767430451959262 [Eh]
	 Opposite-Spin Energy      =      -1.2469332823503256 [Eh]
	 Correlation Energy        =      -1.6236763275462518 [Eh]
	 Total Energy              =    -364.6993473028165909 [Eh]

	 ================> DF-SCS-MP2 Energies <==================
	-----------------------------------------------------------
	 SCS Same-Spin Scale       =       0.3333333333333333 [-]
	 SCS Opposite-Spin Scale   =       1.2000000000000000 [-]
	 SCS Same-Spin Energy      =      -0.1255810150653087 [Eh]
	 SCS Opposite-Spin Energy  =      -1.4963199388203907 [Eh]
	 SCS Correlation Energy    =      -1.6219009538856994 [Eh]
	 SCS Total Energy          =    -364.6975719291560267 [Eh]
	-----------------------------------------------------------

  Dipole Moment: [D]
     X:    -0.4647      Y:    -3.9481      Z:     0.2526     Total:     3.9833

*** Psi4 exiting successfully. Buy a developer a beer!
