                               Psi4 1.3.2 release

  ==> Input File <==

--------------------------------------------------------------------------
#psi4
#
memory 32 gb

molecule  {
0 1
  O       -0.0101440     2.0708820    -0.1140410
  N        0.2410588    -0.1787459    -0.3265538
  C       -0.4908340    -1.4342940    -0.0290780
  C       -1.9502640    -0.9583450    -0.0482810
  C       -1.8489090     0.4999680     0.4010950
  C       -0.4582930     0.9265630    -0.0509830
  C        1.6617300    -0.1844710    -0.6214880
  C        2.4978900    -0.3314020     0.6460640
  H       -0.2060500    -1.8213230     0.9608810
  H       -0.2853850    -2.2161620    -0.7686800
  H       -2.5951790    -1.5710950     0.5868370
  H       -2.3326610    -1.0086390    -1.0720610
  H       -1.8916900     0.5931740     1.4933710
  H       -2.6106570     1.1621840    -0.0164710
  H        1.8952280    -0.9774960    -1.3410860
  H        1.8622980     0.7788290    -1.0968800
  H        2.2724650     0.4877290     1.3331980
  H        2.2931660    -1.2799200     1.1504100
  H        3.5653110    -0.2984830     0.4074420
units angstrom
no_reorient  #important for SAPT in psi4, default
symmetry c1  #important for SAPT in psi4, default
}

set PROPERTIES_ORIGIN ["COM"]
properties('MP2/aug-cc-pvtz', properties = ['dipole'])
--------------------------------------------------------------------------

    Molecular point group: c1
  Charge       = 0
  Multiplicity = 1
  Basis Set: AUG-CC-PVTZ
    Blend: AUG-CC-PVTZ
  Basis Set: (AUG-CC-PVTZ AUX)
    Blend: AUG-CC-PVTZ-JKFIT

    Orbital Energies [Eh]
    ---------------------

    Doubly Occupied:

       1A    -20.503321     2A    -15.582728     3A    -11.335046
       4A    -11.278472     5A    -11.262346     6A    -11.242913
       7A    -11.238963     8A    -11.219135     9A     -1.366159
      10A     -1.257533    11A     -1.088739    12A     -1.003474
      13A     -0.972723    14A     -0.871455    15A     -0.832103
      16A     -0.726247    17A     -0.693220    18A     -0.667568
      19A     -0.638665    20A     -0.607400    21A     -0.588178
      22A     -0.573219    23A     -0.561559    24A     -0.553333
      25A     -0.521845    26A     -0.515199    27A     -0.509547
      28A     -0.488696    29A     -0.476855    30A     -0.405940
      31A     -0.370736

  @DF-RHF Final Energy:  -363.07534507149705

   => Energetics <=

    Nuclear Repulsion Energy =            394.6950963237940186
    One-Electron Energy =               -1275.6342540307177842
    Two-Electron Energy =                 517.8638126354267115
    Total Energy =                       -363.0753450714970541
  Basis Set: (AUG-CC-PVTZ AUX)
    Blend: AUG-CC-PVTZ-RI
    Molecular point group: c1

    Geometry (in Angstrom), charge = 0, multiplicity = 1:

       Center              X                  Y                   Z               Mass
    ------------   -----------------  -----------------  -----------------  -----------------
         O            0.006380092777     2.012186891918    -0.103614112498    15.994914619570
         N            0.257582892777    -0.237441008082    -0.316126912498    14.003074004430
         C           -0.474309907223    -1.492989108082    -0.018651112498    12.000000000000
         C           -1.933739907223    -1.017040108082    -0.037854112498    12.000000000000
         C           -1.832384907223     0.441272891918     0.411521887502    12.000000000000
         C           -0.441768907223     0.867867891918    -0.040556112498    12.000000000000
         C            1.678254092777    -0.243166108082    -0.611061112498    12.000000000000
         C            2.514414092777    -0.390097108082     0.656490887502    12.000000000000
         H           -0.189525907223    -1.880018108082     0.971307887502     1.007825032230
         H           -0.268860907223    -2.274857108082    -0.758253112498     1.007825032230
         H           -2.578654907223    -1.629790108082     0.597263887502     1.007825032230
         H           -2.316136907223    -1.067334108082    -1.061634112498     1.007825032230
         H           -1.875165907223     0.534478891918     1.503797887502     1.007825032230
         H           -2.594132907223     1.103488891918    -0.006044112498     1.007825032230
         H            1.911752092777    -1.036191108082    -1.330659112498     1.007825032230
         H            1.878822092777     0.720133891918    -1.086453112498     1.007825032230
         H            2.288989092777     0.429033891918     1.343624887502     1.007825032230
         H            2.309690092777    -1.338615108082     1.160836887502     1.007825032230
         H            3.581835092777    -0.357178108082     0.417868887502     1.007825032230

  Basis Set: AUG-CC-PVTZ
    Blend: AUG-CC-PVTZ
  Basis Set: (AUG-CC-PVTZ AUX)
    Blend: AUG-CC-PVTZ-JKFIT
	 Reference Energy          =    -363.0753450714970541 [Eh]
	 Singles Energy            =      -0.0000000000000000 [Eh]
	 Same-Spin Energy          =      -0.3764702972119908 [Eh]
	 Opposite-Spin Energy      =      -1.2463966418954611 [Eh]
	 Correlation Energy        =      -1.6228669391074519 [Eh]
	 Total Energy              =    -364.6982120106044931 [Eh]

	 ================> DF-SCS-MP2 Energies <==================
	-----------------------------------------------------------
	 SCS Same-Spin Scale       =       0.3333333333333333 [-]
	 SCS Opposite-Spin Scale   =       1.2000000000000000 [-]
	 SCS Same-Spin Energy      =      -0.1254900990706636 [Eh]
	 SCS Opposite-Spin Energy  =      -1.4956759702745532 [Eh]
	 SCS Correlation Energy    =      -1.6211660693452168 [Eh]
	 SCS Total Energy          =    -364.6965111408422899 [Eh]
	-----------------------------------------------------------

  Dipole Moment: [D]
     X:    -0.4267      Y:    -4.1914      Z:     0.1941     Total:     4.2175

*** Psi4 exiting successfully. Buy a developer a beer!
