                               Psi4 1.3.2 release

  ==> Input File <==

--------------------------------------------------------------------------
#psi4
#
memory 32 gb

molecule  {
0 1
  O       -0.0101440     2.0708820    -0.1140410
  N        0.2351990    -0.2177110    -0.3583720
  C       -0.4908340    -1.4342940    -0.0290780
  C       -1.9364152    -0.9320963    -0.1512444
  C       -1.8489090     0.4999680     0.4010950
  C       -0.4582930     0.9265630    -0.0509830
  C        1.6617300    -0.1844710    -0.6214880
  C        2.4978900    -0.3314020     0.6460640
  H       -0.2060500    -1.8213230     0.9608810
  H       -0.2853850    -2.2161620    -0.7686800
  H       -2.5951790    -1.5710950     0.5868370
  H       -2.3326610    -1.0086390    -1.0720610
  H       -1.8916900     0.5931740     1.4933710
  H       -2.6106570     1.1621840    -0.0164710
  H        1.8952280    -0.9774960    -1.3410860
  H        1.8622980     0.7788290    -1.0968800
  H        2.2724650     0.4877290     1.3331980
  H        2.2931660    -1.2799200     1.1504100
  H        3.5653110    -0.2984830     0.4074420
units angstrom
no_reorient  #important for SAPT in psi4, default
symmetry c1  #important for SAPT in psi4, default
}

set PROPERTIES_ORIGIN ["COM"]
properties('MP2/aug-cc-pvtz', properties = ['dipole'])
--------------------------------------------------------------------------

    Molecular point group: c1
  Charge       = 0
  Multiplicity = 1
  Basis Set: AUG-CC-PVTZ
    Blend: AUG-CC-PVTZ
  Basis Set: (AUG-CC-PVTZ AUX)
    Blend: AUG-CC-PVTZ-JKFIT

    Orbital Energies [Eh]
    ---------------------

    Doubly Occupied:

       1A    -20.511090     2A    -15.580231     3A    -11.340253
       4A    -11.275427     5A    -11.260390     6A    -11.242977
       7A    -11.240590     8A    -11.218792     9A     -1.366597
      10A     -1.259137    11A     -1.087747    12A     -0.999816
      13A     -0.972416    14A     -0.870625    15A     -0.833795
      16A     -0.725583    17A     -0.692848    18A     -0.670957
      19A     -0.637592    20A     -0.604591    21A     -0.592846
      22A     -0.576112    23A     -0.568296    24A     -0.546366
      25A     -0.521256    26A     -0.510728    27A     -0.507065
      28A     -0.489443    29A     -0.480215    30A     -0.406340
      31A     -0.369599

  @DF-RHF Final Energy:  -363.06203840388258

   => Energetics <=

    Nuclear Repulsion Energy =            394.5750696109013802
    One-Electron Energy =               -1275.3547741734414558
    Two-Electron Energy =                 517.7176661586574937
    Total Energy =                       -363.0620384038825250
  Basis Set: (AUG-CC-PVTZ AUX)
    Blend: AUG-CC-PVTZ-RI
    Molecular point group: c1

    Geometry (in Angstrom), charge = 0, multiplicity = 1:

       Center              X                  Y                   Z               Mass
    ------------   -----------------  -----------------  -----------------  -----------------
         O            0.005636129534     2.014226496534    -0.088748061968    15.994914619570
         N            0.250979129534    -0.274366503466    -0.333079061968    14.003074004430
         C           -0.475053870466    -1.490949503466    -0.003785061968    12.000000000000
         C           -1.920635070466    -0.988751803466    -0.125951461968    12.000000000000
         C           -1.833128870466     0.443312496534     0.426387938032    12.000000000000
         C           -0.442512870466     0.869907496534    -0.025690061968    12.000000000000
         C            1.677510129534    -0.241126503466    -0.596195061968    12.000000000000
         C            2.513670129534    -0.388057503466     0.671356938032    12.000000000000
         H           -0.190269870466    -1.877978503466     0.986173938032     1.007825032230
         H           -0.269604870466    -2.272817503466    -0.743387061968     1.007825032230
         H           -2.579398870466    -1.627750503466     0.612129938032     1.007825032230
         H           -2.316880870466    -1.065294503466    -1.046768061968     1.007825032230
         H           -1.875909870466     0.536518496534     1.518663938032     1.007825032230
         H           -2.594876870466     1.105528496534     0.008821938032     1.007825032230
         H            1.911008129534    -1.034151503466    -1.315793061968     1.007825032230
         H            1.878078129534     0.722173496534    -1.071587061968     1.007825032230
         H            2.288245129534     0.431073496534     1.358490938032     1.007825032230
         H            2.308946129534    -1.336575503466     1.175702938032     1.007825032230
         H            3.581091129534    -0.355138503466     0.432734938032     1.007825032230

  Basis Set: AUG-CC-PVTZ
    Blend: AUG-CC-PVTZ
  Basis Set: (AUG-CC-PVTZ AUX)
    Blend: AUG-CC-PVTZ-JKFIT
	 Reference Energy          =    -363.0620384038825819 [Eh]
	 Singles Energy            =      -0.0000000000000000 [Eh]
	 Same-Spin Energy          =      -0.3770413175562743 [Eh]
	 Opposite-Spin Energy      =      -1.2476007942680245 [Eh]
	 Correlation Energy        =      -1.6246421118242989 [Eh]
	 Total Energy              =    -364.6866805157068825 [Eh]

	 ================> DF-SCS-MP2 Energies <==================
	-----------------------------------------------------------
	 SCS Same-Spin Scale       =       0.3333333333333333 [-]
	 SCS Opposite-Spin Scale   =       1.2000000000000000 [-]
	 SCS Same-Spin Energy      =      -0.1256804391854248 [Eh]
	 SCS Opposite-Spin Energy  =      -1.4971209531216294 [Eh]
	 SCS Correlation Energy    =      -1.6228013923070541 [Eh]
	 SCS Total Energy          =    -364.6848397961896353 [Eh]
	-----------------------------------------------------------

  Dipole Moment: [D]
     X:    -0.4292      Y:    -3.9099      Z:     0.1950     Total:     3.9383

*** Psi4 exiting successfully. Buy a developer a beer!
