                               Psi4 1.3.2 release

  ==> Input File <==

--------------------------------------------------------------------------
#psi4
#
memory 32 gb

molecule  {
0 1
  O       -0.0101440     2.0708820    -0.1140410
  N        0.2351990    -0.2177110    -0.3583720
  C       -0.4908340    -1.4342940    -0.0290780
  C       -1.9502640    -0.9583450    -0.0482810
  C       -1.8489090     0.4999680     0.4010950
  C       -0.4582930     0.9265630    -0.0509830
  C        1.6617300    -0.1844710    -0.6214880
  C        2.4978900    -0.3314020     0.6460640
  H       -0.2060500    -1.8213230     0.9608810
  H       -0.2853850    -2.2161620    -0.7686800
  H       -2.4771759    -1.4589773     0.4706265
  H       -2.3326610    -1.0086390    -1.0720610
  H       -1.8916900     0.5931740     1.4933710
  H       -2.6106570     1.1621840    -0.0164710
  H        1.8952280    -0.9774960    -1.3410860
  H        1.8622980     0.7788290    -1.0968800
  H        2.2724650     0.4877290     1.3331980
  H        2.2931660    -1.2799200     1.1504100
  H        3.5653110    -0.2984830     0.4074420
units angstrom
no_reorient  #important for SAPT in psi4, default
symmetry c1  #important for SAPT in psi4, default
}

set PROPERTIES_ORIGIN ["COM"]
properties('MP2/aug-cc-pvtz', properties = ['dipole'])
--------------------------------------------------------------------------

    Molecular point group: c1
  Charge       = 0
  Multiplicity = 1
  Basis Set: AUG-CC-PVTZ
    Blend: AUG-CC-PVTZ
  Basis Set: (AUG-CC-PVTZ AUX)
    Blend: AUG-CC-PVTZ-JKFIT

    Orbital Energies [Eh]
    ---------------------

    Doubly Occupied:

       1A    -20.510618     2A    -15.579806     3A    -11.340211
       4A    -11.273646     5A    -11.260090     6A    -11.238699
       7A    -11.218123     8A    -11.217721     9A     -1.365862
      10A     -1.257540    11A     -1.093833    12A     -1.004814
      13A     -0.973643    14A     -0.878718    15A     -0.840871
      16A     -0.726770    17A     -0.699744    18A     -0.666880
      19A     -0.644128    20A     -0.608663    21A     -0.589357
      22A     -0.573665    23A     -0.567765    24A     -0.561478
      25A     -0.526926    26A     -0.512486    27A     -0.508438
      28A     -0.489928    29A     -0.478186    30A     -0.409383
      31A     -0.368577

  @DF-RHF Final Energy:  -363.04224907844008

   => Energetics <=

    Nuclear Repulsion Energy =            395.4244465928792920
    One-Electron Energy =               -1276.9602575273704588
    Two-Electron Energy =                 518.4935618560509738
    Total Energy =                       -363.0422490784401361
  Basis Set: (AUG-CC-PVTZ AUX)
    Blend: AUG-CC-PVTZ-RI
    Molecular point group: c1

    Geometry (in Angstrom), charge = 0, multiplicity = 1:

       Center              X                  Y                   Z               Mass
    ------------   -----------------  -----------------  -----------------  -----------------
         O            0.006054040955     2.016012684333    -0.098638411764    15.994914619570
         N            0.251397040955    -0.272580315667    -0.342969411764    14.003074004430
         C           -0.474635959045    -1.489163315667    -0.013675411764    12.000000000000
         C           -1.934065959045    -1.013214315667    -0.032878411764    12.000000000000
         C           -1.832710959045     0.445098684333     0.416497588236    12.000000000000
         C           -0.442094959045     0.871693684333    -0.035580411764    12.000000000000
         C            1.677928040955    -0.239340315667    -0.606085411764    12.000000000000
         C            2.514088040955    -0.386271315667     0.661466588236    12.000000000000
         H           -0.189851959045    -1.876192315667     0.976283588236     1.007825032230
         H           -0.269186959045    -2.271031315667    -0.753277411764     1.007825032230
         H           -2.460977859045    -1.513846615667     0.486029088236     1.007825032230
         H           -2.316462959045    -1.063508315667    -1.056658411764     1.007825032230
         H           -1.875491959045     0.538304684333     1.508773588236     1.007825032230
         H           -2.594458959045     1.107314684333    -0.001068411764     1.007825032230
         H            1.911426040955    -1.032365315667    -1.325683411764     1.007825032230
         H            1.878496040955     0.723959684333    -1.081477411764     1.007825032230
         H            2.288663040955     0.432859684333     1.348600588236     1.007825032230
         H            2.309364040955    -1.334789315667     1.165812588236     1.007825032230
         H            3.581509040955    -0.353352315667     0.422844588236     1.007825032230

  Basis Set: AUG-CC-PVTZ
    Blend: AUG-CC-PVTZ
  Basis Set: (AUG-CC-PVTZ AUX)
    Blend: AUG-CC-PVTZ-JKFIT
	 Reference Energy          =    -363.0422490784400793 [Eh]
	 Singles Energy            =      -0.0000000000000000 [Eh]
	 Same-Spin Energy          =      -0.3768462614939170 [Eh]
	 Opposite-Spin Energy      =      -1.2462054903231072 [Eh]
	 Correlation Energy        =      -1.6230517518170242 [Eh]
	 Total Energy              =    -364.6653008302570811 [Eh]

	 ================> DF-SCS-MP2 Energies <==================
	-----------------------------------------------------------
	 SCS Same-Spin Scale       =       0.3333333333333333 [-]
	 SCS Opposite-Spin Scale   =       1.2000000000000000 [-]
	 SCS Same-Spin Energy      =      -0.1256154204979723 [Eh]
	 SCS Opposite-Spin Energy  =      -1.4954465883877286 [Eh]
	 SCS Correlation Energy    =      -1.6210620088857008 [Eh]
	 SCS Total Energy          =    -364.6633110873257806 [Eh]
	-----------------------------------------------------------

  Dipole Moment: [D]
     X:    -0.5393      Y:    -4.0077      Z:     0.2745     Total:     4.0531

*** Psi4 exiting successfully. Buy a developer a beer!
