                               Psi4 1.3.2 release

  ==> Input File <==

--------------------------------------------------------------------------
#psi4
#
memory 32 gb

molecule  {
0 1
  O       -0.0101440     2.0708820    -0.1140410
  N        0.2351990    -0.2177110    -0.3583720
  C       -0.5407496    -1.5179355    -0.0064387
  C       -1.9502640    -0.9583450    -0.0482810
  C       -1.8489090     0.4999680     0.4010950
  C       -0.4582930     0.9265630    -0.0509830
  C        1.6617300    -0.1844710    -0.6214880
  C        2.4978900    -0.3314020     0.6460640
  H       -0.2060500    -1.8213230     0.9608810
  H       -0.2853850    -2.2161620    -0.7686800
  H       -2.5951790    -1.5710950     0.5868370
  H       -2.3326610    -1.0086390    -1.0720610
  H       -1.8916900     0.5931740     1.4933710
  H       -2.6106570     1.1621840    -0.0164710
  H        1.8952280    -0.9774960    -1.3410860
  H        1.8622980     0.7788290    -1.0968800
  H        2.2724650     0.4877290     1.3331980
  H        2.2931660    -1.2799200     1.1504100
  H        3.5653110    -0.2984830     0.4074420
units angstrom
no_reorient  #important for SAPT in psi4, default
symmetry c1  #important for SAPT in psi4, default
}

set PROPERTIES_ORIGIN ["COM"]
properties('MP2/aug-cc-pvtz', properties = ['dipole'])
--------------------------------------------------------------------------

    Molecular point group: c1
  Charge       = 0
  Multiplicity = 1
  Basis Set: AUG-CC-PVTZ
    Blend: AUG-CC-PVTZ
  Basis Set: (AUG-CC-PVTZ AUX)
    Blend: AUG-CC-PVTZ-JKFIT

    Orbital Energies [Eh]
    ---------------------

    Doubly Occupied:

       1A    -20.507705     2A    -15.577370     3A    -11.337894
       4A    -11.278304     5A    -11.257611     6A    -11.244012
       7A    -11.240355     8A    -11.216915     9A     -1.361461
      10A     -1.240014    11A     -1.087894    12A     -0.996730
      13A     -0.976771    14A     -0.866494    15A     -0.829142
      16A     -0.719547    17A     -0.691256    18A     -0.664672
      19A     -0.637591    20A     -0.602047    21A     -0.596364
      22A     -0.570916    23A     -0.556510    24A     -0.551374
      25A     -0.523680    26A     -0.518799    27A     -0.508151
      28A     -0.485149    29A     -0.478608    30A     -0.404967
      31A     -0.368565

  @DF-RHF Final Energy:  -363.06741308927195

   => Energetics <=

    Nuclear Repulsion Energy =            392.6046477646672201
    One-Electron Energy =               -1271.5503835799299850
    Two-Electron Energy =                 515.8783227259907562
    Total Energy =                       -363.0674130892720086
  Basis Set: (AUG-CC-PVTZ AUX)
    Blend: AUG-CC-PVTZ-RI
    Molecular point group: c1

    Geometry (in Angstrom), charge = 0, multiplicity = 1:

       Center              X                  Y                   Z               Mass
    ------------   -----------------  -----------------  -----------------  -----------------
         O            0.012402536515     2.025887577270    -0.102076486389    15.994914619570
         N            0.257745536515    -0.262705422730    -0.346407486389    14.003074004430
         C           -0.518203063485    -1.562929922730     0.005525813611    12.000000000000
         C           -1.927717463485    -1.003339422730    -0.036316486389    12.000000000000
         C           -1.826362463485     0.454973577270     0.413059513611    12.000000000000
         C           -0.435746463485     0.881568577270    -0.039018486389    12.000000000000
         C            1.684276536515    -0.229465422730    -0.609523486389    12.000000000000
         C            2.520436536515    -0.376396422730     0.658028513611    12.000000000000
         H           -0.183503463485    -1.866317422730     0.972845513611     1.007825032230
         H           -0.262838463485    -2.261156422730    -0.756715486389     1.007825032230
         H           -2.572632463485    -1.616089422730     0.598801513611     1.007825032230
         H           -2.310114463485    -1.053633422730    -1.060096486389     1.007825032230
         H           -1.869143463485     0.548179577270     1.505335513611     1.007825032230
         H           -2.588110463485     1.117189577270    -0.004506486389     1.007825032230
         H            1.917774536515    -1.022490422730    -1.329121486389     1.007825032230
         H            1.884844536515     0.733834577270    -1.084915486389     1.007825032230
         H            2.295011536515     0.442734577270     1.345162513611     1.007825032230
         H            2.315712536515    -1.324914422730     1.162374513611     1.007825032230
         H            3.587857536515    -0.343477422730     0.419406513611     1.007825032230

  Basis Set: AUG-CC-PVTZ
    Blend: AUG-CC-PVTZ
  Basis Set: (AUG-CC-PVTZ AUX)
    Blend: AUG-CC-PVTZ-JKFIT
	 Reference Energy          =    -363.0674130892719518 [Eh]
	 Singles Energy            =      -0.0000000000000000 [Eh]
	 Same-Spin Energy          =      -0.3767739797575965 [Eh]
	 Opposite-Spin Energy      =      -1.2477859180699198 [Eh]
	 Correlation Energy        =      -1.6245598978275164 [Eh]
	 Total Energy              =    -364.6919729870994615 [Eh]

	 ================> DF-SCS-MP2 Energies <==================
	-----------------------------------------------------------
	 SCS Same-Spin Scale       =       0.3333333333333333 [-]
	 SCS Opposite-Spin Scale   =       1.2000000000000000 [-]
	 SCS Same-Spin Energy      =      -0.1255913265858655 [Eh]
	 SCS Opposite-Spin Energy  =      -1.4973431016839036 [Eh]
	 SCS Correlation Energy    =      -1.6229344282697691 [Eh]
	 SCS Total Energy          =    -364.6903475175417384 [Eh]
	-----------------------------------------------------------

  Dipole Moment: [D]
     X:    -0.5624      Y:    -4.1885      Z:     0.3010     Total:     4.2368

*** Psi4 exiting successfully. Buy a developer a beer!
