                               Psi4 1.3.2 release

  ==> Input File <==

--------------------------------------------------------------------------
#psi4
#
memory 32 gb

molecule  {
0 1
  O       -0.0101440     2.0708820    -0.1140410
  N        0.2351990    -0.2177110    -0.3583720
  C       -0.4908340    -1.4342940    -0.0290780
  C       -1.8514315    -0.9492014    -0.0875667
  C       -1.8489090     0.4999680     0.4010950
  C       -0.4582930     0.9265630    -0.0509830
  C        1.6617300    -0.1844710    -0.6214880
  C        2.4978900    -0.3314020     0.6460640
  H       -0.2060500    -1.8213230     0.9608810
  H       -0.2853850    -2.2161620    -0.7686800
  H       -2.5951790    -1.5710950     0.5868370
  H       -2.3326610    -1.0086390    -1.0720610
  H       -1.8916900     0.5931740     1.4933710
  H       -2.6106570     1.1621840    -0.0164710
  H        1.8952280    -0.9774960    -1.3410860
  H        1.8622980     0.7788290    -1.0968800
  H        2.2724650     0.4877290     1.3331980
  H        2.2931660    -1.2799200     1.1504100
  H        3.5653110    -0.2984830     0.4074420
units angstrom
no_reorient  #important for SAPT in psi4, default
symmetry c1  #important for SAPT in psi4, default
}

set PROPERTIES_ORIGIN ["COM"]
properties('MP2/aug-cc-pvtz', properties = ['dipole'])
--------------------------------------------------------------------------

    Molecular point group: c1
  Charge       = 0
  Multiplicity = 1
  Basis Set: AUG-CC-PVTZ
    Blend: AUG-CC-PVTZ
  Basis Set: (AUG-CC-PVTZ AUX)
    Blend: AUG-CC-PVTZ-JKFIT

    Orbital Energies [Eh]
    ---------------------

    Doubly Occupied:

       1A    -20.510952     2A    -15.581058     3A    -11.340481
       4A    -11.271905     5A    -11.260748     6A    -11.245287
       7A    -11.240296     8A    -11.219032     9A     -1.367313
      10A     -1.264127    11A     -1.094370    12A     -0.999213
      13A     -0.982534    14A     -0.867837    15A     -0.825252
      16A     -0.728058    17A     -0.695459    18A     -0.674391
      19A     -0.637778    20A     -0.602159    21A     -0.593132
      22A     -0.573613    23A     -0.566055    24A     -0.548658
      25A     -0.528486    26A     -0.512008    27A     -0.508867
      28A     -0.493334    29A     -0.471176    30A     -0.405374
      31A     -0.370572

  @DF-RHF Final Energy:  -363.06283794871956

   => Energetics <=

    Nuclear Repulsion Energy =            395.9785313591987119
    One-Electron Energy =               -1278.1236863664391876
    Two-Electron Energy =                 519.0823170585208572
    Total Energy =                       -363.0628379487195616
  Basis Set: (AUG-CC-PVTZ AUX)
    Blend: AUG-CC-PVTZ-RI
    Molecular point group: c1

    Geometry (in Angstrom), charge = 0, multiplicity = 1:

       Center              X                  Y                   Z               Mass
    ------------   -----------------  -----------------  -----------------  -----------------
         O           -0.003381979332     2.016041617009    -0.095505268714    15.994914619570
         N            0.241961020668    -0.272551382991    -0.339836268714    14.003074004430
         C           -0.484071979332    -1.489134382991    -0.010542268714    12.000000000000
         C           -1.844669479332    -1.004041782991    -0.069030968714    12.000000000000
         C           -1.842146979332     0.445127617009     0.419630731286    12.000000000000
         C           -0.451530979332     0.871722617009    -0.032447268714    12.000000000000
         C            1.668492020668    -0.239311382991    -0.602952268714    12.000000000000
         C            2.504652020668    -0.386242382991     0.664599731286    12.000000000000
         H           -0.199287979332    -1.876163382991     0.979416731286     1.007825032230
         H           -0.278622979332    -2.271002382991    -0.750144268714     1.007825032230
         H           -2.588416979332    -1.625935382991     0.605372731286     1.007825032230
         H           -2.325898979332    -1.063479382991    -1.053525268714     1.007825032230
         H           -1.884927979332     0.538333617009     1.511906731286     1.007825032230
         H           -2.603894979332     1.107343617009     0.002064731286     1.007825032230
         H            1.901990020668    -1.032336382991    -1.322550268714     1.007825032230
         H            1.869060020668     0.723988617009    -1.078344268714     1.007825032230
         H            2.279227020668     0.432888617009     1.351733731286     1.007825032230
         H            2.299928020668    -1.334760382991     1.168945731286     1.007825032230
         H            3.572073020668    -0.353323382991     0.425977731286     1.007825032230

  Basis Set: AUG-CC-PVTZ
    Blend: AUG-CC-PVTZ
  Basis Set: (AUG-CC-PVTZ AUX)
    Blend: AUG-CC-PVTZ-JKFIT
	 Reference Energy          =    -363.0628379487195616 [Eh]
	 Singles Energy            =      -0.0000000000000000 [Eh]
	 Same-Spin Energy          =      -0.3776532887981948 [Eh]
	 Opposite-Spin Energy      =      -1.2479463611803761 [Eh]
	 Correlation Energy        =      -1.6255996499785708 [Eh]
	 Total Energy              =    -364.6884375986981581 [Eh]

	 ================> DF-SCS-MP2 Energies <==================
	-----------------------------------------------------------
	 SCS Same-Spin Scale       =       0.3333333333333333 [-]
	 SCS Opposite-Spin Scale   =       1.2000000000000000 [-]
	 SCS Same-Spin Energy      =      -0.1258844295993983 [Eh]
	 SCS Opposite-Spin Energy  =      -1.4975356334164511 [Eh]
	 SCS Correlation Energy    =      -1.6234200630158493 [Eh]
	 SCS Total Energy          =    -364.6862580117353900 [Eh]
	-----------------------------------------------------------

  Dipole Moment: [D]
     X:    -0.4185      Y:    -3.9070      Z:     0.2205     Total:     3.9355

*** Psi4 exiting successfully. Buy a developer a beer!
