                               Psi4 1.4a3.dev225

  ==> Input File <==

--------------------------------------------------------------------------
#psi4
#
memory 32 gb

molecule  {
0 1
  O       -0.0101440     2.0708820    -0.1140410
  N        0.2351990    -0.2177110    -0.3583720
  C       -0.4908340    -1.4342940    -0.0290780
  C       -1.9502640    -0.9583450    -0.0482810
  C       -1.8489090     0.4999680     0.4010950
  C       -0.4765520     0.9209617    -0.0450471
  C        1.6617300    -0.1844710    -0.6214880
  C        2.4978900    -0.3314020     0.6460640
  H       -0.2060500    -1.8213230     0.9608810
  H       -0.2853850    -2.2161620    -0.7686800
  H       -2.5951790    -1.5710950     0.5868370
  H       -2.3326610    -1.0086390    -1.0720610
  H       -1.8916900     0.5931740     1.4933710
  H       -2.6106570     1.1621840    -0.0164710
  H        1.8952280    -0.9774960    -1.3410860
  H        1.8622980     0.7788290    -1.0968800
  H        2.2724650     0.4877290     1.3331980
  H        2.2931660    -1.2799200     1.1504100
  H        3.5653110    -0.2984830     0.4074420
units angstrom
no_reorient  #important for SAPT in psi4, default
symmetry c1  #important for SAPT in psi4, default
}

set PROPERTIES_ORIGIN ["COM"]
properties('MP2/aug-cc-pvtz', properties = ['dipole'])
--------------------------------------------------------------------------

    Molecular point group: c1
  Charge       = 0
  Multiplicity = 1
  Basis Set: AUG-CC-PVTZ
    Blend: AUG-CC-PVTZ
  Basis Set: (AUG-CC-PVTZ AUX)
    Blend: AUG-CC-PVTZ-JKFIT

    Orbital Energies [Eh]
    ---------------------

    Doubly Occupied:

       1A    -20.510426     2A    -15.581136     3A    -11.342668
       4A    -11.274629     5A    -11.260887     6A    -11.243486
       7A    -11.241141     8A    -11.218368     9A     -1.360188
      10A     -1.255792    11A     -1.090028    12A     -1.000680
      13A     -0.973942    14A     -0.870441    15A     -0.830278
      16A     -0.727109    17A     -0.693397    18A     -0.667667
      19A     -0.638179    20A     -0.604832    21A     -0.590130
      22A     -0.570616    23A     -0.563160    24A     -0.553321
      25A     -0.522725    26A     -0.512833    27A     -0.510638
      28A     -0.489662    29A     -0.475411    30A     -0.410692
      31A     -0.368160

  @DF-RHF Final Energy:  -363.07415396259989

   => Energetics <=

    Nuclear Repulsion Energy =            394.1985190764712570
    One-Electron Energy =               -1274.6401038006160888
    Two-Electron Energy =                 517.3674307615449379
    Total Energy =                       -363.0741539625998939
  Basis Set: (AUG-CC-PVTZ AUX)
    Blend: AUG-CC-PVTZ-RI
    Molecular point group: c1

    Geometry (in Angstrom), charge = 0, multiplicity = 1:

       Center              X                  Y                   Z               Mass
    ------------   -----------------  -----------------  -----------------  -----------------
         O            0.009043272737     2.017606283097    -0.100303992609    15.994914619570
         N            0.254386272737    -0.270986716903    -0.344634992609    14.003074004430
         C           -0.471646727263    -1.487569716903    -0.015340992609    12.000000000000
         C           -1.931076727263    -1.011620716903    -0.034543992609    12.000000000000
         C           -1.829721727263     0.446692283097     0.414832007391    12.000000000000
         C           -0.457364727263     0.867685983097    -0.031310092609    12.000000000000
         C            1.680917272737    -0.237746716903    -0.607750992609    12.000000000000
         C            2.517077272737    -0.384677716903     0.659801007391    12.000000000000
         H           -0.186862727263    -1.874598716903     0.974618007391     1.007825032230
         H           -0.266197727263    -2.269437716903    -0.754942992609     1.007825032230
         H           -2.575991727263    -1.624370716903     0.600574007391     1.007825032230
         H           -2.313473727263    -1.061914716903    -1.058323992609     1.007825032230
         H           -1.872502727263     0.539898283097     1.507108007391     1.007825032230
         H           -2.591469727263     1.108908283097    -0.002733992609     1.007825032230
         H            1.914415272737    -1.030771716903    -1.327348992609     1.007825032230
         H            1.881485272737     0.725553283097    -1.083142992609     1.007825032230
         H            2.291652272737     0.434453283097     1.346935007391     1.007825032230
         H            2.312353272737    -1.333195716903     1.164147007391     1.007825032230
         H            3.584498272737    -0.351758716903     0.421179007391     1.007825032230

  Basis Set: AUG-CC-PVTZ
    Blend: AUG-CC-PVTZ
  Basis Set: (AUG-CC-PVTZ AUX)
    Blend: AUG-CC-PVTZ-JKFIT
	 Reference Energy          =    -363.0741539625998939 [Eh]
	 Singles Energy            =      -0.0000000000000000 [Eh]
	 Same-Spin Energy          =      -0.3771630606761773 [Eh]
	 Opposite-Spin Energy      =      -1.2476154662114181 [Eh]
	 Correlation Energy        =      -1.6247785268875954 [Eh]
	 Total Energy              =    -364.6989324894875040 [Eh]

	 ================> DF-SCS-MP2 Energies <==================
	-----------------------------------------------------------
	 SCS Same-Spin Scale       =       0.3333333333333333 [-]
	 SCS Opposite-Spin Scale   =       1.2000000000000000 [-]
	 SCS Same-Spin Energy      =      -0.1257210202253924 [Eh]
	 SCS Opposite-Spin Energy  =      -1.4971385594537017 [Eh]
	 SCS Correlation Energy    =      -1.6228595796790941 [Eh]
	 SCS Total Energy          =    -364.6970135422789667 [Eh]
	-----------------------------------------------------------

  Dipole Moment: [D]
     X:    -0.5373      Y:    -3.9861      Z:     0.2751     Total:     4.0315

*** Psi4 exiting successfully. Buy a developer a beer!
