                               Psi4 1.3.2 release

  ==> Input File <==

--------------------------------------------------------------------------
#psi4
#
memory 32 gb

molecule  {
0 1
  O       -0.0101440     2.0708820    -0.1140410
  N        0.2351990    -0.2177110    -0.3583720
  C       -0.4908340    -1.4342940    -0.0290780
  C       -1.9502640    -0.9583450    -0.0482810
  C       -1.8489090     0.4999680     0.4010950
  C       -0.4582930     0.9265630    -0.0509830
  C        1.6617300    -0.1844710    -0.6214880
  C        2.4978900    -0.3314020     0.6460640
  H       -0.2060500    -1.8213230     0.9608810
  H       -0.2853850    -2.2161620    -0.7686800
  H       -2.5733687    -1.5618599     0.6167476
  H       -2.3326610    -1.0086390    -1.0720610
  H       -1.8916900     0.5931740     1.4933710
  H       -2.6106570     1.1621840    -0.0164710
  H        1.8952280    -0.9774960    -1.3410860
  H        1.8622980     0.7788290    -1.0968800
  H        2.2724650     0.4877290     1.3331980
  H        2.2931660    -1.2799200     1.1504100
  H        3.5653110    -0.2984830     0.4074420
units angstrom
no_reorient  #important for SAPT in psi4, default
symmetry c1  #important for SAPT in psi4, default
}

set PROPERTIES_ORIGIN ["COM"]
properties('MP2/aug-cc-pvtz', properties = ['dipole'])
--------------------------------------------------------------------------

    Molecular point group: c1
  Charge       = 0
  Multiplicity = 1
  Basis Set: AUG-CC-PVTZ
    Blend: AUG-CC-PVTZ
  Basis Set: (AUG-CC-PVTZ AUX)
    Blend: AUG-CC-PVTZ-JKFIT

    Orbital Energies [Eh]
    ---------------------

    Doubly Occupied:

       1A    -20.511470     2A    -15.580836     3A    -11.341144
       4A    -11.274670     5A    -11.260821     6A    -11.242471
       7A    -11.239726     8A    -11.218625     9A     -1.366740
      10A     -1.258402    11A     -1.088004    12A     -1.000514
      13A     -0.972030    14A     -0.870066    15A     -0.828904
      16A     -0.726268    17A     -0.694073    18A     -0.667500
      19A     -0.639263    20A     -0.605066    21A     -0.589364
      22A     -0.572318    23A     -0.563556    24A     -0.552880
      25A     -0.523561    26A     -0.512803    27A     -0.509623
      28A     -0.489851    29A     -0.478136    30A     -0.409114
      31A     -0.369416

  @DF-RHF Final Energy:  -363.07580043365948

   => Energetics <=

    Nuclear Repulsion Energy =            394.3242201321583025
    One-Electron Energy =               -1274.8856112007722459
    Two-Electron Energy =                 517.4855906349545194
    Total Energy =                       -363.0758004336594240
  Basis Set: (AUG-CC-PVTZ AUX)
    Blend: AUG-CC-PVTZ-RI
    Molecular point group: c1

    Geometry (in Angstrom), charge = 0, multiplicity = 1:

       Center              X                  Y                   Z               Mass
    ------------   -----------------  -----------------  -----------------  -----------------
         O            0.006911328078     2.016929592127    -0.099940668661    15.994914619570
         N            0.252254328078    -0.271663407873    -0.344271668661    14.003074004430
         C           -0.473778671922    -1.488246407873    -0.014977668661    12.000000000000
         C           -1.933208671922    -1.012297407873    -0.034180668661    12.000000000000
         C           -1.831853671922     0.446015592127     0.415195331339    12.000000000000
         C           -0.441237671922     0.872610592127    -0.036882668661    12.000000000000
         C            1.678785328078    -0.238423407873    -0.607387668661    12.000000000000
         C            2.514945328078    -0.385354407873     0.660164331339    12.000000000000
         H           -0.188994671922    -1.875275407873     0.974981331339     1.007825032230
         H           -0.268329671922    -2.270114407873    -0.754579668661     1.007825032230
         H           -2.556313371922    -1.615812307873     0.630847931339     1.007825032230
         H           -2.315605671922    -1.062591407873    -1.057960668661     1.007825032230
         H           -1.874634671922     0.539221592127     1.507471331339     1.007825032230
         H           -2.593601671922     1.108231592127    -0.002370668661     1.007825032230
         H            1.912283328078    -1.031448407873    -1.326985668661     1.007825032230
         H            1.879353328078     0.724876592127    -1.082779668661     1.007825032230
         H            2.289520328078     0.433776592127     1.347298331339     1.007825032230
         H            2.310221328078    -1.333872407873     1.164510331339     1.007825032230
         H            3.582366328078    -0.352435407873     0.421542331339     1.007825032230

  Basis Set: AUG-CC-PVTZ
    Blend: AUG-CC-PVTZ
  Basis Set: (AUG-CC-PVTZ AUX)
    Blend: AUG-CC-PVTZ-JKFIT
	 Reference Energy          =    -363.0758004336594809 [Eh]
	 Singles Energy            =      -0.0000000000000000 [Eh]
	 Same-Spin Energy          =      -0.3768070567059839 [Eh]
	 Opposite-Spin Energy      =      -1.2469847208581932 [Eh]
	 Correlation Energy        =      -1.6237917775641773 [Eh]
	 Total Energy              =    -364.6995922112236599 [Eh]

	 ================> DF-SCS-MP2 Energies <==================
	-----------------------------------------------------------
	 SCS Same-Spin Scale       =       0.3333333333333333 [-]
	 SCS Opposite-Spin Scale   =       1.2000000000000000 [-]
	 SCS Same-Spin Energy      =      -0.1256023522353280 [Eh]
	 SCS Opposite-Spin Energy  =      -1.4963816650298318 [Eh]
	 SCS Correlation Energy    =      -1.6219840172651598 [Eh]
	 SCS Total Energy          =    -364.6977844509246438 [Eh]
	-----------------------------------------------------------

  Dipole Moment: [D]
     X:    -0.4580      Y:    -3.9438      Z:     0.2601     Total:     3.9789

*** Psi4 exiting successfully. Buy a developer a beer!
