                               Psi4 1.3.2 release

  ==> Input File <==

--------------------------------------------------------------------------
#psi4
#
memory 32 gb

molecule  {
0 1
  O       -0.0101440     2.0708820    -0.1140410
  N        0.2351990    -0.2177110    -0.3583720
  C       -0.4908340    -1.4342940    -0.0290780
  C       -1.9502640    -0.9583450    -0.0482810
  C       -1.8489090     0.4999680     0.4010950
  C       -0.4582930     0.9265630    -0.0509830
  C        1.6617300    -0.1844710    -0.6214880
  C        2.4978900    -0.3314020     0.6460640
  H       -0.2578094    -1.7509806     0.7809563
  H       -0.2853850    -2.2161620    -0.7686800
  H       -2.5951790    -1.5710950     0.5868370
  H       -2.3326610    -1.0086390    -1.0720610
  H       -1.8916900     0.5931740     1.4933710
  H       -2.6106570     1.1621840    -0.0164710
  H        1.8952280    -0.9774960    -1.3410860
  H        1.8622980     0.7788290    -1.0968800
  H        2.2724650     0.4877290     1.3331980
  H        2.2931660    -1.2799200     1.1504100
  H        3.5653110    -0.2984830     0.4074420
units angstrom
no_reorient  #important for SAPT in psi4, default
symmetry c1  #important for SAPT in psi4, default
}

set PROPERTIES_ORIGIN ["COM"]
properties('MP2/aug-cc-pvtz', properties = ['dipole'])
--------------------------------------------------------------------------

    Molecular point group: c1
  Charge       = 0
  Multiplicity = 1
  Basis Set: AUG-CC-PVTZ
    Blend: AUG-CC-PVTZ
  Basis Set: (AUG-CC-PVTZ AUX)
    Blend: AUG-CC-PVTZ-JKFIT

    Orbital Energies [Eh]
    ---------------------

    Doubly Occupied:

       1A    -20.510140     2A    -15.578515     3A    -11.340092
       4A    -11.260317     5A    -11.249884     6A    -11.241002
       7A    -11.239257     8A    -11.218933     9A     -1.365638
      10A     -1.258904    11A     -1.088824    12A     -1.000071
      13A     -0.988054    14A     -0.872251    15A     -0.836845
      16A     -0.734127    17A     -0.706901    18A     -0.666449
      19A     -0.638577    20A     -0.605666    21A     -0.601980
      22A     -0.572152    23A     -0.562954    24A     -0.554409
      25A     -0.525786    26A     -0.513056    27A     -0.508553
      28A     -0.489421    29A     -0.479708    30A     -0.408410
      31A     -0.370830

  @DF-RHF Final Energy:  -363.04422376464413

   => Energetics <=

    Nuclear Repulsion Energy =            395.3849464137965128
    One-Electron Energy =               -1276.8829283152301741
    Two-Electron Energy =                 518.4537581367894745
    Total Energy =                       -363.0442237646441299
  Basis Set: (AUG-CC-PVTZ AUX)
    Blend: AUG-CC-PVTZ-RI
    Molecular point group: c1

    Geometry (in Angstrom), charge = 0, multiplicity = 1:

       Center              X                  Y                   Z               Mass
    ------------   -----------------  -----------------  -----------------  -----------------
         O            0.007566994160     2.016384993141    -0.098070579627    15.994914619570
         N            0.252909994160    -0.272208006859    -0.342401579627    14.003074004430
         C           -0.473123005840    -1.488791006859    -0.013107579627    12.000000000000
         C           -1.932553005840    -1.012842006859    -0.032310579627    12.000000000000
         C           -1.831198005840     0.445470993141     0.417065420373    12.000000000000
         C           -0.440582005840     0.872065993141    -0.035012579627    12.000000000000
         C            1.679440994160    -0.238968006859    -0.605517579627    12.000000000000
         C            2.515600994160    -0.385899006859     0.662034420373    12.000000000000
         H           -0.240098405840    -1.805477606859     0.796926720373     1.007825032230
         H           -0.267674005840    -2.270659006859    -0.752709579627     1.007825032230
         H           -2.577468005840    -1.625592006859     0.602807420373     1.007825032230
         H           -2.314950005840    -1.063136006859    -1.056090579627     1.007825032230
         H           -1.873979005840     0.538676993141     1.509341420373     1.007825032230
         H           -2.592946005840     1.107686993141    -0.000500579627     1.007825032230
         H            1.912938994160    -1.031993006859    -1.325115579627     1.007825032230
         H            1.880008994160     0.724331993141    -1.080909579627     1.007825032230
         H            2.290175994160     0.433231993141     1.349168420373     1.007825032230
         H            2.310876994160    -1.334417006859     1.166380420373     1.007825032230
         H            3.583021994160    -0.352980006859     0.423412420373     1.007825032230

  Basis Set: AUG-CC-PVTZ
    Blend: AUG-CC-PVTZ
  Basis Set: (AUG-CC-PVTZ AUX)
    Blend: AUG-CC-PVTZ-JKFIT
	 Reference Energy          =    -363.0442237646441299 [Eh]
	 Singles Energy            =      -0.0000000000000000 [Eh]
	 Same-Spin Energy          =      -0.3766660347169745 [Eh]
	 Opposite-Spin Energy      =      -1.2460883437463117 [Eh]
	 Correlation Energy        =      -1.6227543784632861 [Eh]
	 Total Energy              =    -364.6669781431074284 [Eh]

	 ================> DF-SCS-MP2 Energies <==================
	-----------------------------------------------------------
	 SCS Same-Spin Scale       =       0.3333333333333333 [-]
	 SCS Opposite-Spin Scale   =       1.2000000000000000 [-]
	 SCS Same-Spin Energy      =      -0.1255553449056581 [Eh]
	 SCS Opposite-Spin Energy  =      -1.4953060124955739 [Eh]
	 SCS Correlation Energy    =      -1.6208613574012321 [Eh]
	 SCS Total Energy          =    -364.6650851220453546 [Eh]
	-----------------------------------------------------------

  Dipole Moment: [D]
     X:    -0.4453      Y:    -4.0503      Z:     0.3408     Total:     4.0889

*** Psi4 exiting successfully. Buy a developer a beer!
