                               Psi4 1.3.2 release

  ==> Input File <==

--------------------------------------------------------------------------
#psi4
#
memory 32 gb

molecule  {
0 1
  O       -0.0101440     2.0708820    -0.1140410
  N        0.2351990    -0.2177110    -0.3583720
  C       -0.4784638    -1.3947154    -0.0630184
  C       -1.9502640    -0.9583450    -0.0482810
  C       -1.8489090     0.4999680     0.4010950
  C       -0.4582930     0.9265630    -0.0509830
  C        1.6617300    -0.1844710    -0.6214880
  C        2.4978900    -0.3314020     0.6460640
  H       -0.2060500    -1.8213230     0.9608810
  H       -0.2853850    -2.2161620    -0.7686800
  H       -2.5951790    -1.5710950     0.5868370
  H       -2.3326610    -1.0086390    -1.0720610
  H       -1.8916900     0.5931740     1.4933710
  H       -2.6106570     1.1621840    -0.0164710
  H        1.8952280    -0.9774960    -1.3410860
  H        1.8622980     0.7788290    -1.0968800
  H        2.2724650     0.4877290     1.3331980
  H        2.2931660    -1.2799200     1.1504100
  H        3.5653110    -0.2984830     0.4074420
units angstrom
no_reorient  #important for SAPT in psi4, default
symmetry c1  #important for SAPT in psi4, default
}

set PROPERTIES_ORIGIN ["COM"]
properties('MP2/aug-cc-pvtz', properties = ['dipole'])
--------------------------------------------------------------------------

    Molecular point group: c1
  Charge       = 0
  Multiplicity = 1
  Basis Set: AUG-CC-PVTZ
    Blend: AUG-CC-PVTZ
  Basis Set: (AUG-CC-PVTZ AUX)
    Blend: AUG-CC-PVTZ-JKFIT

    Orbital Energies [Eh]
    ---------------------

    Doubly Occupied:

       1A    -20.513548     2A    -15.582322     3A    -11.343148
       4A    -11.275057     5A    -11.262793     6A    -11.241882
       7A    -11.240198     8A    -11.219347     9A     -1.369991
      10A     -1.268990    11A     -1.089012    12A     -1.003160
      13A     -0.970548    14A     -0.872333    15A     -0.830762
      16A     -0.729513    17A     -0.693610    18A     -0.670839
      19A     -0.641183    20A     -0.606068    21A     -0.586444
      22A     -0.575758    23A     -0.563382    24A     -0.555919
      25A     -0.523656    26A     -0.514095    27A     -0.508429
      28A     -0.491394    29A     -0.474762    30A     -0.411161
      31A     -0.367435

  @DF-RHF Final Energy:  -363.07311340641837

   => Energetics <=

    Nuclear Repulsion Energy =            395.1376645762803150
    One-Electron Energy =               -1276.4280745578494134
    Two-Electron Energy =                 518.2172965751507263
    Total Energy =                       -363.0731134064184289
  Basis Set: (AUG-CC-PVTZ AUX)
    Blend: AUG-CC-PVTZ-RI
    Molecular point group: c1

    Geometry (in Angstrom), charge = 0, multiplicity = 1:

       Center              X                  Y                   Z               Mass
    ------------   -----------------  -----------------  -----------------  -----------------
         O            0.005793032278     2.012811984229    -0.096072489220    15.994914619570
         N            0.251136032278    -0.275781015771    -0.340403489220    14.003074004430
         C           -0.462526767722    -1.452785415771    -0.045049889220    12.000000000000
         C           -1.934326967722    -1.016415015771    -0.030312489220    12.000000000000
         C           -1.832971967722     0.441897984229     0.419063510780    12.000000000000
         C           -0.442355967722     0.868492984229    -0.033014489220    12.000000000000
         C            1.677667032278    -0.242541015771    -0.603519489220    12.000000000000
         C            2.513827032278    -0.389472015771     0.664032510780    12.000000000000
         H           -0.190112967722    -1.879393015771     0.978849510780     1.007825032230
         H           -0.269447967722    -2.274232015771    -0.750711489220     1.007825032230
         H           -2.579241967722    -1.629165015771     0.604805510780     1.007825032230
         H           -2.316723967722    -1.066709015771    -1.054092489220     1.007825032230
         H           -1.875752967722     0.535103984229     1.511339510780     1.007825032230
         H           -2.594719967722     1.104113984229     0.001497510780     1.007825032230
         H            1.911165032278    -1.035566015771    -1.323117489220     1.007825032230
         H            1.878235032278     0.720758984229    -1.078911489220     1.007825032230
         H            2.288402032278     0.429658984229     1.351166510780     1.007825032230
         H            2.309103032278    -1.337990015771     1.168378510780     1.007825032230
         H            3.581248032278    -0.356553015771     0.425410510780     1.007825032230

  Basis Set: AUG-CC-PVTZ
    Blend: AUG-CC-PVTZ
  Basis Set: (AUG-CC-PVTZ AUX)
    Blend: AUG-CC-PVTZ-JKFIT
	 Reference Energy          =    -363.0731134064183721 [Eh]
	 Singles Energy            =      -0.0000000000000000 [Eh]
	 Same-Spin Energy          =      -0.3770904479130650 [Eh]
	 Opposite-Spin Energy      =      -1.2469853735389838 [Eh]
	 Correlation Energy        =      -1.6240758214520488 [Eh]
	 Total Energy              =    -364.6971892278704104 [Eh]

	 ================> DF-SCS-MP2 Energies <==================
	-----------------------------------------------------------
	 SCS Same-Spin Scale       =       0.3333333333333333 [-]
	 SCS Opposite-Spin Scale   =       1.2000000000000000 [-]
	 SCS Same-Spin Energy      =      -0.1256968159710217 [Eh]
	 SCS Opposite-Spin Energy  =      -1.4963824482467805 [Eh]
	 SCS Correlation Energy    =      -1.6220792642178021 [Eh]
	 SCS Total Energy          =    -364.6951926706361746 [Eh]
	-----------------------------------------------------------

  Dipole Moment: [D]
     X:    -0.4236      Y:    -3.8155      Z:     0.1852     Total:     3.8434

*** Psi4 exiting successfully. Buy a developer a beer!
