                               Psi4 1.3.2 release

  ==> Input File <==

--------------------------------------------------------------------------
#psi4
#
memory 32 gb

molecule  {
0 1
  O       -0.0101440     2.0708820    -0.1140410
  N        0.2351990    -0.2177110    -0.3583720
  C       -0.3578446    -1.5074126    -0.0411942
  C       -1.9502640    -0.9583450    -0.0482810
  C       -1.8489090     0.4999680     0.4010950
  C       -0.4582930     0.9265630    -0.0509830
  C        1.6617300    -0.1844710    -0.6214880
  C        2.4978900    -0.3314020     0.6460640
  H       -0.2060500    -1.8213230     0.9608810
  H       -0.2853850    -2.2161620    -0.7686800
  H       -2.5951790    -1.5710950     0.5868370
  H       -2.3326610    -1.0086390    -1.0720610
  H       -1.8916900     0.5931740     1.4933710
  H       -2.6106570     1.1621840    -0.0164710
  H        1.8952280    -0.9774960    -1.3410860
  H        1.8622980     0.7788290    -1.0968800
  H        2.2724650     0.4877290     1.3331980
  H        2.2931660    -1.2799200     1.1504100
  H        3.5653110    -0.2984830     0.4074420
units angstrom
no_reorient  #important for SAPT in psi4, default
symmetry c1  #important for SAPT in psi4, default
}

set PROPERTIES_ORIGIN ["COM"]
properties('MP2/aug-cc-pvtz', properties = ['dipole'])
--------------------------------------------------------------------------

    Molecular point group: c1
  Charge       = 0
  Multiplicity = 1
  Basis Set: AUG-CC-PVTZ
    Blend: AUG-CC-PVTZ
  Basis Set: (AUG-CC-PVTZ AUX)
    Blend: AUG-CC-PVTZ-JKFIT

    Orbital Energies [Eh]
    ---------------------

    Doubly Occupied:

       1A    -20.513716     2A    -15.582648     3A    -11.344271
       4A    -11.272776     5A    -11.257570     6A    -11.246900
       7A    -11.239538     8A    -11.217990     9A     -1.367734
      10A     -1.255687    11A     -1.076122    12A     -0.998092
      13A     -0.972700    14A     -0.868359    15A     -0.832224
      16A     -0.730844    17A     -0.692577    18A     -0.670308
      19A     -0.644066    20A     -0.606906    21A     -0.596932
      22A     -0.579598    23A     -0.560158    24A     -0.547550
      25A     -0.525074    26A     -0.515109    27A     -0.501344
      28A     -0.482367    29A     -0.457088    30A     -0.411754
      31A     -0.372785

  @DF-RHF Final Energy:  -363.05526697294448

   => Energetics <=

    Nuclear Repulsion Energy =            393.0124006653098263
    One-Electron Energy =               -1272.2537640567989001
    Two-Electron Energy =                 516.1860964185445937
    Total Energy =                       -363.0552669729445370
  Basis Set: (AUG-CC-PVTZ AUX)
    Blend: AUG-CC-PVTZ-RI
    Molecular point group: c1

    Geometry (in Angstrom), charge = 0, multiplicity = 1:

       Center              X                  Y                   Z               Mass
    ------------   -----------------  -----------------  -----------------  -----------------
         O           -0.007006564314     2.024770931868    -0.098388380520    15.994914619570
         N            0.238336435686    -0.263822068132    -0.342719380520    14.003074004430
         C           -0.354707164314    -1.553523668132    -0.025541580520    12.000000000000
         C           -1.947126564314    -1.004456068132    -0.032628380520    12.000000000000
         C           -1.845771564314     0.453856931868     0.416747619480    12.000000000000
         C           -0.455155564314     0.880451931868    -0.035330380520    12.000000000000
         C            1.664867435686    -0.230582068132    -0.605835380520    12.000000000000
         C            2.501027435686    -0.377513068132     0.661716619480    12.000000000000
         H           -0.202912564314    -1.867434068132     0.976533619480     1.007825032230
         H           -0.282247564314    -2.262273068132    -0.753027380520     1.007825032230
         H           -2.592041564314    -1.617206068132     0.602489619480     1.007825032230
         H           -2.329523564314    -1.054750068132    -1.056408380520     1.007825032230
         H           -1.888552564314     0.547062931868     1.509023619480     1.007825032230
         H           -2.607519564314     1.116072931868    -0.000818380520     1.007825032230
         H            1.898365435686    -1.023607068132    -1.325433380520     1.007825032230
         H            1.865435435686     0.732717931868    -1.081227380520     1.007825032230
         H            2.275602435686     0.441617931868     1.348850619480     1.007825032230
         H            2.296303435686    -1.326031068132     1.166062619480     1.007825032230
         H            3.568448435686    -0.344594068132     0.423094619480     1.007825032230

  Basis Set: AUG-CC-PVTZ
    Blend: AUG-CC-PVTZ
  Basis Set: (AUG-CC-PVTZ AUX)
    Blend: AUG-CC-PVTZ-JKFIT
	 Reference Energy          =    -363.0552669729444801 [Eh]
	 Singles Energy            =      -0.0000000000000000 [Eh]
	 Same-Spin Energy          =      -0.3771417774863479 [Eh]
	 Opposite-Spin Energy      =      -1.2485480418382735 [Eh]
	 Correlation Energy        =      -1.6256898193246214 [Eh]
	 Total Energy              =    -364.6809567922691144 [Eh]

	 ================> DF-SCS-MP2 Energies <==================
	-----------------------------------------------------------
	 SCS Same-Spin Scale       =       0.3333333333333333 [-]
	 SCS Opposite-Spin Scale   =       1.2000000000000000 [-]
	 SCS Same-Spin Energy      =      -0.1257139258287826 [Eh]
	 SCS Opposite-Spin Energy  =      -1.4982576502059282 [Eh]
	 SCS Correlation Energy    =      -1.6239715760347109 [Eh]
	 SCS Total Energy          =    -364.6792385489791855 [Eh]
	-----------------------------------------------------------

  Dipole Moment: [D]
     X:    -0.4499      Y:    -3.9539      Z:     0.2654     Total:     3.9882

*** Psi4 exiting successfully. Buy a developer a beer!
