                               Psi4 1.3.2 release

  ==> Input File <==

--------------------------------------------------------------------------
#psi4
#
memory 32 gb

molecule  {
0 1
  O       -0.0101440     2.0708820    -0.1140410
  N        0.2351990    -0.2177110    -0.3583720
  C       -0.4908340    -1.4342940    -0.0290780
  C       -1.9502640    -0.9583450    -0.0482810
  C       -1.8489090     0.4999680     0.4010950
  C       -0.4582930     0.9265630    -0.0509830
  C        1.6617300    -0.1844710    -0.6214880
  C        2.4978900    -0.3314020     0.6460640
  H       -0.2060500    -1.8213230     0.9608810
  H       -0.2853850    -2.2161620    -0.7686800
  H       -2.5951790    -1.5710950     0.5868370
  H       -2.3326610    -1.0086390    -1.0720610
  H       -1.8877905     0.5846782     1.3938089
  H       -2.6106570     1.1621840    -0.0164710
  H        1.8952280    -0.9774960    -1.3410860
  H        1.8622980     0.7788290    -1.0968800
  H        2.2724650     0.4877290     1.3331980
  H        2.2931660    -1.2799200     1.1504100
  H        3.5653110    -0.2984830     0.4074420
units angstrom
no_reorient  #important for SAPT in psi4, default
symmetry c1  #important for SAPT in psi4, default
}

set PROPERTIES_ORIGIN ["COM"]
properties('MP2/aug-cc-pvtz', properties = ['dipole'])
--------------------------------------------------------------------------

    Molecular point group: c1
  Charge       = 0
  Multiplicity = 1
  Basis Set: AUG-CC-PVTZ
    Blend: AUG-CC-PVTZ
  Basis Set: (AUG-CC-PVTZ AUX)
    Blend: AUG-CC-PVTZ-JKFIT

    Orbital Energies [Eh]
    ---------------------

    Doubly Occupied:

       1A    -20.511660     2A    -15.580672     3A    -11.340814
       4A    -11.274672     5A    -11.260749     6A    -11.241636
       7A    -11.227910     8A    -11.218607     9A     -1.366855
      10A     -1.258352    11A     -1.090223    12A     -1.002233
      13A     -0.974999    14A     -0.870169    15A     -0.834799
      16A     -0.727450    17A     -0.697261    18A     -0.667573
      19A     -0.639911    20A     -0.609394    21A     -0.593919
      22A     -0.572747    23A     -0.563618    24A     -0.554494
      25A     -0.522665    26A     -0.512990    27A     -0.509899
      28A     -0.490126    29A     -0.481690    30A     -0.409152
      31A     -0.369397

  @DF-RHF Final Energy:  -363.07021259737610

   => Energetics <=

    Nuclear Repulsion Energy =            394.8044403823242305
    One-Electron Energy =               -1275.7960366642330428
    Two-Electron Energy =                 517.9213836845327705
    Total Energy =                       -363.0702125973760985
  Basis Set: (AUG-CC-PVTZ AUX)
    Blend: AUG-CC-PVTZ-RI
    Molecular point group: c1

    Geometry (in Angstrom), charge = 0, multiplicity = 1:

       Center              X                  Y                   Z               Mass
    ------------   -----------------  -----------------  -----------------  -----------------
         O            0.007070952272     2.017087613021    -0.098786785227    15.994914619570
         N            0.252413952272    -0.271505386979    -0.343117785227    14.003074004430
         C           -0.473619047728    -1.488088386979    -0.013823785227    12.000000000000
         C           -1.933049047728    -1.012139386979    -0.033026785227    12.000000000000
         C           -1.831694047728     0.446173613021     0.416349214773    12.000000000000
         C           -0.441078047728     0.872768613021    -0.035728785227    12.000000000000
         C            1.678944952272    -0.238265386979    -0.606233785227    12.000000000000
         C            2.515104952272    -0.385196386979     0.661318214773    12.000000000000
         H           -0.188835047728    -1.875117386979     0.976135214773     1.007825032230
         H           -0.268170047728    -2.269956386979    -0.753425785227     1.007825032230
         H           -2.577964047728    -1.624889386979     0.602091214773     1.007825032230
         H           -2.315446047728    -1.062433386979    -1.056806785227     1.007825032230
         H           -1.870575547728     0.530883813021     1.409063114773     1.007825032230
         H           -2.593442047728     1.108389613021    -0.001216785227     1.007825032230
         H            1.912442952272    -1.031290386979    -1.325831785227     1.007825032230
         H            1.879512952272     0.725034613021    -1.081625785227     1.007825032230
         H            2.289679952272     0.433934613021     1.348452214773     1.007825032230
         H            2.310380952272    -1.333714386979     1.165664214773     1.007825032230
         H            3.582525952272    -0.352277386979     0.422696214773     1.007825032230

  Basis Set: AUG-CC-PVTZ
    Blend: AUG-CC-PVTZ
  Basis Set: (AUG-CC-PVTZ AUX)
    Blend: AUG-CC-PVTZ-JKFIT
	 Reference Energy          =    -363.0702125973760985 [Eh]
	 Singles Energy            =      -0.0000000000000000 [Eh]
	 Same-Spin Energy          =      -0.3767503757351874 [Eh]
	 Opposite-Spin Energy      =      -1.2464168505966640 [Eh]
	 Correlation Energy        =      -1.6231672263318515 [Eh]
	 Total Energy              =    -364.6933798237079714 [Eh]

	 ================> DF-SCS-MP2 Energies <==================
	-----------------------------------------------------------
	 SCS Same-Spin Scale       =       0.3333333333333333 [-]
	 SCS Opposite-Spin Scale   =       1.2000000000000000 [-]
	 SCS Same-Spin Energy      =      -0.1255834585783958 [Eh]
	 SCS Opposite-Spin Energy  =      -1.4957002207159966 [Eh]
	 SCS Correlation Energy    =      -1.6212836792943923 [Eh]
	 SCS Total Energy          =    -364.6914962766704775 [Eh]
	-----------------------------------------------------------

  Dipole Moment: [D]
     X:    -0.4685      Y:    -3.9315      Z:     0.2814     Total:     3.9693

*** Psi4 exiting successfully. Buy a developer a beer!
