                               Psi4 1.3.2 release

  ==> Input File <==

--------------------------------------------------------------------------
#psi4
#
memory 32 gb

molecule  {
0 1
  O       -0.0101440     2.0708820    -0.1140410
  N        0.2351990    -0.2177110    -0.3583720
  C       -0.4908340    -1.4342940    -0.0290780
  C       -1.9502640    -0.9583450    -0.0482810
  C       -1.8489090     0.4999680     0.4010950
  C       -0.4582930     0.9265630    -0.0509830
  C        1.6617300    -0.1844710    -0.6214880
  C        2.4978900    -0.3314020     0.6460640
  H       -0.2170065    -1.7879160     0.9763484
  H       -0.2853850    -2.2161620    -0.7686800
  H       -2.5951790    -1.5710950     0.5868370
  H       -2.3326610    -1.0086390    -1.0720610
  H       -1.8916900     0.5931740     1.4933710
  H       -2.6106570     1.1621840    -0.0164710
  H        1.8952280    -0.9774960    -1.3410860
  H        1.8622980     0.7788290    -1.0968800
  H        2.2724650     0.4877290     1.3331980
  H        2.2931660    -1.2799200     1.1504100
  H        3.5653110    -0.2984830     0.4074420
units angstrom
no_reorient  #important for SAPT in psi4, default
symmetry c1  #important for SAPT in psi4, default
}

set PROPERTIES_ORIGIN ["COM"]
properties('MP2/aug-cc-pvtz', properties = ['dipole'])
--------------------------------------------------------------------------

    Molecular point group: c1
  Charge       = 0
  Multiplicity = 1
  Basis Set: AUG-CC-PVTZ
    Blend: AUG-CC-PVTZ
  Basis Set: (AUG-CC-PVTZ AUX)
    Blend: AUG-CC-PVTZ-JKFIT

    Orbital Energies [Eh]
    ---------------------

    Doubly Occupied:

       1A    -20.511448     2A    -15.580537     3A    -11.341200
       4A    -11.274995     5A    -11.260848     6A    -11.242232
       7A    -11.239948     8A    -11.218600     9A     -1.366733
      10A     -1.258494    11A     -1.087910    12A     -1.000448
      13A     -0.971945    14A     -0.870222    15A     -0.829116
      16A     -0.726107    17A     -0.693494    18A     -0.667751
      19A     -0.639385    20A     -0.604625    21A     -0.589409
      22A     -0.572650    23A     -0.563229    24A     -0.554448
      25A     -0.522836    26A     -0.513168    27A     -0.509380
      28A     -0.490080    29A     -0.477577    30A     -0.409195
      31A     -0.369312

  @DF-RHF Final Energy:  -363.07577805694393

   => Energetics <=

    Nuclear Repulsion Energy =            394.3397564805676438
    One-Electron Energy =               -1274.9164277718914491
    Two-Electron Energy =                 517.5008932343798733
    Total Energy =                       -363.0757780569439319
  Basis Set: (AUG-CC-PVTZ AUX)
    Blend: AUG-CC-PVTZ-RI
    Molecular point group: c1

    Geometry (in Angstrom), charge = 0, multiplicity = 1:

       Center              X                  Y                   Z               Mass
    ------------   -----------------  -----------------  -----------------  -----------------
         O            0.007203351552     2.016714167911    -0.099811948327    15.994914619570
         N            0.252546351552    -0.271878832089    -0.344142948327    14.003074004430
         C           -0.473486648448    -1.488461832089    -0.014848948327    12.000000000000
         C           -1.932916648448    -1.012512832089    -0.034051948327    12.000000000000
         C           -1.831561648448     0.445800167911     0.415324051673    12.000000000000
         C           -0.440945648448     0.872395167911    -0.036753948327    12.000000000000
         C            1.679077351552    -0.238638832089    -0.607258948327    12.000000000000
         C            2.515237351552    -0.385569832089     0.660293051673    12.000000000000
         H           -0.199659148448    -1.842083832089     0.990577451673     1.007825032230
         H           -0.268037648448    -2.270329832089    -0.754450948327     1.007825032230
         H           -2.577831648448    -1.625262832089     0.601066051673     1.007825032230
         H           -2.315313648448    -1.062806832089    -1.057831948327     1.007825032230
         H           -1.874342648448     0.539006167911     1.507600051673     1.007825032230
         H           -2.593309648448     1.108016167911    -0.002241948327     1.007825032230
         H            1.912575351552    -1.031663832089    -1.326856948327     1.007825032230
         H            1.879645351552     0.724661167911    -1.082650948327     1.007825032230
         H            2.289812351552     0.433561167911     1.347427051673     1.007825032230
         H            2.310513351552    -1.334087832089     1.164639051673     1.007825032230
         H            3.582658351552    -0.352650832089     0.421671051673     1.007825032230

  Basis Set: AUG-CC-PVTZ
    Blend: AUG-CC-PVTZ
  Basis Set: (AUG-CC-PVTZ AUX)
    Blend: AUG-CC-PVTZ-JKFIT
	 Reference Energy          =    -363.0757780569439319 [Eh]
	 Singles Energy            =      -0.0000000000000000 [Eh]
	 Same-Spin Energy          =      -0.3768229244122897 [Eh]
	 Opposite-Spin Energy      =      -1.2469925612294737 [Eh]
	 Correlation Energy        =      -1.6238154856417633 [Eh]
	 Total Energy              =    -364.6995935425857169 [Eh]

	 ================> DF-SCS-MP2 Energies <==================
	-----------------------------------------------------------
	 SCS Same-Spin Scale       =       0.3333333333333333 [-]
	 SCS Opposite-Spin Scale   =       1.2000000000000000 [-]
	 SCS Same-Spin Energy      =      -0.1256076414707632 [Eh]
	 SCS Opposite-Spin Energy  =      -1.4963910734753683 [Eh]
	 SCS Correlation Energy    =      -1.6219987149461315 [Eh]
	 SCS Total Energy          =    -364.6977767718900623 [Eh]
	-----------------------------------------------------------

  Dipole Moment: [D]
     X:    -0.4678      Y:    -3.9481      Z:     0.2518     Total:     3.9836

*** Psi4 exiting successfully. Buy a developer a beer!
