                               Psi4 1.3.2 release

  ==> Input File <==

--------------------------------------------------------------------------
#psi4
#
memory 32 gb

molecule  {
0 1
  O       -0.0101440     2.0708820    -0.1140410
  N        0.2351990    -0.2177110    -0.3583720
  C       -0.5208914    -1.5116640     0.0386914
  C       -1.9502640    -0.9583450    -0.0482810
  C       -1.8489090     0.4999680     0.4010950
  C       -0.4582930     0.9265630    -0.0509830
  C        1.6617300    -0.1844710    -0.6214880
  C        2.4978900    -0.3314020     0.6460640
  H       -0.2060500    -1.8213230     0.9608810
  H       -0.2853850    -2.2161620    -0.7686800
  H       -2.5951790    -1.5710950     0.5868370
  H       -2.3326610    -1.0086390    -1.0720610
  H       -1.8916900     0.5931740     1.4933710
  H       -2.6106570     1.1621840    -0.0164710
  H        1.8952280    -0.9774960    -1.3410860
  H        1.8622980     0.7788290    -1.0968800
  H        2.2724650     0.4877290     1.3331980
  H        2.2931660    -1.2799200     1.1504100
  H        3.5653110    -0.2984830     0.4074420
units angstrom
no_reorient  #important for SAPT in psi4, default
symmetry c1  #important for SAPT in psi4, default
}

set PROPERTIES_ORIGIN ["COM"]
properties('MP2/aug-cc-pvtz', properties = ['dipole'])
--------------------------------------------------------------------------

    Molecular point group: c1
  Charge       = 0
  Multiplicity = 1
  Basis Set: AUG-CC-PVTZ
    Blend: AUG-CC-PVTZ
  Basis Set: (AUG-CC-PVTZ AUX)
    Blend: AUG-CC-PVTZ-JKFIT

    Orbital Energies [Eh]
    ---------------------

    Doubly Occupied:

       1A    -20.508261     2A    -15.577729     3A    -11.338070
       4A    -11.277268     5A    -11.257475     6A    -11.244777
       7A    -11.239847     8A    -11.217279     9A     -1.361923
      10A     -1.240575    11A     -1.086484    12A     -0.996603
      13A     -0.975725    14A     -0.867411    15A     -0.829753
      16A     -0.720170    17A     -0.695375    18A     -0.660866
      19A     -0.636253    20A     -0.603296    21A     -0.600931
      22A     -0.568352    23A     -0.556945    24A     -0.551453
      25A     -0.525883    26A     -0.511457    27A     -0.507665
      28A     -0.484764    29A     -0.479837    30A     -0.405613
      31A     -0.370068

  @DF-RHF Final Energy:  -363.06462802792680

   => Energetics <=

    Nuclear Repulsion Energy =            392.6479904400427472
    One-Electron Energy =               -1271.6290250321553685
    Two-Electron Energy =                 515.9164065641857633
    Total Energy =                       -363.0646280279268012
  Basis Set: (AUG-CC-PVTZ AUX)
    Blend: AUG-CC-PVTZ-RI
    Molecular point group: c1

    Geometry (in Angstrom), charge = 0, multiplicity = 1:

       Center              X                  Y                   Z               Mass
    ------------   -----------------  -----------------  -----------------  -----------------
         O            0.010295268775     2.025222072358    -0.106865500693    15.994914619570
         N            0.255638268775    -0.263370927642    -0.351196500693    14.003074004430
         C           -0.500452131225    -1.557323927642     0.045866899307    12.000000000000
         C           -1.929824731225    -1.004004927642    -0.041105500693    12.000000000000
         C           -1.828469731225     0.454308072358     0.408270499307    12.000000000000
         C           -0.437853731225     0.880903072358    -0.043807500693    12.000000000000
         C            1.682169268775    -0.230130927642    -0.614312500693    12.000000000000
         C            2.518329268775    -0.377061927642     0.653239499307    12.000000000000
         H           -0.185610731225    -1.866982927642     0.968056499307     1.007825032230
         H           -0.264945731225    -2.261821927642    -0.761504500693     1.007825032230
         H           -2.574739731225    -1.616754927642     0.594012499307     1.007825032230
         H           -2.312221731225    -1.054298927642    -1.064885500693     1.007825032230
         H           -1.871250731225     0.547514072358     1.500546499307     1.007825032230
         H           -2.590217731225     1.116524072358    -0.009295500693     1.007825032230
         H            1.915667268775    -1.023155927642    -1.333910500693     1.007825032230
         H            1.882737268775     0.733169072358    -1.089704500693     1.007825032230
         H            2.292904268775     0.442069072358     1.340373499307     1.007825032230
         H            2.313605268775    -1.325579927642     1.157585499307     1.007825032230
         H            3.585750268775    -0.344142927642     0.414617499307     1.007825032230

  Basis Set: AUG-CC-PVTZ
    Blend: AUG-CC-PVTZ
  Basis Set: (AUG-CC-PVTZ AUX)
    Blend: AUG-CC-PVTZ-JKFIT
	 Reference Energy          =    -363.0646280279268012 [Eh]
	 Singles Energy            =      -0.0000000000000000 [Eh]
	 Same-Spin Energy          =      -0.3767288017598291 [Eh]
	 Opposite-Spin Energy      =      -1.2478360700269269 [Eh]
	 Correlation Energy        =      -1.6245648717867560 [Eh]
	 Total Energy              =    -364.6891928997135324 [Eh]

	 ================> DF-SCS-MP2 Energies <==================
	-----------------------------------------------------------
	 SCS Same-Spin Scale       =       0.3333333333333333 [-]
	 SCS Opposite-Spin Scale   =       1.2000000000000000 [-]
	 SCS Same-Spin Energy      =      -0.1255762672532764 [Eh]
	 SCS Opposite-Spin Energy  =      -1.4974032840323122 [Eh]
	 SCS Correlation Energy    =      -1.6229795512855885 [Eh]
	 SCS Total Energy          =    -364.6876075792123970 [Eh]
	-----------------------------------------------------------

  Dipole Moment: [D]
     X:    -0.5447      Y:    -4.1552      Z:     0.3567     Total:     4.2059

*** Psi4 exiting successfully. Buy a developer a beer!
