                               Psi4 1.3.2 release

  ==> Input File <==

--------------------------------------------------------------------------
#psi4
#
memory 32 gb

molecule  {
0 1
  O       -0.0101440     2.0708820    -0.1140410
  N        0.2379120    -0.1982305    -0.3424204
  C       -0.4908340    -1.4342940    -0.0290780
  C       -1.9502640    -0.9583450    -0.0482810
  C       -1.8489090     0.4999680     0.4010950
  C       -0.4582930     0.9265630    -0.0509830
  C        1.6617300    -0.1844710    -0.6214880
  C        2.4978900    -0.3314020     0.6460640
  H       -0.2060500    -1.8213230     0.9608810
  H       -0.2853850    -2.2161620    -0.7686800
  H       -2.5951790    -1.5710950     0.5868370
  H       -2.3326610    -1.0086390    -1.0720610
  H       -1.8916900     0.5931740     1.4933710
  H       -2.6106570     1.1621840    -0.0164710
  H        1.8952280    -0.9774960    -1.3410860
  H        1.8622980     0.7788290    -1.0968800
  H        2.2724650     0.4877290     1.3331980
  H        2.2931660    -1.2799200     1.1504100
  H        3.5653110    -0.2984830     0.4074420
units angstrom
no_reorient  #important for SAPT in psi4, default
symmetry c1  #important for SAPT in psi4, default
}

set PROPERTIES_ORIGIN ["COM"]
properties('MP2/aug-cc-pvtz', properties = ['dipole'])
--------------------------------------------------------------------------

    Molecular point group: c1
  Charge       = 0
  Multiplicity = 1
  Basis Set: AUG-CC-PVTZ
    Blend: AUG-CC-PVTZ
  Basis Set: (AUG-CC-PVTZ AUX)
    Blend: AUG-CC-PVTZ-JKFIT

    Orbital Energies [Eh]
    ---------------------

    Doubly Occupied:

       1A    -20.507457     2A    -15.581872     3A    -11.338229
       4A    -11.276688     5A    -11.261608     6A    -11.242670
       7A    -11.239443     8A    -11.218890     9A     -1.366379
      10A     -1.258065    11A     -1.088292    12A     -1.001736
      13A     -0.972625    14A     -0.870818    15A     -0.830861
      16A     -0.726236    17A     -0.693287    18A     -0.667590
      19A     -0.639123    20A     -0.605911    21A     -0.588779
      22A     -0.572222    23A     -0.562684    24A     -0.554130
      25A     -0.522382    26A     -0.514151    27A     -0.509633
      28A     -0.489493    29A     -0.477126    30A     -0.407725
      31A     -0.370183

  @DF-RHF Final Energy:  -363.07619593641363

   => Energetics <=

    Nuclear Repulsion Energy =            394.4939721226656388
    One-Electron Energy =               -1275.2277663459067298
    Two-Electron Energy =                 517.6575982868275787
    Total Energy =                       -363.0761959364135691
  Basis Set: (AUG-CC-PVTZ AUX)
    Blend: AUG-CC-PVTZ-RI
    Molecular point group: c1

    Geometry (in Angstrom), charge = 0, multiplicity = 1:

       Center              X                  Y                   Z               Mass
    ------------   -----------------  -----------------  -----------------  -----------------
         O            0.006769757524     2.014599648288    -0.101649369048    15.994914619570
         N            0.254825757524    -0.254512851712    -0.330028769048    14.003074004430
         C           -0.473920242476    -1.490576351712    -0.016686369048    12.000000000000
         C           -1.933350242476    -1.014627351712    -0.035889369048    12.000000000000
         C           -1.831995242476     0.443685648288     0.413486630952    12.000000000000
         C           -0.441379242476     0.870280648288    -0.038591369048    12.000000000000
         C            1.678643757524    -0.240753351712    -0.609096369048    12.000000000000
         C            2.514803757524    -0.387684351712     0.658455630952    12.000000000000
         H           -0.189136242476    -1.877605351712     0.973272630952     1.007825032230
         H           -0.268471242476    -2.272444351712    -0.756288369048     1.007825032230
         H           -2.578265242476    -1.627377351712     0.599228630952     1.007825032230
         H           -2.315747242476    -1.064921351712    -1.059669369048     1.007825032230
         H           -1.874776242476     0.536891648288     1.505762630952     1.007825032230
         H           -2.593743242476     1.105901648288    -0.004079369048     1.007825032230
         H            1.912141757524    -1.033778351712    -1.328694369048     1.007825032230
         H            1.879211757524     0.722546648288    -1.084488369048     1.007825032230
         H            2.289378757524     0.431446648288     1.345589630952     1.007825032230
         H            2.310079757524    -1.336202351712     1.162801630952     1.007825032230
         H            3.582224757524    -0.354765351712     0.419833630952     1.007825032230

  Basis Set: AUG-CC-PVTZ
    Blend: AUG-CC-PVTZ
  Basis Set: (AUG-CC-PVTZ AUX)
    Blend: AUG-CC-PVTZ-JKFIT
	 Reference Energy          =    -363.0761959364136260 [Eh]
	 Singles Energy            =      -0.0000000000000000 [Eh]
	 Same-Spin Energy          =      -0.3766135653507257 [Eh]
	 Opposite-Spin Energy      =      -1.2466232647897986 [Eh]
	 Correlation Energy        =      -1.6232368301405242 [Eh]
	 Total Energy              =    -364.6994327665541391 [Eh]

	 ================> DF-SCS-MP2 Energies <==================
	-----------------------------------------------------------
	 SCS Same-Spin Scale       =       0.3333333333333333 [-]
	 SCS Opposite-Spin Scale   =       1.2000000000000000 [-]
	 SCS Same-Spin Energy      =      -0.1255378551169085 [Eh]
	 SCS Opposite-Spin Energy  =      -1.4959479177477581 [Eh]
	 SCS Correlation Energy    =      -1.6214857728646668 [Eh]
	 SCS Total Energy          =    -364.6976817092782994 [Eh]
	-----------------------------------------------------------

  Dipole Moment: [D]
     X:    -0.4441      Y:    -4.0705      Z:     0.2231     Total:     4.1007

*** Psi4 exiting successfully. Buy a developer a beer!
