                               Psi4 1.3.2 release

  ==> Input File <==

--------------------------------------------------------------------------
#psi4
#
memory 32 gb

molecule  {
0 1
  O       -0.0101440     2.0708820    -0.1140410
  N        0.2351990    -0.2177110    -0.3583720
  C       -0.4908340    -1.4342940    -0.0290780
  C       -1.9502640    -0.9583450    -0.0482810
  C       -1.8489090     0.4999680     0.4010950
  C       -0.4582930     0.9265630    -0.0509830
  C        1.6617300    -0.1844710    -0.6214880
  C        2.4978900    -0.3314020     0.6460640
  H       -0.2060500    -1.8213230     0.9608810
  H       -0.2853850    -2.2161620    -0.7686800
  H       -2.6364167    -1.5873153     0.5247317
  H       -2.3326610    -1.0086390    -1.0720610
  H       -1.8916900     0.5931740     1.4933710
  H       -2.6106570     1.1621840    -0.0164710
  H        1.8952280    -0.9774960    -1.3410860
  H        1.8622980     0.7788290    -1.0968800
  H        2.2724650     0.4877290     1.3331980
  H        2.2931660    -1.2799200     1.1504100
  H        3.5653110    -0.2984830     0.4074420
units angstrom
no_reorient  #important for SAPT in psi4, default
symmetry c1  #important for SAPT in psi4, default
}

set PROPERTIES_ORIGIN ["COM"]
properties('MP2/aug-cc-pvtz', properties = ['dipole'])
--------------------------------------------------------------------------

    Molecular point group: c1
  Charge       = 0
  Multiplicity = 1
  Basis Set: AUG-CC-PVTZ
    Blend: AUG-CC-PVTZ
  Basis Set: (AUG-CC-PVTZ AUX)
    Blend: AUG-CC-PVTZ-JKFIT

    Orbital Energies [Eh]
    ---------------------

    Doubly Occupied:

       1A    -20.511868     2A    -15.581201     3A    -11.341748
       4A    -11.275364     5A    -11.261086     6A    -11.242386
       7A    -11.240450     8A    -11.218708     9A     -1.367096
      10A     -1.258664    11A     -1.087631    12A     -1.000503
      13A     -0.972159    14A     -0.870632    15A     -0.830626
      16A     -0.726608    17A     -0.691810    18A     -0.668245
      19A     -0.639700    20A     -0.603698    21A     -0.589289
      22A     -0.572092    23A     -0.563078    24A     -0.557427
      25A     -0.521598    26A     -0.513536    27A     -0.509415
      28A     -0.490627    29A     -0.475833    30A     -0.409879
      31A     -0.369693

  @DF-RHF Final Energy:  -363.07537700280227

   => Energetics <=

    Nuclear Repulsion Energy =            394.2197126846989477
    One-Electron Energy =               -1274.6648769376167820
    Two-Electron Energy =                 517.3697872501155643
    Total Energy =                       -363.0753770028022700
  Basis Set: (AUG-CC-PVTZ AUX)
    Blend: AUG-CC-PVTZ-RI
    Molecular point group: c1

    Geometry (in Angstrom), charge = 0, multiplicity = 1:

       Center              X                  Y                   Z               Mass
    ------------   -----------------  -----------------  -----------------  -----------------
         O            0.007473222923     2.017156455121    -0.099120606805    15.994914619570
         N            0.252816222923    -0.271436544879    -0.343451606805    14.003074004430
         C           -0.473216777077    -1.488019544879    -0.014157606805    12.000000000000
         C           -1.932646777077    -1.012070544879    -0.033360606805    12.000000000000
         C           -1.831291777077     0.446242455121     0.416015393195    12.000000000000
         C           -0.440675777077     0.872837455121    -0.036062606805    12.000000000000
         C            1.679347222923    -0.238196544879    -0.606567606805    12.000000000000
         C            2.515507222923    -0.385127544879     0.660984393195    12.000000000000
         H           -0.188432777077    -1.875048544879     0.975801393195     1.007825032230
         H           -0.267767777077    -2.269887544879    -0.753759606805     1.007825032230
         H           -2.618799477077    -1.641040844879     0.539652093195     1.007825032230
         H           -2.315043777077    -1.062364544879    -1.057140606805     1.007825032230
         H           -1.874072777077     0.539448455121     1.508291393195     1.007825032230
         H           -2.593039777077     1.108458455121    -0.001550606805     1.007825032230
         H            1.912845222923    -1.031221544879    -1.326165606805     1.007825032230
         H            1.879915222923     0.725103455121    -1.081959606805     1.007825032230
         H            2.290082222923     0.434003455121     1.348118393195     1.007825032230
         H            2.310783222923    -1.333645544879     1.165330393195     1.007825032230
         H            3.582928222923    -0.352208544879     0.422362393195     1.007825032230

  Basis Set: AUG-CC-PVTZ
    Blend: AUG-CC-PVTZ
  Basis Set: (AUG-CC-PVTZ AUX)
    Blend: AUG-CC-PVTZ-JKFIT
	 Reference Energy          =    -363.0753770028022700 [Eh]
	 Singles Energy            =      -0.0000000000000000 [Eh]
	 Same-Spin Energy          =      -0.3767823409069972 [Eh]
	 Opposite-Spin Energy      =      -1.2468563948481561 [Eh]
	 Correlation Energy        =      -1.6236387357551534 [Eh]
	 Total Energy              =    -364.6990157385574207 [Eh]

	 ================> DF-SCS-MP2 Energies <==================
	-----------------------------------------------------------
	 SCS Same-Spin Scale       =       0.3333333333333333 [-]
	 SCS Opposite-Spin Scale   =       1.2000000000000000 [-]
	 SCS Same-Spin Energy      =      -0.1255941136356657 [Eh]
	 SCS Opposite-Spin Energy  =      -1.4962276738177873 [Eh]
	 SCS Correlation Energy    =      -1.6218217874534531 [Eh]
	 SCS Total Energy          =    -364.6971987902556975 [Eh]
	-----------------------------------------------------------

  Dipole Moment: [D]
     X:    -0.4725      Y:    -3.9512      Z:     0.2370     Total:     3.9864

*** Psi4 exiting successfully. Buy a developer a beer!
