                               Psi4 1.4a3.dev225

  ==> Input File <==

--------------------------------------------------------------------------
#psi4
#
memory 32 gb

molecule  {
0 1
  O       -0.0101440     2.0708820    -0.1140410
  N        0.2351990    -0.2177110    -0.3583720
  C       -0.4908340    -1.4342940    -0.0290780
  C       -1.9502640    -0.9583450    -0.0482810
  C       -1.8489090     0.4999680     0.4010950
  C       -0.4582930     0.9265630    -0.0509830
  C        1.6617300    -0.1844710    -0.6214880
  C        2.4978900    -0.3314020     0.6460640
  H       -0.2060500    -1.8213230     0.9608810
  H       -0.2853850    -2.2161620    -0.7686800
  H       -2.5951790    -1.5710950     0.5868370
  H       -2.3326610    -1.0086390    -1.0720610
  H       -1.8897402     0.5889261     1.4435899
  H       -2.6106570     1.1621840    -0.0164710
  H        1.8952280    -0.9774960    -1.3410860
  H        1.8622980     0.7788290    -1.0968800
  H        2.2724650     0.4877290     1.3331980
  H        2.2931660    -1.2799200     1.1504100
  H        3.5653110    -0.2984830     0.4074420
units angstrom
no_reorient  #important for SAPT in psi4, default
symmetry c1  #important for SAPT in psi4, default
}

set PROPERTIES_ORIGIN ["COM"]
properties('MP2/aug-cc-pvtz', properties = ['dipole'])
--------------------------------------------------------------------------

    Molecular point group: c1
  Charge       = 0
  Multiplicity = 1
  Basis Set: AUG-CC-PVTZ
    Blend: AUG-CC-PVTZ
  Basis Set: (AUG-CC-PVTZ AUX)
    Blend: AUG-CC-PVTZ-JKFIT

    Orbital Energies [Eh]
    ---------------------

    Doubly Occupied:

       1A    -20.511611     2A    -15.580797     3A    -11.341055
       4A    -11.274770     5A    -11.260819     6A    -11.241998
       7A    -11.234004     8A    -11.218625     9A     -1.366837
      10A     -1.258400    11A     -1.088876    12A     -1.001225
      13A     -0.973433    14A     -0.870183    15A     -0.831920
      16A     -0.726814    17A     -0.695170    18A     -0.667621
      19A     -0.639601    20A     -0.606604    21A     -0.591968
      22A     -0.572511    23A     -0.563458    24A     -0.554558
      25A     -0.522783    26A     -0.513040    27A     -0.509713
      28A     -0.490106    29A     -0.479755    30A     -0.409246
      31A     -0.369442

  @DF-RHF Final Energy:  -363.07508615275492

   => Energetics <=

    Nuclear Repulsion Energy =            394.5382454173500832
    One-Electron Energy =               -1275.2927769586972317
    Two-Electron Energy =                 517.6794453885922849
    Total Energy =                       -363.0750861527549205
  Basis Set: (AUG-CC-PVTZ AUX)
    Blend: AUG-CC-PVTZ-RI
    Molecular point group: c1

    Geometry (in Angstrom), charge = 0, multiplicity = 1:

       Center              X                  Y                   Z               Mass
    ------------   -----------------  -----------------  -----------------  -----------------
         O            0.007088328340     2.017049754990    -0.099230442239    15.994914619570
         N            0.252431328340    -0.271543245010    -0.343561442239    14.003074004430
         C           -0.473601671660    -1.488126245010    -0.014267442239    12.000000000000
         C           -1.933031671660    -1.012177245010    -0.033470442239    12.000000000000
         C           -1.831676671660     0.446135754990     0.415905557761    12.000000000000
         C           -0.441060671660     0.872730754990    -0.036172442239    12.000000000000
         C            1.678962328340    -0.238303245010    -0.606677442239    12.000000000000
         C            2.515122328340    -0.385234245010     0.660874557761    12.000000000000
         H           -0.188817671660    -1.875155245010     0.975691557761     1.007825032230
         H           -0.268152671660    -2.269994245010    -0.753869442239     1.007825032230
         H           -2.577946671660    -1.624927245010     0.601647557761     1.007825032230
         H           -2.315428671660    -1.062471245010    -1.057250442239     1.007825032230
         H           -1.872507871660     0.535093854990     1.458400457761     1.007825032230
         H           -2.593424671660     1.108351754990    -0.001660442239     1.007825032230
         H            1.912460328340    -1.031328245010    -1.326275442239     1.007825032230
         H            1.879530328340     0.724996754990    -1.082069442239     1.007825032230
         H            2.289697328340     0.433896754990     1.348008557761     1.007825032230
         H            2.310398328340    -1.333752245010     1.165220557761     1.007825032230
         H            3.582543328340    -0.352315245010     0.422252557761     1.007825032230

  Basis Set: AUG-CC-PVTZ
    Blend: AUG-CC-PVTZ
  Basis Set: (AUG-CC-PVTZ AUX)
    Blend: AUG-CC-PVTZ-JKFIT
	 Reference Energy          =    -363.0750861527549205 [Eh]
	 Singles Energy            =      -0.0000000000000000 [Eh]
	 Same-Spin Energy          =      -0.3767607717415120 [Eh]
	 Opposite-Spin Energy      =      -1.2466301018704786 [Eh]
	 Correlation Energy        =      -1.6233908736119906 [Eh]
	 Total Energy              =    -364.6984770263669020 [Eh]

	 ================> DF-SCS-MP2 Energies <==================
	-----------------------------------------------------------
	 SCS Same-Spin Scale       =       0.3333333333333333 [-]
	 SCS Opposite-Spin Scale   =       1.2000000000000000 [-]
	 SCS Same-Spin Energy      =      -0.1255869239138373 [Eh]
	 SCS Opposite-Spin Energy  =      -1.4959561222445743 [Eh]
	 SCS Correlation Energy    =      -1.6215430461584117 [Eh]
	 SCS Total Energy          =    -364.6966291989133424 [Eh]
	-----------------------------------------------------------

  Dipole Moment: [D]
     X:    -0.4664      Y:    -3.9386      Z:     0.2693     Total:     3.9752

*** Psi4 exiting successfully. Buy a developer a beer!
