                               Psi4 1.3.2 release

  ==> Input File <==

--------------------------------------------------------------------------
#psi4
#
memory 32 gb

molecule  {
0 1
  O       -0.0101440     2.0708820    -0.1140410
  N        0.2351990    -0.2177110    -0.3583720
  C       -0.4908340    -1.4342940    -0.0290780
  C       -1.9715714    -0.9520602    -0.0630778
  C       -1.8489090     0.4999680     0.4010950
  C       -0.4582930     0.9265630    -0.0509830
  C        1.6617300    -0.1844710    -0.6214880
  C        2.4978900    -0.3314020     0.6460640
  H       -0.2060500    -1.8213230     0.9608810
  H       -0.2853850    -2.2161620    -0.7686800
  H       -2.5951790    -1.5710950     0.5868370
  H       -2.3326610    -1.0086390    -1.0720610
  H       -1.8916900     0.5931740     1.4933710
  H       -2.6106570     1.1621840    -0.0164710
  H        1.8952280    -0.9774960    -1.3410860
  H        1.8622980     0.7788290    -1.0968800
  H        2.2724650     0.4877290     1.3331980
  H        2.2931660    -1.2799200     1.1504100
  H        3.5653110    -0.2984830     0.4074420
units angstrom
no_reorient  #important for SAPT in psi4, default
symmetry c1  #important for SAPT in psi4, default
}

set PROPERTIES_ORIGIN ["COM"]
properties('MP2/aug-cc-pvtz', properties = ['dipole'])
--------------------------------------------------------------------------

    Molecular point group: c1
  Charge       = 0
  Multiplicity = 1
  Basis Set: AUG-CC-PVTZ
    Blend: AUG-CC-PVTZ
  Basis Set: (AUG-CC-PVTZ AUX)
    Blend: AUG-CC-PVTZ-JKFIT

    Orbital Energies [Eh]
    ---------------------

    Doubly Occupied:

       1A    -20.511658     2A    -15.580767     3A    -11.341321
       4A    -11.275482     5A    -11.260812     6A    -11.241980
       7A    -11.239950     8A    -11.218587     9A     -1.366747
      10A     -1.257531    11A     -1.086579    12A     -1.000691
      13A     -0.969764    14A     -0.870818    15A     -0.830876
      16A     -0.725697    17A     -0.693006    18A     -0.666898
      19A     -0.639361    20A     -0.605408    21A     -0.589609
      22A     -0.572344    23A     -0.563842    24A     -0.553738
      25A     -0.524782    26A     -0.513564    27A     -0.506238
      28A     -0.486995    29A     -0.480317    30A     -0.409625
      31A     -0.369271

  @DF-RHF Final Energy:  -363.07535480723146

   => Energetics <=

    Nuclear Repulsion Energy =            393.9783144760506275
    One-Electron Energy =               -1274.1988200464368219
    Two-Electron Energy =                 517.1451507631546747
    Total Energy =                       -363.0753548072315198
  Basis Set: (AUG-CC-PVTZ AUX)
    Blend: AUG-CC-PVTZ-RI
    Molecular point group: c1

    Geometry (in Angstrom), charge = 0, multiplicity = 1:

       Center              X                  Y                   Z               Mass
    ------------   -----------------  -----------------  -----------------  -----------------
         O            0.009366755982     2.016344980709    -0.098103926647    15.994914619570
         N            0.254709755982    -0.272248019291    -0.342434926647    14.003074004430
         C           -0.471323244018    -1.488831019291    -0.013140926647    12.000000000000
         C           -1.952060644018    -1.006597219291    -0.047140726647    12.000000000000
         C           -1.829398244018     0.445430980709     0.417032073353    12.000000000000
         C           -0.438782244018     0.872025980709    -0.035045926647    12.000000000000
         C            1.681240755982    -0.239008019291    -0.605550926647    12.000000000000
         C            2.517400755982    -0.385939019291     0.662001073353    12.000000000000
         H           -0.186539244018    -1.875860019291     0.976818073353     1.007825032230
         H           -0.265874244018    -2.270699019291    -0.752742926647     1.007825032230
         H           -2.575668244018    -1.625632019291     0.602774073353     1.007825032230
         H           -2.313150244018    -1.063176019291    -1.056123926647     1.007825032230
         H           -1.872179244018     0.538636980709     1.509308073353     1.007825032230
         H           -2.591146244018     1.107646980709    -0.000533926647     1.007825032230
         H            1.914738755982    -1.032033019291    -1.325148926647     1.007825032230
         H            1.881808755982     0.724291980709    -1.080942926647     1.007825032230
         H            2.291975755982     0.433191980709     1.349135073353     1.007825032230
         H            2.312676755982    -1.334457019291     1.166347073353     1.007825032230
         H            3.584821755982    -0.353020019291     0.423379073353     1.007825032230

  Basis Set: AUG-CC-PVTZ
    Blend: AUG-CC-PVTZ
  Basis Set: (AUG-CC-PVTZ AUX)
    Blend: AUG-CC-PVTZ-JKFIT
	 Reference Energy          =    -363.0753548072314629 [Eh]
	 Singles Energy            =      -0.0000000000000000 [Eh]
	 Same-Spin Energy          =      -0.3767175789481207 [Eh]
	 Opposite-Spin Energy      =      -1.2469242207155753 [Eh]
	 Correlation Energy        =      -1.6236417996636960 [Eh]
	 Total Energy              =    -364.6989966068951503 [Eh]

	 ================> DF-SCS-MP2 Energies <==================
	-----------------------------------------------------------
	 SCS Same-Spin Scale       =       0.3333333333333333 [-]
	 SCS Opposite-Spin Scale   =       1.2000000000000000 [-]
	 SCS Same-Spin Energy      =      -0.1255725263160402 [Eh]
	 SCS Opposite-Spin Energy  =      -1.4963090648586903 [Eh]
	 SCS Correlation Energy    =      -1.6218815911747306 [Eh]
	 SCS Total Energy          =    -364.6972363984061758 [Eh]
	-----------------------------------------------------------

  Dipole Moment: [D]
     X:    -0.4657      Y:    -3.9464      Z:     0.2444     Total:     3.9813

*** Psi4 exiting successfully. Buy a developer a beer!
