                               Psi4 1.4a3.dev225

  ==> Input File <==

--------------------------------------------------------------------------
#psi4
#
memory 32 gb

molecule  {
0 1
  O       -0.0101440     2.0708820    -0.1140410
  N        0.2351990    -0.2177110    -0.3583720
  C       -0.4908340    -1.4342940    -0.0290780
  C       -1.9502640    -0.9583450    -0.0482810
  C       -1.8489090     0.4999680     0.4010950
  C       -0.4835499     0.9682374    -0.0397879
  C        1.6617300    -0.1844710    -0.6214880
  C        2.4978900    -0.3314020     0.6460640
  H       -0.2060500    -1.8213230     0.9608810
  H       -0.2853850    -2.2161620    -0.7686800
  H       -2.5951790    -1.5710950     0.5868370
  H       -2.3326610    -1.0086390    -1.0720610
  H       -1.8916900     0.5931740     1.4933710
  H       -2.6106570     1.1621840    -0.0164710
  H        1.8952280    -0.9774960    -1.3410860
  H        1.8622980     0.7788290    -1.0968800
  H        2.2724650     0.4877290     1.3331980
  H        2.2931660    -1.2799200     1.1504100
  H        3.5653110    -0.2984830     0.4074420
units angstrom
no_reorient  #important for SAPT in psi4, default
symmetry c1  #important for SAPT in psi4, default
}

set PROPERTIES_ORIGIN ["COM"]
properties('MP2/aug-cc-pvtz', properties = ['dipole'])
--------------------------------------------------------------------------

    Molecular point group: c1
  Charge       = 0
  Multiplicity = 1
  Basis Set: AUG-CC-PVTZ
    Blend: AUG-CC-PVTZ
  Basis Set: (AUG-CC-PVTZ AUX)
    Blend: AUG-CC-PVTZ-JKFIT

    Orbital Energies [Eh]
    ---------------------

    Doubly Occupied:

       1A    -20.521727     2A    -15.571729     3A    -11.344489
       4A    -11.270527     5A    -11.256529     6A    -11.242296
       7A    -11.241311     8A    -11.215469     9A     -1.386104
      10A     -1.248255    11A     -1.085845    12A     -0.995500
      13A     -0.969311    14A     -0.865239    15A     -0.823911
      16A     -0.724901    17A     -0.689105    18A     -0.668927
      19A     -0.639762    20A     -0.602708    21A     -0.590044
      22A     -0.577727    23A     -0.565774    24A     -0.555341
      25A     -0.522188    26A     -0.510376    27A     -0.508277
      28A     -0.488110    29A     -0.481064    30A     -0.413903
      31A     -0.363727

  @DF-RHF Final Energy:  -363.07379677932505

   => Energetics <=

    Nuclear Repulsion Energy =            393.8711875938585649
    One-Electron Energy =               -1274.0096110274569128
    Two-Electron Energy =                 517.0646266542731837
    Total Energy =                       -363.0737967793251073
  Basis Set: (AUG-CC-PVTZ AUX)
    Blend: AUG-CC-PVTZ-RI
    Molecular point group: c1

    Geometry (in Angstrom), charge = 0, multiplicity = 1:

       Center              X                  Y                   Z               Mass
    ------------   -----------------  -----------------  -----------------  -----------------
         O            0.009785860128     2.012589586845    -0.100862076549    15.994914619570
         N            0.255128860128    -0.276003413155    -0.345193076549    14.003074004430
         C           -0.470904139872    -1.492586413155    -0.015899076549    12.000000000000
         C           -1.930334139872    -1.016637413155    -0.035102076549    12.000000000000
         C           -1.828979139872     0.441675586845     0.414273923451    12.000000000000
         C           -0.463620039872     0.909944986845    -0.026608976549    12.000000000000
         C            1.681659860128    -0.242763413155    -0.608309076549    12.000000000000
         C            2.517819860128    -0.389694413155     0.659242923451    12.000000000000
         H           -0.186120139872    -1.879615413155     0.974059923451     1.007825032230
         H           -0.265455139872    -2.274454413155    -0.755501076549     1.007825032230
         H           -2.575249139872    -1.629387413155     0.600015923451     1.007825032230
         H           -2.312731139872    -1.066931413155    -1.058882076549     1.007825032230
         H           -1.871760139872     0.534881586845     1.506549923451     1.007825032230
         H           -2.590727139872     1.103891586845    -0.003292076549     1.007825032230
         H            1.915157860128    -1.035788413155    -1.327907076549     1.007825032230
         H            1.882227860128     0.720536586845    -1.083701076549     1.007825032230
         H            2.292394860128     0.429436586845     1.346376923451     1.007825032230
         H            2.313095860128    -1.338212413155     1.163588923451     1.007825032230
         H            3.585240860128    -0.356775413155     0.420620923451     1.007825032230

  Basis Set: AUG-CC-PVTZ
    Blend: AUG-CC-PVTZ
  Basis Set: (AUG-CC-PVTZ AUX)
    Blend: AUG-CC-PVTZ-JKFIT
	 Reference Energy          =    -363.0737967793250505 [Eh]
	 Singles Energy            =      -0.0000000000000000 [Eh]
	 Same-Spin Energy          =      -0.3765686001049067 [Eh]
	 Opposite-Spin Energy      =      -1.2464444408714037 [Eh]
	 Correlation Energy        =      -1.6230130409763104 [Eh]
	 Total Energy              =    -364.6968098203013824 [Eh]

	 ================> DF-SCS-MP2 Energies <==================
	-----------------------------------------------------------
	 SCS Same-Spin Scale       =       0.3333333333333333 [-]
	 SCS Opposite-Spin Scale   =       1.2000000000000000 [-]
	 SCS Same-Spin Energy      =      -0.1255228667016355 [Eh]
	 SCS Opposite-Spin Energy  =      -1.4957333290456845 [Eh]
	 SCS Correlation Energy    =      -1.6212561957473199 [Eh]
	 SCS Total Energy          =    -364.6950529750723717 [Eh]
	-----------------------------------------------------------

  Dipole Moment: [D]
     X:    -0.6409      Y:    -3.5434      Z:     0.3071     Total:     3.6140

*** Psi4 exiting successfully. Buy a developer a beer!
