                               Psi4 1.3.2 release

  ==> Input File <==

--------------------------------------------------------------------------
#psi4
#
memory 32 gb

molecule  {
0 1
  O       -0.0101440     2.0708820    -0.1140410
  N        0.2570300    -0.2305645    -0.3567479
  C       -0.4908340    -1.4342940    -0.0290780
  C       -1.9502640    -0.9583450    -0.0482810
  C       -1.8489090     0.4999680     0.4010950
  C       -0.4582930     0.9265630    -0.0509830
  C        1.6617300    -0.1844710    -0.6214880
  C        2.4978900    -0.3314020     0.6460640
  H       -0.2060500    -1.8213230     0.9608810
  H       -0.2853850    -2.2161620    -0.7686800
  H       -2.5951790    -1.5710950     0.5868370
  H       -2.3326610    -1.0086390    -1.0720610
  H       -1.8916900     0.5931740     1.4933710
  H       -2.6106570     1.1621840    -0.0164710
  H        1.8952280    -0.9774960    -1.3410860
  H        1.8622980     0.7788290    -1.0968800
  H        2.2724650     0.4877290     1.3331980
  H        2.2931660    -1.2799200     1.1504100
  H        3.5653110    -0.2984830     0.4074420
units angstrom
no_reorient  #important for SAPT in psi4, default
symmetry c1  #important for SAPT in psi4, default
}

set PROPERTIES_ORIGIN ["COM"]
properties('MP2/aug-cc-pvtz', properties = ['dipole'])
--------------------------------------------------------------------------

    Molecular point group: c1
  Charge       = 0
  Multiplicity = 1
  Basis Set: AUG-CC-PVTZ
    Blend: AUG-CC-PVTZ
  Basis Set: (AUG-CC-PVTZ AUX)
    Blend: AUG-CC-PVTZ-JKFIT

    Orbital Energies [Eh]
    ---------------------

    Doubly Occupied:

       1A    -20.514968     2A    -15.579252     3A    -11.344548
       4A    -11.274383     5A    -11.258418     6A    -11.243253
       7A    -11.241670     8A    -11.216921     9A     -1.367325
      10A     -1.257607    11A     -1.090229    12A     -0.998677
      13A     -0.969969    14A     -0.871307    15A     -0.827806
      16A     -0.727218    17A     -0.692476    18A     -0.667578
      19A     -0.640285    20A     -0.604665    21A     -0.588797
      22A     -0.571804    23A     -0.564715    24A     -0.555139
      25A     -0.522917    26A     -0.513868    27A     -0.509545
      28A     -0.490094    29A     -0.477728    30A     -0.410669
      31A     -0.366648

  @DF-RHF Final Energy:  -363.07445954784828

   => Energetics <=

    Nuclear Repulsion Energy =            394.1299543738413718
    One-Electron Energy =               -1274.4878695194113334
    Two-Electron Energy =                 517.2834555977216269
    Total Energy =                       -363.0744595478482779
  Basis Set: (AUG-CC-PVTZ AUX)
    Blend: AUG-CC-PVTZ-RI
    Molecular point group: c1

    Geometry (in Angstrom), charge = 0, multiplicity = 1:

       Center              X                  Y                   Z               Mass
    ------------   -----------------  -----------------  -----------------  -----------------
         O            0.004402396825     2.018603531584    -0.099875210641    15.994914619570
         N            0.271576396825    -0.282842968416    -0.342582110641    14.003074004430
         C           -0.476287603175    -1.486572468416    -0.014912210641    12.000000000000
         C           -1.935717603175    -1.010623468416    -0.034115210641    12.000000000000
         C           -1.834362603175     0.447689531584     0.415260789359    12.000000000000
         C           -0.443746603175     0.874284531584    -0.036817210641    12.000000000000
         C            1.676276396825    -0.236749468416    -0.607322210641    12.000000000000
         C            2.512436396825    -0.383680468416     0.660229789359    12.000000000000
         H           -0.191503603175    -1.873601468416     0.975046789359     1.007825032230
         H           -0.270838603175    -2.268440468416    -0.754514210641     1.007825032230
         H           -2.580632603175    -1.623373468416     0.601002789359     1.007825032230
         H           -2.318114603175    -1.060917468416    -1.057895210641     1.007825032230
         H           -1.877143603175     0.540895531584     1.507536789359     1.007825032230
         H           -2.596110603175     1.109905531584    -0.002305210641     1.007825032230
         H            1.909774396825    -1.029774468416    -1.326920210641     1.007825032230
         H            1.876844396825     0.726550531584    -1.082714210641     1.007825032230
         H            2.287011396825     0.435450531584     1.347363789359     1.007825032230
         H            2.307712396825    -1.332198468416     1.164575789359     1.007825032230
         H            3.579857396825    -0.350761468416     0.421607789359     1.007825032230

  Basis Set: AUG-CC-PVTZ
    Blend: AUG-CC-PVTZ
  Basis Set: (AUG-CC-PVTZ AUX)
    Blend: AUG-CC-PVTZ-JKFIT
	 Reference Energy          =    -363.0744595478482779 [Eh]
	 Singles Energy            =      -0.0000000000000000 [Eh]
	 Same-Spin Energy          =      -0.3770197694015881 [Eh]
	 Opposite-Spin Energy      =      -1.2473085273240567 [Eh]
	 Correlation Energy        =      -1.6243282967256447 [Eh]
	 Total Energy              =    -364.6987878445739284 [Eh]

	 ================> DF-SCS-MP2 Energies <==================
	-----------------------------------------------------------
	 SCS Same-Spin Scale       =       0.3333333333333333 [-]
	 SCS Opposite-Spin Scale   =       1.2000000000000000 [-]
	 SCS Same-Spin Energy      =      -0.1256732564671960 [Eh]
	 SCS Opposite-Spin Energy  =      -1.4967702327888681 [Eh]
	 SCS Correlation Energy    =      -1.6224434892560642 [Eh]
	 SCS Total Energy          =    -364.6969030371043345 [Eh]
	-----------------------------------------------------------

  Dipole Moment: [D]
     X:    -0.5658      Y:    -3.8463      Z:     0.2618     Total:     3.8965

*** Psi4 exiting successfully. Buy a developer a beer!
