                               Psi4 1.3.2 release

  ==> Input File <==

--------------------------------------------------------------------------
#psi4
#
memory 32 gb

molecule  {
0 1
  O       -0.0101440     2.0708820    -0.1140410
  N        0.2351990    -0.2177110    -0.3583720
  C       -0.4908340    -1.4342940    -0.0290780
  C       -1.9502640    -0.9583450    -0.0482810
  C       -1.8489090     0.4999680     0.4010950
  C       -0.3572652     0.7598654    -0.0957634
  C        1.6617300    -0.1844710    -0.6214880
  C        2.4978900    -0.3314020     0.6460640
  H       -0.2060500    -1.8213230     0.9608810
  H       -0.2853850    -2.2161620    -0.7686800
  H       -2.5951790    -1.5710950     0.5868370
  H       -2.3326610    -1.0086390    -1.0720610
  H       -1.8916900     0.5931740     1.4933710
  H       -2.6106570     1.1621840    -0.0164710
  H        1.8952280    -0.9774960    -1.3410860
  H        1.8622980     0.7788290    -1.0968800
  H        2.2724650     0.4877290     1.3331980
  H        2.2931660    -1.2799200     1.1504100
  H        3.5653110    -0.2984830     0.4074420
units angstrom
no_reorient  #important for SAPT in psi4, default
symmetry c1  #important for SAPT in psi4, default
}

set PROPERTIES_ORIGIN ["COM"]
properties('MP2/aug-cc-pvtz', properties = ['dipole'])
--------------------------------------------------------------------------

    Molecular point group: c1
  Charge       = 0
  Multiplicity = 1
  Basis Set: AUG-CC-PVTZ
    Blend: AUG-CC-PVTZ
  Basis Set: (AUG-CC-PVTZ AUX)
    Blend: AUG-CC-PVTZ-JKFIT

    Orbital Energies [Eh]
    ---------------------

    Doubly Occupied:

       1A    -20.469919     2A    -15.611416     3A    -11.322127
       4A    -11.292326     5A    -11.278656     6A    -11.243959
       7A    -11.238025     8A    -11.231680     9A     -1.384763
      10A     -1.226397    11A     -1.099297    12A     -1.035287
      13A     -0.977892    14A     -0.894383    15A     -0.844208
      16A     -0.736587    17A     -0.719628    18A     -0.682396
      19A     -0.629354    20A     -0.620880    21A     -0.593282
      22A     -0.577965    23A     -0.566463    24A     -0.537189
      25A     -0.521811    26A     -0.513971    27A     -0.504025
      28A     -0.489530    29A     -0.473931    30A     -0.372440
      31A     -0.368207

  @DF-RHF Final Energy:  -363.01063509401496

   => Energetics <=

    Nuclear Repulsion Energy =            396.4400757548028196
    One-Electron Energy =               -1278.7854337224480332
    Two-Electron Energy =                 519.3347228736303123
    Total Energy =                       -363.0106350940149014
  Basis Set: (AUG-CC-PVTZ AUX)
    Blend: AUG-CC-PVTZ-RI
    Molecular point group: c1

    Geometry (in Angstrom), charge = 0, multiplicity = 1:

       Center              X                  Y                   Z               Mass
    ------------   -----------------  -----------------  -----------------  -----------------
         O           -0.003614935233     2.034701137421    -0.094922194515    15.994914619570
         N            0.241728064767    -0.253891862579    -0.339253194515    14.003074004430
         C           -0.484304935233    -1.470474862579    -0.009959194515    12.000000000000
         C           -1.943734935233    -0.994525862579    -0.029162194515    12.000000000000
         C           -1.842379935233     0.463787137421     0.420213805485    12.000000000000
         C           -0.350736135233     0.723684537421    -0.076644594515    12.000000000000
         C            1.668259064767    -0.220651862579    -0.602369194515    12.000000000000
         C            2.504419064767    -0.367582862579     0.665182805485    12.000000000000
         H           -0.199520935233    -1.857503862579     0.979999805485     1.007825032230
         H           -0.278855935233    -2.252342862579    -0.749561194515     1.007825032230
         H           -2.588649935233    -1.607275862579     0.605955805485     1.007825032230
         H           -2.326131935233    -1.044819862579    -1.052942194515     1.007825032230
         H           -1.885160935233     0.556993137421     1.512489805485     1.007825032230
         H           -2.604127935233     1.126003137421     0.002647805485     1.007825032230
         H            1.901757064767    -1.013676862579    -1.321967194515     1.007825032230
         H            1.868827064767     0.742648137421    -1.077761194515     1.007825032230
         H            2.278994064767     0.451548137421     1.352316805485     1.007825032230
         H            2.299695064767    -1.316100862579     1.169528805485     1.007825032230
         H            3.571840064767    -0.334663862579     0.426560805485     1.007825032230

  Basis Set: AUG-CC-PVTZ
    Blend: AUG-CC-PVTZ
  Basis Set: (AUG-CC-PVTZ AUX)
    Blend: AUG-CC-PVTZ-JKFIT
	 Reference Energy          =    -363.0106350940149582 [Eh]
	 Singles Energy            =      -0.0000000000000000 [Eh]
	 Same-Spin Energy          =      -0.3779621077062192 [Eh]
	 Opposite-Spin Energy      =      -1.2495425015735724 [Eh]
	 Correlation Energy        =      -1.6275046092797916 [Eh]
	 Total Energy              =    -364.6381397032947689 [Eh]

	 ================> DF-SCS-MP2 Energies <==================
	-----------------------------------------------------------
	 SCS Same-Spin Scale       =       0.3333333333333333 [-]
	 SCS Opposite-Spin Scale   =       1.2000000000000000 [-]
	 SCS Same-Spin Energy      =      -0.1259873692354064 [Eh]
	 SCS Opposite-Spin Energy  =      -1.4994510018882867 [Eh]
	 SCS Correlation Energy    =      -1.6254383711236930 [Eh]
	 SCS Total Energy          =    -364.6360734651386792 [Eh]
	-----------------------------------------------------------

  Dipole Moment: [D]
     X:     0.1035      Y:    -5.5279      Z:     0.0948     Total:     5.5296

*** Psi4 exiting successfully. Buy a developer a beer!
