                               Psi4 1.3.2 release

  ==> Input File <==

--------------------------------------------------------------------------
#psi4
#
memory 32 gb

molecule  {
0 1
  O       -0.0101440     2.0708820    -0.1140410
  N        0.2280656    -0.3341738    -0.4555930
  C       -0.4908340    -1.4342940    -0.0290780
  C       -1.9502640    -0.9583450    -0.0482810
  C       -1.8489090     0.4999680     0.4010950
  C       -0.4582930     0.9265630    -0.0509830
  C        1.6617300    -0.1844710    -0.6214880
  C        2.4978900    -0.3314020     0.6460640
  H       -0.2060500    -1.8213230     0.9608810
  H       -0.2853850    -2.2161620    -0.7686800
  H       -2.5951790    -1.5710950     0.5868370
  H       -2.3326610    -1.0086390    -1.0720610
  H       -1.8916900     0.5931740     1.4933710
  H       -2.6106570     1.1621840    -0.0164710
  H        1.8952280    -0.9774960    -1.3410860
  H        1.8622980     0.7788290    -1.0968800
  H        2.2724650     0.4877290     1.3331980
  H        2.2931660    -1.2799200     1.1504100
  H        3.5653110    -0.2984830     0.4074420
units angstrom
no_reorient  #important for SAPT in psi4, default
symmetry c1  #important for SAPT in psi4, default
}

set PROPERTIES_ORIGIN ["COM"]
properties('MP2/aug-cc-pvtz', properties = ['dipole'])
--------------------------------------------------------------------------

    Molecular point group: c1
  Charge       = 0
  Multiplicity = 1
  Basis Set: AUG-CC-PVTZ
    Blend: AUG-CC-PVTZ
  Basis Set: (AUG-CC-PVTZ AUX)
    Blend: AUG-CC-PVTZ-JKFIT

    Orbital Energies [Eh]
    ---------------------

    Doubly Occupied:

       1A    -20.535393     2A    -15.575227     3A    -11.357426
       4A    -11.264677     5A    -11.257666     6A    -11.243745
       7A    -11.241288     8A    -11.217566     9A     -1.373461
      10A     -1.259650    11A     -1.085817    12A     -1.002264
      13A     -0.961324    14A     -0.868407    15A     -0.817625
      16A     -0.729891    17A     -0.691973    18A     -0.670296
      19A     -0.637754    20A     -0.603037    21A     -0.590557
      22A     -0.583902    23A     -0.560070    24A     -0.551080
      25A     -0.526222    26A     -0.510467    27A     -0.504818
      28A     -0.491306    29A     -0.480191    30A     -0.414920
      31A     -0.363511

  @DF-RHF Final Energy:  -363.05414906921254

   => Energetics <=

    Nuclear Repulsion Energy =            392.9260502486185942
    One-Electron Energy =               -1272.0173442745513057
    Two-Electron Energy =                 516.0371449567201125
    Total Energy =                       -363.0541490692125990
  Basis Set: (AUG-CC-PVTZ AUX)
    Blend: AUG-CC-PVTZ-RI
    Molecular point group: c1

    Geometry (in Angstrom), charge = 0, multiplicity = 1:

       Center              X                  Y                   Z               Mass
    ------------   -----------------  -----------------  -----------------  -----------------
         O            0.007989026297     2.031433356092    -0.087635331726    15.994914619570
         N            0.246198626297    -0.373622443908    -0.429187331726    14.003074004430
         C           -0.472700973703    -1.473742643908    -0.002672331726    12.000000000000
         C           -1.932130973703    -0.997793643908    -0.021875331726    12.000000000000
         C           -1.830775973703     0.460519356092     0.427500668274    12.000000000000
         C           -0.440159973703     0.887114356092    -0.024577331726    12.000000000000
         C            1.679863026297    -0.223919643908    -0.595082331726    12.000000000000
         C            2.516023026297    -0.370850643908     0.672469668274    12.000000000000
         H           -0.187916973703    -1.860771643908     0.987286668274     1.007825032230
         H           -0.267251973703    -2.255610643908    -0.742274331726     1.007825032230
         H           -2.577045973703    -1.610543643908     0.613242668274     1.007825032230
         H           -2.314527973703    -1.048087643908    -1.045655331726     1.007825032230
         H           -1.873556973703     0.553725356092     1.519776668274     1.007825032230
         H           -2.592523973703     1.122735356092     0.009934668274     1.007825032230
         H            1.913361026297    -1.016944643908    -1.314680331726     1.007825032230
         H            1.880431026297     0.739380356092    -1.070474331726     1.007825032230
         H            2.290598026297     0.448280356092     1.359603668274     1.007825032230
         H            2.311299026297    -1.319368643908     1.176815668274     1.007825032230
         H            3.583444026297    -0.337931643908     0.433847668274     1.007825032230

  Basis Set: AUG-CC-PVTZ
    Blend: AUG-CC-PVTZ
  Basis Set: (AUG-CC-PVTZ AUX)
    Blend: AUG-CC-PVTZ-JKFIT
	 Reference Energy          =    -363.0541490692125421 [Eh]
	 Singles Energy            =      -0.0000000000000000 [Eh]
	 Same-Spin Energy          =      -0.3783063133101985 [Eh]
	 Opposite-Spin Energy      =      -1.2500610417182023 [Eh]
	 Correlation Energy        =      -1.6283673550284008 [Eh]
	 Total Energy              =    -364.6825164242409301 [Eh]

	 ================> DF-SCS-MP2 Energies <==================
	-----------------------------------------------------------
	 SCS Same-Spin Scale       =       0.3333333333333333 [-]
	 SCS Opposite-Spin Scale   =       1.2000000000000000 [-]
	 SCS Same-Spin Energy      =      -0.1261021044367328 [Eh]
	 SCS Opposite-Spin Energy  =      -1.5000732500618428 [Eh]
	 SCS Correlation Energy    =      -1.6261753544985755 [Eh]
	 SCS Total Energy          =    -364.6803244237111130 [Eh]
	-----------------------------------------------------------

  Dipole Moment: [D]
     X:    -0.6082      Y:    -3.1732      Z:     0.4631     Total:     3.2639

*** Psi4 exiting successfully. Buy a developer a beer!
