                               Psi4 1.3.2 release

  ==> Input File <==

--------------------------------------------------------------------------
#psi4
#
memory 32 gb

molecule  {
0 1
  O       -0.0101440     2.0708820    -0.1140410
  N        0.2351990    -0.2177110    -0.3583720
  C       -0.4908340    -1.4342940    -0.0290780
  C       -1.9502640    -0.9583450    -0.0482810
  C       -1.7834951     0.5169750     0.3184717
  C       -0.4582930     0.9265630    -0.0509830
  C        1.6617300    -0.1844710    -0.6214880
  C        2.4978900    -0.3314020     0.6460640
  H       -0.2060500    -1.8213230     0.9608810
  H       -0.2853850    -2.2161620    -0.7686800
  H       -2.5951790    -1.5710950     0.5868370
  H       -2.3326610    -1.0086390    -1.0720610
  H       -1.8916900     0.5931740     1.4933710
  H       -2.6106570     1.1621840    -0.0164710
  H        1.8952280    -0.9774960    -1.3410860
  H        1.8622980     0.7788290    -1.0968800
  H        2.2724650     0.4877290     1.3331980
  H        2.2931660    -1.2799200     1.1504100
  H        3.5653110    -0.2984830     0.4074420
units angstrom
no_reorient  #important for SAPT in psi4, default
symmetry c1  #important for SAPT in psi4, default
}

set PROPERTIES_ORIGIN ["COM"]
properties('MP2/aug-cc-pvtz', properties = ['dipole'])
--------------------------------------------------------------------------

    Molecular point group: c1
  Charge       = 0
  Multiplicity = 1
  Basis Set: AUG-CC-PVTZ
    Blend: AUG-CC-PVTZ
  Basis Set: (AUG-CC-PVTZ AUX)
    Blend: AUG-CC-PVTZ-JKFIT

    Orbital Energies [Eh]
    ---------------------

    Doubly Occupied:

       1A    -20.509842     2A    -15.580453     3A    -11.337749
       4A    -11.274881     5A    -11.260303     6A    -11.244114
       7A    -11.243493     8A    -11.218227     9A     -1.368893
      10A     -1.260856    11A     -1.092537    12A     -0.999206
      13A     -0.980704    14A     -0.871599    15A     -0.829371
      16A     -0.730483    17A     -0.692907    18A     -0.669839
      19A     -0.641928    20A     -0.603802    21A     -0.582879
      22A     -0.575874    23A     -0.565969    24A     -0.559133
      25A     -0.523811    26A     -0.513094    27A     -0.505897
      28A     -0.488756    29A     -0.460275    30A     -0.416223
      31A     -0.369843

  @DF-RHF Final Energy:  -363.06442705415941

   => Energetics <=

    Nuclear Repulsion Energy =            395.8230801421583465
    One-Electron Energy =               -1277.8291316025949982
    Two-Electron Energy =                 518.9416244062772421
    Total Energy =                       -363.0644270541594096
  Basis Set: (AUG-CC-PVTZ AUX)
    Blend: AUG-CC-PVTZ-RI
    Molecular point group: c1

    Geometry (in Angstrom), charge = 0, multiplicity = 1:

       Center              X                  Y                   Z               Mass
    ------------   -----------------  -----------------  -----------------  -----------------
         O            0.000164260393     2.015207186439    -0.090906466887    15.994914619570
         N            0.245507260393    -0.273385813561    -0.335237466887    14.003074004430
         C           -0.480525739607    -1.489968813561    -0.005943466887    12.000000000000
         C           -1.939955739607    -1.014019813561    -0.025146466887    12.000000000000
         C           -1.773186839607     0.461300186439     0.341606233113    12.000000000000
         C           -0.447984739607     0.870888186439    -0.027848466887    12.000000000000
         C            1.672038260393    -0.240145813561    -0.598353466887    12.000000000000
         C            2.508198260393    -0.387076813561     0.669198533113    12.000000000000
         H           -0.195741739607    -1.876997813561     0.984015533113     1.007825032230
         H           -0.275076739607    -2.271836813561    -0.745545466887     1.007825032230
         H           -2.584870739607    -1.626769813561     0.609971533113     1.007825032230
         H           -2.322352739607    -1.064313813561    -1.048926466887     1.007825032230
         H           -1.881381739607     0.537499186439     1.516505533113     1.007825032230
         H           -2.600348739607     1.106509186439     0.006663533113     1.007825032230
         H            1.905536260393    -1.033170813561    -1.317951466887     1.007825032230
         H            1.872606260393     0.723154186439    -1.073745466887     1.007825032230
         H            2.282773260393     0.432054186439     1.356332533113     1.007825032230
         H            2.303474260393    -1.335594813561     1.173544533113     1.007825032230
         H            3.575619260393    -0.354157813561     0.430576533113     1.007825032230

  Basis Set: AUG-CC-PVTZ
    Blend: AUG-CC-PVTZ
  Basis Set: (AUG-CC-PVTZ AUX)
    Blend: AUG-CC-PVTZ-JKFIT
	 Reference Energy          =    -363.0644270541594096 [Eh]
	 Singles Energy            =      -0.0000000000000000 [Eh]
	 Same-Spin Energy          =      -0.3775963097772167 [Eh]
	 Opposite-Spin Energy      =      -1.2478929716605858 [Eh]
	 Correlation Energy        =      -1.6254892814378024 [Eh]
	 Total Energy              =    -364.6899163355972178 [Eh]

	 ================> DF-SCS-MP2 Energies <==================
	-----------------------------------------------------------
	 SCS Same-Spin Scale       =       0.3333333333333333 [-]
	 SCS Opposite-Spin Scale   =       1.2000000000000000 [-]
	 SCS Same-Spin Energy      =      -0.1258654365924056 [Eh]
	 SCS Opposite-Spin Energy  =      -1.4974715659927029 [Eh]
	 SCS Correlation Energy    =      -1.6233370025851084 [Eh]
	 SCS Total Energy          =    -364.6877640567445269 [Eh]
	-----------------------------------------------------------

  Dipole Moment: [D]
     X:    -0.5943      Y:    -4.0099      Z:     0.2490     Total:     4.0613

*** Psi4 exiting successfully. Buy a developer a beer!
