                               Psi4 1.3.2 release

  ==> Input File <==

--------------------------------------------------------------------------
#psi4
#
memory 32 gb

molecule  {
0 1
  O       -0.0101440     2.0708820    -0.1140410
  N        0.2351990    -0.2177110    -0.3583720
  C       -0.4908340    -1.4342940    -0.0290780
  C       -1.9502640    -0.9583450    -0.0482810
  C       -1.8489090     0.4999680     0.4010950
  C       -0.5042422     1.0056266    -0.1052163
  C        1.6617300    -0.1844710    -0.6214880
  C        2.4978900    -0.3314020     0.6460640
  H       -0.2060500    -1.8213230     0.9608810
  H       -0.2853850    -2.2161620    -0.7686800
  H       -2.5951790    -1.5710950     0.5868370
  H       -2.3326610    -1.0086390    -1.0720610
  H       -1.8916900     0.5931740     1.4933710
  H       -2.6106570     1.1621840    -0.0164710
  H        1.8952280    -0.9774960    -1.3410860
  H        1.8622980     0.7788290    -1.0968800
  H        2.2724650     0.4877290     1.3331980
  H        2.2931660    -1.2799200     1.1504100
  H        3.5653110    -0.2984830     0.4074420
units angstrom
no_reorient  #important for SAPT in psi4, default
symmetry c1  #important for SAPT in psi4, default
}

set PROPERTIES_ORIGIN ["COM"]
properties('MP2/aug-cc-pvtz', properties = ['dipole'])
--------------------------------------------------------------------------

    Molecular point group: c1
  Charge       = 0
  Multiplicity = 1
  Basis Set: AUG-CC-PVTZ
    Blend: AUG-CC-PVTZ
  Basis Set: (AUG-CC-PVTZ AUX)
    Blend: AUG-CC-PVTZ-JKFIT

    Orbital Energies [Eh]
    ---------------------

    Doubly Occupied:

       1A    -20.529793     2A    -15.565240     3A    -11.345970
       4A    -11.267924     5A    -11.253739     6A    -11.242038
       7A    -11.240894     8A    -11.213377     9A     -1.408009
      10A     -1.241029    11A     -1.082287    12A     -0.992084
      13A     -0.964875    14A     -0.861268    15A     -0.819129
      16A     -0.724159    17A     -0.687197    18A     -0.671129
      19A     -0.640367    20A     -0.604987    21A     -0.589178
      22A     -0.581732    23A     -0.568467    24A     -0.553977
      25A     -0.522994    26A     -0.508389    27A     -0.506327
      28A     -0.489105    29A     -0.482126    30A     -0.413079
      31A     -0.359077

  @DF-RHF Final Energy:  -363.06709056059412

   => Energetics <=

    Nuclear Repulsion Energy =            393.5380481420812089
    One-Electron Energy =               -1273.3503880253301759
    Two-Electron Energy =                 516.7452493226548995
    Total Energy =                       -363.0670905605941243
  Basis Set: (AUG-CC-PVTZ AUX)
    Blend: AUG-CC-PVTZ-RI
    Molecular point group: c1

    Geometry (in Angstrom), charge = 0, multiplicity = 1:

       Center              X                  Y                   Z               Mass
    ------------   -----------------  -----------------  -----------------  -----------------
         O            0.011981639014     2.008622003931    -0.093919092964    15.994914619570
         N            0.257324639014    -0.279970996069    -0.338250092964    14.003074004430
         C           -0.468708360986    -1.496553996069    -0.008956092964    12.000000000000
         C           -1.928138360986    -1.020604996069    -0.028159092964    12.000000000000
         C           -1.826783360986     0.437708003931     0.421216907036    12.000000000000
         C           -0.482116560986     0.943366603931    -0.085094392964    12.000000000000
         C            1.683855639014    -0.246730996069    -0.601366092964    12.000000000000
         C            2.520015639014    -0.393661996069     0.666185907036    12.000000000000
         H           -0.183924360986    -1.883582996069     0.981002907036     1.007825032230
         H           -0.263259360986    -2.278421996069    -0.748558092964     1.007825032230
         H           -2.573053360986    -1.633354996069     0.606958907036     1.007825032230
         H           -2.310535360986    -1.070898996069    -1.051939092964     1.007825032230
         H           -1.869564360986     0.530914003931     1.513492907036     1.007825032230
         H           -2.588531360986     1.099924003931     0.003650907036     1.007825032230
         H            1.917353639014    -1.039755996069    -1.320964092964     1.007825032230
         H            1.884423639014     0.716569003931    -1.076758092964     1.007825032230
         H            2.294590639014     0.425469003931     1.353319907036     1.007825032230
         H            2.315291639014    -1.342179996069     1.170531907036     1.007825032230
         H            3.587436639014    -0.360742996069     0.427563907036     1.007825032230

  Basis Set: AUG-CC-PVTZ
    Blend: AUG-CC-PVTZ
  Basis Set: (AUG-CC-PVTZ AUX)
    Blend: AUG-CC-PVTZ-JKFIT
	 Reference Energy          =    -363.0670905605941243 [Eh]
	 Singles Energy            =      -0.0000000000000000 [Eh]
	 Same-Spin Energy          =      -0.3763208168695787 [Eh]
	 Opposite-Spin Energy      =      -1.2460452132540429 [Eh]
	 Correlation Energy        =      -1.6223660301236218 [Eh]
	 Total Energy              =    -364.6894565907177252 [Eh]

	 ================> DF-SCS-MP2 Energies <==================
	-----------------------------------------------------------
	 SCS Same-Spin Scale       =       0.3333333333333333 [-]
	 SCS Opposite-Spin Scale   =       1.2000000000000000 [-]
	 SCS Same-Spin Energy      =      -0.1254402722898596 [Eh]
	 SCS Opposite-Spin Energy  =      -1.4952542559048514 [Eh]
	 SCS Correlation Energy    =      -1.6206945281947109 [Eh]
	 SCS Total Energy          =    -364.6877850887888144 [Eh]
	-----------------------------------------------------------

  Dipole Moment: [D]
     X:    -0.6989      Y:    -3.2213      Z:     0.2798     Total:     3.3081

*** Psi4 exiting successfully. Buy a developer a beer!
