                               Psi4 1.3.2 release

  ==> Input File <==

--------------------------------------------------------------------------
#psi4
#
memory 32 gb

molecule  {
0 1
  O       -0.0101440     2.0708820    -0.1140410
  N        0.2351990    -0.2177110    -0.3583720
  C       -0.4908340    -1.4342940    -0.0290780
  C       -1.9442250    -0.9449226    -0.0998058
  C       -1.8489090     0.4999680     0.4010950
  C       -0.4582930     0.9265630    -0.0509830
  C        1.6617300    -0.1844710    -0.6214880
  C        2.4978900    -0.3314020     0.6460640
  H       -0.2060500    -1.8213230     0.9608810
  H       -0.2853850    -2.2161620    -0.7686800
  H       -2.5951790    -1.5710950     0.5868370
  H       -2.3326610    -1.0086390    -1.0720610
  H       -1.8916900     0.5931740     1.4933710
  H       -2.6106570     1.1621840    -0.0164710
  H        1.8952280    -0.9774960    -1.3410860
  H        1.8622980     0.7788290    -1.0968800
  H        2.2724650     0.4877290     1.3331980
  H        2.2931660    -1.2799200     1.1504100
  H        3.5653110    -0.2984830     0.4074420
units angstrom
no_reorient  #important for SAPT in psi4, default
symmetry c1  #important for SAPT in psi4, default
}

set PROPERTIES_ORIGIN ["COM"]
properties('MP2/aug-cc-pvtz', properties = ['dipole'])
--------------------------------------------------------------------------

    Molecular point group: c1
  Charge       = 0
  Multiplicity = 1
  Basis Set: AUG-CC-PVTZ
    Blend: AUG-CC-PVTZ
  Basis Set: (AUG-CC-PVTZ AUX)
    Blend: AUG-CC-PVTZ-JKFIT

    Orbital Energies [Eh]
    ---------------------

    Doubly Occupied:

       1A    -20.511278     2A    -15.580504     3A    -11.340718
       4A    -11.274930     5A    -11.260593     6A    -11.242314
       7A    -11.240011     8A    -11.218678     9A     -1.366654
      10A     -1.258713    11A     -1.087757    12A     -1.000081
      13A     -0.972067    14A     -0.870142    15A     -0.830935
      16A     -0.725796    17A     -0.693246    18A     -0.669051
      19A     -0.638250    20A     -0.604484    21A     -0.590912
      22A     -0.573284    23A     -0.565825    24A     -0.548687
      25A     -0.522017    26A     -0.513270    27A     -0.508797
      28A     -0.489163    29A     -0.481128    30A     -0.407926
      31A     -0.369526

  @DF-RHF Final Energy:  -363.07244972352214

   => Energetics <=

    Nuclear Repulsion Energy =            394.4334313113381540
    One-Electron Energy =               -1275.0982880113799638
    Two-Electron Energy =                 517.5924069765196691
    Total Energy =                       -363.0724497235221406
  Basis Set: (AUG-CC-PVTZ AUX)
    Blend: AUG-CC-PVTZ-RI
    Molecular point group: c1

    Geometry (in Angstrom), charge = 0, multiplicity = 1:

       Center              X                  Y                   Z               Mass
    ------------   -----------------  -----------------  -----------------  -----------------
         O            0.006464872300     2.015587568948    -0.094206507466    15.994914619570
         N            0.251807872300    -0.273005431052    -0.338537507466    14.003074004430
         C           -0.474225127700    -1.489588431052    -0.009243507466    12.000000000000
         C           -1.927616127700    -1.000217031052    -0.079971307466    12.000000000000
         C           -1.832300127700     0.444673568948     0.420929492534    12.000000000000
         C           -0.441684127700     0.871268568948    -0.031148507466    12.000000000000
         C            1.678338872300    -0.239765431052    -0.601653507466    12.000000000000
         C            2.514498872300    -0.386696431052     0.665898492534    12.000000000000
         H           -0.189441127700    -1.876617431052     0.980715492534     1.007825032230
         H           -0.268776127700    -2.271456431052    -0.748845507466     1.007825032230
         H           -2.578570127700    -1.626389431052     0.606671492534     1.007825032230
         H           -2.316052127700    -1.063933431052    -1.052226507466     1.007825032230
         H           -1.875081127700     0.537879568948     1.513205492534     1.007825032230
         H           -2.594048127700     1.106889568948     0.003363492534     1.007825032230
         H            1.911836872300    -1.032790431052    -1.321251507466     1.007825032230
         H            1.878906872300     0.723534568948    -1.077045507466     1.007825032230
         H            2.289073872300     0.432434568948     1.353032492534     1.007825032230
         H            2.309774872300    -1.335214431052     1.170244492534     1.007825032230
         H            3.581919872300    -0.353777431052     0.427276492534     1.007825032230

  Basis Set: AUG-CC-PVTZ
    Blend: AUG-CC-PVTZ
  Basis Set: (AUG-CC-PVTZ AUX)
    Blend: AUG-CC-PVTZ-JKFIT
	 Reference Energy          =    -363.0724497235221406 [Eh]
	 Singles Energy            =      -0.0000000000000000 [Eh]
	 Same-Spin Energy          =      -0.3768632916783076 [Eh]
	 Opposite-Spin Energy      =      -1.2470957022653466 [Eh]
	 Correlation Energy        =      -1.6239589939436541 [Eh]
	 Total Energy              =    -364.6964087174657720 [Eh]

	 ================> DF-SCS-MP2 Energies <==================
	-----------------------------------------------------------
	 SCS Same-Spin Scale       =       0.3333333333333333 [-]
	 SCS Opposite-Spin Scale   =       1.2000000000000000 [-]
	 SCS Same-Spin Energy      =      -0.1256210972261025 [Eh]
	 SCS Opposite-Spin Energy  =      -1.4965148427184158 [Eh]
	 SCS Correlation Energy    =      -1.6221359399445183 [Eh]
	 SCS Total Energy          =    -364.6945856634666825 [Eh]
	-----------------------------------------------------------

  Dipole Moment: [D]
     X:    -0.4531      Y:    -3.9323      Z:     0.2221     Total:     3.9645

*** Psi4 exiting successfully. Buy a developer a beer!
