                               Psi4 1.3.2 release

  ==> Input File <==

--------------------------------------------------------------------------
#psi4
#
memory 32 gb

molecule  {
0 1
  O       -0.0101440     2.0708820    -0.1140410
  N        0.2351990    -0.2177110    -0.3583720
  C       -0.4908340    -1.4342940    -0.0290780
  C       -1.9008794    -0.9546593    -0.0682097
  C       -1.8489090     0.4999680     0.4010950
  C       -0.4582930     0.9265630    -0.0509830
  C        1.6617300    -0.1844710    -0.6214880
  C        2.4978900    -0.3314020     0.6460640
  H       -0.2060500    -1.8213230     0.9608810
  H       -0.2853850    -2.2161620    -0.7686800
  H       -2.5951790    -1.5710950     0.5868370
  H       -2.3326610    -1.0086390    -1.0720610
  H       -1.8916900     0.5931740     1.4933710
  H       -2.6106570     1.1621840    -0.0164710
  H        1.8952280    -0.9774960    -1.3410860
  H        1.8622980     0.7788290    -1.0968800
  H        2.2724650     0.4877290     1.3331980
  H        2.2931660    -1.2799200     1.1504100
  H        3.5653110    -0.2984830     0.4074420
units angstrom
no_reorient  #important for SAPT in psi4, default
symmetry c1  #important for SAPT in psi4, default
}

set PROPERTIES_ORIGIN ["COM"]
properties('MP2/aug-cc-pvtz', properties = ['dipole'])
--------------------------------------------------------------------------

    Molecular point group: c1
  Charge       = 0
  Multiplicity = 1
  Basis Set: AUG-CC-PVTZ
    Blend: AUG-CC-PVTZ
  Basis Set: (AUG-CC-PVTZ AUX)
    Blend: AUG-CC-PVTZ-JKFIT

    Orbital Energies [Eh]
    ---------------------

    Doubly Occupied:

       1A    -20.511200     2A    -15.580915     3A    -11.340817
       4A    -11.273428     5A    -11.260785     6A    -11.243491
       7A    -11.239968     8A    -11.218808     9A     -1.366965
      10A     -1.260987    11A     -1.090883    12A     -0.999785
      13A     -0.977031    14A     -0.868902    15A     -0.827289
      16A     -0.727163    17A     -0.694209    18A     -0.670842
      19A     -0.638369    20A     -0.603137    21A     -0.590703
      22A     -0.572768    23A     -0.564516    24A     -0.549975
      25A     -0.521586    26A     -0.514952    27A     -0.512228
      28A     -0.492560    29A     -0.475388    30A     -0.407464
      31A     -0.370005

  @DF-RHF Final Energy:  -363.07249805415114

   => Energetics <=

    Nuclear Repulsion Energy =            395.1154519643153549
    One-Electron Energy =               -1276.4416653073408270
    Two-Electron Energy =                 518.2537152888743321
    Total Energy =                       -363.0724980541511968
  Basis Set: (AUG-CC-PVTZ AUX)
    Blend: AUG-CC-PVTZ-RI
    Molecular point group: c1

    Geometry (in Angstrom), charge = 0, multiplicity = 1:

       Center              X                  Y                   Z               Mass
    ------------   -----------------  -----------------  -----------------  -----------------
         O            0.001865221547     2.016620786149    -0.097559351242    15.994914619570
         N            0.247208221547    -0.271972213851    -0.341890351242    14.003074004430
         C           -0.478824778453    -1.488555213851    -0.012596351242    12.000000000000
         C           -1.888870178453    -1.008920513851    -0.051728051242    12.000000000000
         C           -1.836899778453     0.445706786149     0.417576648758    12.000000000000
         C           -0.446283778453     0.872301786149    -0.034501351242    12.000000000000
         C            1.673739221547    -0.238732213851    -0.605006351242    12.000000000000
         C            2.509899221547    -0.385663213851     0.662545648758    12.000000000000
         H           -0.194040778453    -1.875584213851     0.977362648758     1.007825032230
         H           -0.273375778453    -2.270423213851    -0.752198351242     1.007825032230
         H           -2.583169778453    -1.625356213851     0.603318648758     1.007825032230
         H           -2.320651778453    -1.062900213851    -1.055579351242     1.007825032230
         H           -1.879680778453     0.538912786149     1.509852648758     1.007825032230
         H           -2.598647778453     1.107922786149     0.000010648758     1.007825032230
         H            1.907237221547    -1.031757213851    -1.324604351242     1.007825032230
         H            1.874307221547     0.724567786149    -1.080398351242     1.007825032230
         H            2.284474221547     0.433467786149     1.349679648758     1.007825032230
         H            2.305175221547    -1.334181213851     1.166891648758     1.007825032230
         H            3.577320221547    -0.352744213851     0.423923648758     1.007825032230

  Basis Set: AUG-CC-PVTZ
    Blend: AUG-CC-PVTZ
  Basis Set: (AUG-CC-PVTZ AUX)
    Blend: AUG-CC-PVTZ-JKFIT
	 Reference Energy          =    -363.0724980541511400 [Eh]
	 Singles Energy            =      -0.0000000000000000 [Eh]
	 Same-Spin Energy          =      -0.3771131219410636 [Eh]
	 Opposite-Spin Energy      =      -1.2472343076194545 [Eh]
	 Correlation Energy        =      -1.6243474295605180 [Eh]
	 Total Energy              =    -364.6968454837116838 [Eh]

	 ================> DF-SCS-MP2 Energies <==================
	-----------------------------------------------------------
	 SCS Same-Spin Scale       =       0.3333333333333333 [-]
	 SCS Opposite-Spin Scale   =       1.2000000000000000 [-]
	 SCS Same-Spin Energy      =      -0.1257043739803545 [Eh]
	 SCS Opposite-Spin Energy  =      -1.4966811691433455 [Eh]
	 SCS Correlation Energy    =      -1.6223855431237000 [Eh]
	 SCS Total Energy          =    -364.6948835972748384 [Eh]
	-----------------------------------------------------------

  Dipole Moment: [D]
     X:    -0.4469      Y:    -3.9311      Z:     0.2386     Total:     3.9637

*** Psi4 exiting successfully. Buy a developer a beer!
