                               Psi4 1.3.2 release

  ==> Input File <==

--------------------------------------------------------------------------
#psi4
#
memory 32 gb

molecule  {
0 1
  O       -0.0101440     2.0708820    -0.1140410
  N        0.2351990    -0.2177110    -0.3583720
  C       -0.4908340    -1.4342940    -0.0290780
  C       -1.9502640    -0.9583450    -0.0482810
  C       -1.8489090     0.4999680     0.4010950
  C       -0.4691533     0.9465390    -0.0647583
  C        1.6617300    -0.1844710    -0.6214880
  C        2.4978900    -0.3314020     0.6460640
  H       -0.2060500    -1.8213230     0.9608810
  H       -0.2853850    -2.2161620    -0.7686800
  H       -2.5951790    -1.5710950     0.5868370
  H       -2.3326610    -1.0086390    -1.0720610
  H       -1.8916900     0.5931740     1.4933710
  H       -2.6106570     1.1621840    -0.0164710
  H        1.8952280    -0.9774960    -1.3410860
  H        1.8622980     0.7788290    -1.0968800
  H        2.2724650     0.4877290     1.3331980
  H        2.2931660    -1.2799200     1.1504100
  H        3.5653110    -0.2984830     0.4074420
units angstrom
no_reorient  #important for SAPT in psi4, default
symmetry c1  #important for SAPT in psi4, default
}

set PROPERTIES_ORIGIN ["COM"]
properties('MP2/aug-cc-pvtz', properties = ['dipole'])
--------------------------------------------------------------------------

    Molecular point group: c1
  Charge       = 0
  Multiplicity = 1
  Basis Set: AUG-CC-PVTZ
    Blend: AUG-CC-PVTZ
  Basis Set: (AUG-CC-PVTZ AUX)
    Blend: AUG-CC-PVTZ-JKFIT

    Orbital Energies [Eh]
    ---------------------

    Doubly Occupied:

       1A    -20.516152     2A    -15.577172     3A    -11.342428
       4A    -11.273175     5A    -11.259129     6A    -11.242060
       7A    -11.240206     8A    -11.217332     9A     -1.376255
      10A     -1.255048    11A     -1.086377    12A     -0.998100
      13A     -0.970424    14A     -0.867878    15A     -0.826993
      16A     -0.725522    17A     -0.691469    18A     -0.668054
      19A     -0.640008    20A     -0.604016    21A     -0.588915
      22A     -0.574526    23A     -0.563803    24A     -0.556062
      25A     -0.522616    26A     -0.512008    27A     -0.508762
      28A     -0.489102    29A     -0.479799    30A     -0.411180
      31A     -0.367426

  @DF-RHF Final Energy:  -363.07585205300211

   => Energetics <=

    Nuclear Repulsion Energy =            394.1052456390618772
    One-Electron Energy =               -1274.4582036425681508
    Two-Electron Energy =                 517.2771059505041649
    Total Energy =                       -363.0758520530021087
  Basis Set: (AUG-CC-PVTZ AUX)
    Blend: AUG-CC-PVTZ-RI
    Molecular point group: c1

    Geometry (in Angstrom), charge = 0, multiplicity = 1:

       Center              X                  Y                   Z               Mass
    ------------   -----------------  -----------------  -----------------  -----------------
         O            0.008258154155     2.014892128784    -0.098212323883    15.994914619570
         N            0.253601154155    -0.273700871216    -0.342543323883    14.003074004430
         C           -0.472431845845    -1.490283871216    -0.013249323883    12.000000000000
         C           -1.931861845845    -1.014334871216    -0.032452323883    12.000000000000
         C           -1.830506845845     0.443978128784     0.416923676117    12.000000000000
         C           -0.450751145845     0.890549128784    -0.048929623883    12.000000000000
         C            1.680132154155    -0.240460871216    -0.605659323883    12.000000000000
         C            2.516292154155    -0.387391871216     0.661892676117    12.000000000000
         H           -0.187647845845    -1.877312871216     0.976709676117     1.007825032230
         H           -0.266982845845    -2.272151871216    -0.752851323883     1.007825032230
         H           -2.576776845845    -1.627084871216     0.602665676117     1.007825032230
         H           -2.314258845845    -1.064628871216    -1.056232323883     1.007825032230
         H           -1.873287845845     0.537184128784     1.509199676117     1.007825032230
         H           -2.592254845845     1.106194128784    -0.000642323883     1.007825032230
         H            1.913630154155    -1.033485871216    -1.325257323883     1.007825032230
         H            1.880700154155     0.722839128784    -1.081051323883     1.007825032230
         H            2.290867154155     0.431739128784     1.349026676117     1.007825032230
         H            2.311568154155    -1.335909871216     1.166238676117     1.007825032230
         H            3.583713154155    -0.354472871216     0.423270676117     1.007825032230

  Basis Set: AUG-CC-PVTZ
    Blend: AUG-CC-PVTZ
  Basis Set: (AUG-CC-PVTZ AUX)
    Blend: AUG-CC-PVTZ-JKFIT
	 Reference Energy          =    -363.0758520530021087 [Eh]
	 Singles Energy            =      -0.0000000000000000 [Eh]
	 Same-Spin Energy          =      -0.3766056878126117 [Eh]
	 Opposite-Spin Energy      =      -1.2465637282003152 [Eh]
	 Correlation Energy        =      -1.6231694160129271 [Eh]
	 Total Energy              =    -364.6990214690150083 [Eh]

	 ================> DF-SCS-MP2 Energies <==================
	-----------------------------------------------------------
	 SCS Same-Spin Scale       =       0.3333333333333333 [-]
	 SCS Opposite-Spin Scale   =       1.2000000000000000 [-]
	 SCS Same-Spin Energy      =      -0.1255352292708706 [Eh]
	 SCS Opposite-Spin Energy  =      -1.4958764738403783 [Eh]
	 SCS Correlation Energy    =      -1.6214117031112489 [Eh]
	 SCS Total Energy          =    -364.6972637561133297 [Eh]
	-----------------------------------------------------------

  Dipole Moment: [D]
     X:    -0.5160      Y:    -3.7682      Z:     0.2604     Total:     3.8123

*** Psi4 exiting successfully. Buy a developer a beer!
