                               Psi4 1.3.2 release

  ==> Input File <==

--------------------------------------------------------------------------
#psi4
#
memory 32 gb

molecule  {
0 1
  O       -0.0101440     2.0708820    -0.1140410
  N        0.1457311    -0.1700401    -0.3638610
  C       -0.4908340    -1.4342940    -0.0290780
  C       -1.9502640    -0.9583450    -0.0482810
  C       -1.8489090     0.4999680     0.4010950
  C       -0.4582930     0.9265630    -0.0509830
  C        1.6617300    -0.1844710    -0.6214880
  C        2.4978900    -0.3314020     0.6460640
  H       -0.2060500    -1.8213230     0.9608810
  H       -0.2853850    -2.2161620    -0.7686800
  H       -2.5951790    -1.5710950     0.5868370
  H       -2.3326610    -1.0086390    -1.0720610
  H       -1.8916900     0.5931740     1.4933710
  H       -2.6106570     1.1621840    -0.0164710
  H        1.8952280    -0.9774960    -1.3410860
  H        1.8622980     0.7788290    -1.0968800
  H        2.2724650     0.4877290     1.3331980
  H        2.2931660    -1.2799200     1.1504100
  H        3.5653110    -0.2984830     0.4074420
units angstrom
no_reorient  #important for SAPT in psi4, default
symmetry c1  #important for SAPT in psi4, default
}

set PROPERTIES_ORIGIN ["COM"]
properties('MP2/aug-cc-pvtz', properties = ['dipole'])
--------------------------------------------------------------------------

    Molecular point group: c1
  Charge       = 0
  Multiplicity = 1
  Basis Set: AUG-CC-PVTZ
    Blend: AUG-CC-PVTZ
  Basis Set: (AUG-CC-PVTZ AUX)
    Blend: AUG-CC-PVTZ-JKFIT

    Orbital Energies [Eh]
    ---------------------

    Doubly Occupied:

       1A    -20.498579     2A    -15.586638     3A    -11.327793
       4A    -11.277990     5A    -11.270598     6A    -11.239648
       7A    -11.233138     8A    -11.225152     9A     -1.367806
      10A     -1.264550    11A     -1.078929    12A     -1.010837
      13A     -0.979238    14A     -0.865972    15A     -0.834031
      16A     -0.724296    17A     -0.697193    18A     -0.670577
      19A     -0.635341    20A     -0.608395    21A     -0.590476
      22A     -0.574847    23A     -0.558415    24A     -0.551307
      25A     -0.524055    26A     -0.510787    27A     -0.506805
      28A     -0.486206    29A     -0.476777    30A     -0.402435
      31A     -0.378679

  @DF-RHF Final Energy:  -363.06521501399607

   => Energetics <=

    Nuclear Repulsion Energy =            395.0111777749228850
    One-Electron Energy =               -1276.2378097450621226
    Two-Electron Energy =                 518.1614169561431709
    Total Energy =                       -363.0652150139960668
  Basis Set: (AUG-CC-PVTZ AUX)
    Blend: AUG-CC-PVTZ-RI
    Molecular point group: c1

    Geometry (in Angstrom), charge = 0, multiplicity = 1:

       Center              X                  Y                   Z               Mass
    ------------   -----------------  -----------------  -----------------  -----------------
         O            0.018184415957     2.011108862376    -0.098994403371    15.994914619570
         N            0.174059515957    -0.229813237624    -0.348814403371    14.003074004430
         C           -0.462505584043    -1.494067137624    -0.014031403371    12.000000000000
         C           -1.921935584043    -1.018118137624    -0.033234403371    12.000000000000
         C           -1.820580584043     0.440194862376     0.416141596629    12.000000000000
         C           -0.429964584043     0.866789862376    -0.035936403371    12.000000000000
         C            1.690058415957    -0.244244137624    -0.606441403371    12.000000000000
         C            2.526218415957    -0.391175137624     0.661110596629    12.000000000000
         H           -0.177721584043    -1.881096137624     0.975927596629     1.007825032230
         H           -0.257056584043    -2.275935137624    -0.753633403371     1.007825032230
         H           -2.566850584043    -1.630868137624     0.601883596629     1.007825032230
         H           -2.304332584043    -1.068412137624    -1.057014403371     1.007825032230
         H           -1.863361584043     0.533400862376     1.508417596629     1.007825032230
         H           -2.582328584043     1.102410862376    -0.001424403371     1.007825032230
         H            1.923556415957    -1.037269137624    -1.326039403371     1.007825032230
         H            1.890626415957     0.719055862376    -1.081833403371     1.007825032230
         H            2.300793415957     0.427955862376     1.348244596629     1.007825032230
         H            2.321494415957    -1.339693137624     1.165456596629     1.007825032230
         H            3.593639415957    -0.358256137624     0.422488596629     1.007825032230

  Basis Set: AUG-CC-PVTZ
    Blend: AUG-CC-PVTZ
  Basis Set: (AUG-CC-PVTZ AUX)
    Blend: AUG-CC-PVTZ-JKFIT
	 Reference Energy          =    -363.0652150139960668 [Eh]
	 Singles Energy            =      -0.0000000000000000 [Eh]
	 Same-Spin Energy          =      -0.3764456367410453 [Eh]
	 Opposite-Spin Energy      =      -1.2465188199891652 [Eh]
	 Correlation Energy        =      -1.6229644567302106 [Eh]
	 Total Energy              =    -364.6881794707262543 [Eh]

	 ================> DF-SCS-MP2 Energies <==================
	-----------------------------------------------------------
	 SCS Same-Spin Scale       =       0.3333333333333333 [-]
	 SCS Opposite-Spin Scale   =       1.2000000000000000 [-]
	 SCS Same-Spin Energy      =      -0.1254818789136817 [Eh]
	 SCS Opposite-Spin Energy  =      -1.4958225839869983 [Eh]
	 SCS Correlation Energy    =      -1.6213044629006801 [Eh]
	 SCS Total Energy          =    -364.6865194768967626 [Eh]
	-----------------------------------------------------------

  Dipole Moment: [D]
     X:    -0.0928      Y:    -4.3405      Z:     0.2209     Total:     4.3471

*** Psi4 exiting successfully. Buy a developer a beer!
