                               Psi4 1.3.2 release

  ==> Input File <==

--------------------------------------------------------------------------
#psi4
#
memory 32 gb

molecule  {
0 1
  O       -0.0101440     2.0708820    -0.1140410
  N        0.2351990    -0.2177110    -0.3583720
  C       -0.4908340    -1.4342940    -0.0290780
  C       -2.1403933    -0.8963401    -0.0507827
  C       -1.8489090     0.4999680     0.4010950
  C       -0.4582930     0.9265630    -0.0509830
  C        1.6617300    -0.1844710    -0.6214880
  C        2.4978900    -0.3314020     0.6460640
  H       -0.2060500    -1.8213230     0.9608810
  H       -0.2853850    -2.2161620    -0.7686800
  H       -2.5951790    -1.5710950     0.5868370
  H       -2.3326610    -1.0086390    -1.0720610
  H       -1.8916900     0.5931740     1.4933710
  H       -2.6106570     1.1621840    -0.0164710
  H        1.8952280    -0.9774960    -1.3410860
  H        1.8622980     0.7788290    -1.0968800
  H        2.2724650     0.4877290     1.3331980
  H        2.2931660    -1.2799200     1.1504100
  H        3.5653110    -0.2984830     0.4074420
units angstrom
no_reorient  #important for SAPT in psi4, default
symmetry c1  #important for SAPT in psi4, default
}

set PROPERTIES_ORIGIN ["COM"]
properties('MP2/aug-cc-pvtz', properties = ['dipole'])
--------------------------------------------------------------------------

    Molecular point group: c1
  Charge       = 0
  Multiplicity = 1
  Basis Set: AUG-CC-PVTZ
    Blend: AUG-CC-PVTZ
  Basis Set: (AUG-CC-PVTZ AUX)
    Blend: AUG-CC-PVTZ-JKFIT

    Orbital Energies [Eh]
    ---------------------

    Doubly Occupied:

       1A    -20.513506     2A    -15.580899     3A    -11.343328
       4A    -11.278468     5A    -11.260993     6A    -11.245022
       7A    -11.240906     8A    -11.218245     9A     -1.367404
      10A     -1.252697    11A     -1.083540    12A     -1.004756
      13A     -0.955488    14A     -0.875805    15A     -0.836293
      16A     -0.724038    17A     -0.692504    18A     -0.661324
      19A     -0.643840    20A     -0.613529    21A     -0.592881
      22A     -0.572560    23A     -0.566834    24A     -0.559405
      25A     -0.533982    26A     -0.516283    27A     -0.500620
      28A     -0.486598    29A     -0.440544    30A     -0.414597
      31A     -0.366868

  @DF-RHF Final Energy:  -363.04738539545582

   => Energetics <=

    Nuclear Repulsion Energy =            391.8304003119079653
    One-Electron Energy =               -1269.8680525189683976
    Two-Electron Energy =                 514.9902668116046698
    Total Energy =                       -363.0473853954557626
  Basis Set: (AUG-CC-PVTZ AUX)
    Blend: AUG-CC-PVTZ-RI
    Molecular point group: c1

    Geometry (in Angstrom), charge = 0, multiplicity = 1:

       Center              X                  Y                   Z               Mass
    ------------   -----------------  -----------------  -----------------  -----------------
         O            0.027281418126     2.010432200636    -0.099408630376    15.994914619570
         N            0.272624418126    -0.278160799364    -0.343739630376    14.003074004430
         C           -0.453408581874    -1.494743799364    -0.014445630376    12.000000000000
         C           -2.102967881874    -0.956789899364    -0.036150330376    12.000000000000
         C           -1.811483581874     0.439518200636     0.415727369624    12.000000000000
         C           -0.420867581874     0.866113200636    -0.036350630376    12.000000000000
         C            1.699155418126    -0.244920799364    -0.606855630376    12.000000000000
         C            2.535315418126    -0.391851799364     0.660696369624    12.000000000000
         H           -0.168624581874    -1.881772799364     0.975513369624     1.007825032230
         H           -0.247959581874    -2.276611799364    -0.754047630376     1.007825032230
         H           -2.557753581874    -1.631544799364     0.601469369624     1.007825032230
         H           -2.295235581874    -1.069088799364    -1.057428630376     1.007825032230
         H           -1.854264581874     0.532724200636     1.508003369624     1.007825032230
         H           -2.573231581874     1.101734200636    -0.001838630376     1.007825032230
         H            1.932653418126    -1.037945799364    -1.326453630376     1.007825032230
         H            1.899723418126     0.718379200636    -1.082247630376     1.007825032230
         H            2.309890418126     0.427279200636     1.347830369624     1.007825032230
         H            2.330591418126    -1.340369799364     1.165042369624     1.007825032230
         H            3.602736418126    -0.358932799364     0.422074369624     1.007825032230

  Basis Set: AUG-CC-PVTZ
    Blend: AUG-CC-PVTZ
  Basis Set: (AUG-CC-PVTZ AUX)
    Blend: AUG-CC-PVTZ-JKFIT
	 Reference Energy          =    -363.0473853954558194 [Eh]
	 Singles Energy            =      -0.0000000000000000 [Eh]
	 Same-Spin Energy          =      -0.3776185643868762 [Eh]
	 Opposite-Spin Energy      =      -1.2494131035994145 [Eh]
	 Correlation Energy        =      -1.6270316679862906 [Eh]
	 Total Energy              =    -364.6744170634420925 [Eh]

	 ================> DF-SCS-MP2 Energies <==================
	-----------------------------------------------------------
	 SCS Same-Spin Scale       =       0.3333333333333333 [-]
	 SCS Opposite-Spin Scale   =       1.2000000000000000 [-]
	 SCS Same-Spin Energy      =      -0.1258728547956254 [Eh]
	 SCS Opposite-Spin Energy  =      -1.4992957243192973 [Eh]
	 SCS Correlation Energy    =      -1.6251685791149226 [Eh]
	 SCS Total Energy          =    -364.6725539745707465 [Eh]
	-----------------------------------------------------------

  Dipole Moment: [D]
     X:    -0.4463      Y:    -3.9330      Z:     0.2470     Total:     3.9660

*** Psi4 exiting successfully. Buy a developer a beer!
