                               Psi4 1.4a3.dev225

  ==> Input File <==

--------------------------------------------------------------------------
#psi4
#
memory 32 gb

molecule  {
0 1
  N        0.1871790    -0.9111820    -0.0000020
  C        2.0846610     0.5733200    -0.0000030
  C        2.9631220    -0.4040200    -0.7474220
  C        2.9631210    -0.4040120     0.7474270
  C        0.6178930     0.3663440    -0.0000030
  C       -0.2752490     1.4465330    -0.0000020
  C       -1.6439530     1.1986260     0.0000010
  C       -2.1086100    -0.1215530     0.0000030
  C       -1.2767848    -0.9845860     0.0000013
  C       -3.5774520    -0.4452540     0.0000000
  H        2.4036780     1.6130560    -0.0000090
  H        3.8277670    -0.0076600    -1.2704010
  H        2.4452750    -1.2187140    -1.2419740
  H        2.4452760    -1.2187020     1.2419880
  H        3.8277650    -0.0076460     1.2704030
  H        0.1039660     2.4659580    -0.0000030
  H       -2.3510000     2.0273860     0.0000010
  H       -1.4419230    -2.1762520     0.0000020
  H       -4.0731050    -0.0303320     0.8832920
  H       -3.7381210    -1.5268000     0.0000420
  H       -4.0730850    -0.0304030    -0.8833370
units angstrom
no_reorient  #important for SAPT in psi4, default
symmetry c1  #important for SAPT in psi4, default
}

set PROPERTIES_ORIGIN ["COM"]
properties('MP2/aug-cc-pvtz', properties = ['dipole'])
--------------------------------------------------------------------------

    Molecular point group: c1
  Charge       = 0
  Multiplicity = 1
  Basis Set: AUG-CC-PVTZ
    Blend: AUG-CC-PVTZ
  Basis Set: (AUG-CC-PVTZ AUX)
    Blend: AUG-CC-PVTZ-JKFIT

    Orbital Energies [Eh]
    ---------------------

    Doubly Occupied:

       1A    -15.558181     2A    -11.278528     3A    -11.259779
       4A    -11.250841     5A    -11.237797     6A    -11.232804
       7A    -11.229119     8A    -11.223712     9A    -11.223020
      10A    -11.214197    11A     -1.239096    12A     -1.149183
      13A     -1.103354    14A     -1.045342    15A     -0.952535
      16A     -0.891590    17A     -0.834509    18A     -0.816493
      19A     -0.771112    20A     -0.698297    21A     -0.669454
      22A     -0.641012    23A     -0.619618    24A     -0.601512
      25A     -0.590999    26A     -0.564434    27A     -0.539924
      28A     -0.532739    29A     -0.528617    30A     -0.505940
      31A     -0.460844    32A     -0.438910    33A     -0.434828
      34A     -0.415197    35A     -0.357076    36A     -0.344348

  @DF-RHF Final Energy:  -401.71057879242557

   => Energetics <=

    Nuclear Repulsion Energy =            490.7647677137397295
    One-Electron Energy =               -1516.0408103553934325
    Two-Electron Energy =                 623.5654638492280810
    Total Energy =                       -401.7105787924256219
  Basis Set: (AUG-CC-PVTZ AUX)
    Blend: AUG-CC-PVTZ-RI
    Molecular point group: c1

    Geometry (in Angstrom), charge = 0, multiplicity = 1:

       Center              X                  Y                   Z               Mass
    ------------   -----------------  -----------------  -----------------  -----------------
         N            0.195040844323    -0.924965666248    -0.000002027239    14.003074004430
         C            2.092522844323     0.559536333752    -0.000003027239    12.000000000000
         C            2.970983844323    -0.417803666248    -0.747422027239    12.000000000000
         C            2.970982844323    -0.417795666248     0.747426972761    12.000000000000
         C            0.625754844323     0.352560333752    -0.000003027239    12.000000000000
         C           -0.267387155677     1.432749333752    -0.000002027239    12.000000000000
         C           -1.636091155677     1.184842333752     0.000000972761    12.000000000000
         C           -2.100748155677    -0.135336666248     0.000002972761    12.000000000000
         C           -1.268922955677    -0.998369666248     0.000001272761    12.000000000000
         C           -3.569590155677    -0.459037666248    -0.000000027239    12.000000000000
         H            2.411539844323     1.599272333752    -0.000009027239     1.007825032230
         H            3.835628844323    -0.021443666248    -1.270401027239     1.007825032230
         H            2.453136844323    -1.232497666248    -1.241974027239     1.007825032230
         H            2.453137844323    -1.232485666248     1.241987972761     1.007825032230
         H            3.835626844323    -0.021429666248     1.270402972761     1.007825032230
         H            0.111827844323     2.452174333752    -0.000003027239     1.007825032230
         H           -2.343138155677     2.013602333752     0.000000972761     1.007825032230
         H           -1.434061155677    -2.190035666248     0.000001972761     1.007825032230
         H           -4.065243155677    -0.044115666248     0.883291972761     1.007825032230
         H           -3.730259155677    -1.540583666248     0.000041972761     1.007825032230
         H           -4.065223155677    -0.044186666248    -0.883337027239     1.007825032230

  Basis Set: AUG-CC-PVTZ
    Blend: AUG-CC-PVTZ
  Basis Set: (AUG-CC-PVTZ AUX)
    Blend: AUG-CC-PVTZ-JKFIT
	 Reference Energy          =    -401.7105787924255651 [Eh]
	 Singles Energy            =      -0.0000000000000000 [Eh]
	 Same-Spin Energy          =      -0.4455559260028261 [Eh]
	 Opposite-Spin Energy      =      -1.4349624883439041 [Eh]
	 Correlation Energy        =      -1.8805184143467302 [Eh]
	 Total Energy              =    -403.5910972067723037 [Eh]

	 ================> DF-SCS-MP2 Energies <==================
	-----------------------------------------------------------
	 SCS Same-Spin Scale       =       0.3333333333333333 [-]
	 SCS Opposite-Spin Scale   =       1.2000000000000000 [-]
	 SCS Same-Spin Energy      =      -0.1485186420009420 [Eh]
	 SCS Opposite-Spin Energy  =      -1.7219549860126848 [Eh]
	 SCS Correlation Energy    =      -1.8704736280136269 [Eh]
	 SCS Total Energy          =    -403.5810524204391641 [Eh]
	-----------------------------------------------------------

  Dipole Moment: [D]
     X:    -1.1251      Y:     1.7347      Z:    -0.0000     Total:     2.0677

*** Psi4 exiting successfully. Buy a developer a beer!
