                               Psi4 1.4a3.dev225

  ==> Input File <==

--------------------------------------------------------------------------
#psi4
#
memory 32 gb

molecule  {
0 1
  N        0.1871790    -0.9111820    -0.0000020
  C        2.0846610     0.5733200    -0.0000030
  C        2.9631220    -0.4040200    -0.7474220
  C        2.9631210    -0.4040120     0.7474270
  C        0.6178930     0.3663440    -0.0000030
  C       -0.2752490     1.4465330    -0.0000020
  C       -1.6439530     1.1986260     0.0000010
  C       -2.1038414    -0.1474490     0.0454221
  C       -1.1379910    -1.1285870     0.0000010
  C       -3.5774520    -0.4452540     0.0000000
  H        2.4036780     1.6130560    -0.0000090
  H        3.8277670    -0.0076600    -1.2704010
  H        2.4452750    -1.2187140    -1.2419740
  H        2.4452760    -1.2187020     1.2419880
  H        3.8277650    -0.0076460     1.2704030
  H        0.1039660     2.4659580    -0.0000030
  H       -2.3510000     2.0273860     0.0000010
  H       -1.4419230    -2.1762520     0.0000020
  H       -4.0731050    -0.0303320     0.8832920
  H       -3.7381210    -1.5268000     0.0000420
  H       -4.0730850    -0.0304030    -0.8833370
units angstrom
no_reorient  #important for SAPT in psi4, default
symmetry c1  #important for SAPT in psi4, default
}

set PROPERTIES_ORIGIN ["COM"]
properties('MP2/aug-cc-pvtz', properties = ['dipole'])
--------------------------------------------------------------------------

    Molecular point group: c1
  Charge       = 0
  Multiplicity = 1
  Basis Set: AUG-CC-PVTZ
    Blend: AUG-CC-PVTZ
  Basis Set: (AUG-CC-PVTZ AUX)
    Blend: AUG-CC-PVTZ-JKFIT

    Orbital Energies [Eh]
    ---------------------

    Doubly Occupied:

       1A    -15.554626     2A    -11.277119     3A    -11.264145
       4A    -11.254869     5A    -11.238964     6A    -11.234418
       7A    -11.231780     8A    -11.229026     9A    -11.221953
      10A    -11.221258    11A     -1.251127    12A     -1.141236
      13A     -1.089029    14A     -1.044081    15A     -0.950817
      16A     -0.870355    17A     -0.836958    18A     -0.815221
      19A     -0.782183    20A     -0.701431    21A     -0.666011
      22A     -0.639308    23A     -0.625923    24A     -0.601143
      25A     -0.583456    26A     -0.566388    27A     -0.551395
      28A     -0.535541    29A     -0.524938    30A     -0.504372
      31A     -0.495664    32A     -0.429924    33A     -0.427495
      34A     -0.407151    35A     -0.370498    36A     -0.314626

  @DF-RHF Final Energy:  -401.77225050690839

   => Energetics <=

    Nuclear Repulsion Energy =            489.0094539449598869
    One-Electron Energy =               -1512.6545467225018911
    Two-Electron Energy =                 621.8728422706335550
    Total Energy =                       -401.7722505069084491
  Basis Set: (AUG-CC-PVTZ AUX)
    Blend: AUG-CC-PVTZ-RI
    Molecular point group: c1

    Geometry (in Angstrom), charge = 0, multiplicity = 1:

       Center              X                  Y                   Z               Mass
    ------------   -----------------  -----------------  -----------------  -----------------
         N            0.182096522353    -0.909646881736    -0.004097219090    14.003074004430
         C            2.079578522353     0.574855118264    -0.004098219090    12.000000000000
         C            2.958039522353    -0.402484881736    -0.751517219090    12.000000000000
         C            2.958038522353    -0.402476881736     0.743331780910    12.000000000000
         C            0.612810522353     0.367879118264    -0.004098219090    12.000000000000
         C           -0.280331477647     1.448068118264    -0.004097219090    12.000000000000
         C           -1.649035477647     1.200161118264    -0.004094219090    12.000000000000
         C           -2.108923877647    -0.145913881736     0.041326880910    12.000000000000
         C           -1.143073477647    -1.127051881736    -0.004094219090    12.000000000000
         C           -3.582534477647    -0.443718881736    -0.004095219090    12.000000000000
         H            2.398595522353     1.614591118264    -0.004104219090     1.007825032230
         H            3.822684522353    -0.006124881736    -1.274496219090     1.007825032230
         H            2.440192522353    -1.217178881736    -1.246069219090     1.007825032230
         H            2.440193522353    -1.217166881736     1.237892780910     1.007825032230
         H            3.822682522353    -0.006110881736     1.266307780910     1.007825032230
         H            0.098883522353     2.467493118264    -0.004098219090     1.007825032230
         H           -2.356082477647     2.028921118264    -0.004094219090     1.007825032230
         H           -1.447005477647    -2.174716881736    -0.004093219090     1.007825032230
         H           -4.078187477647    -0.028796881736     0.879196780910     1.007825032230
         H           -3.743203477647    -1.525264881736    -0.004053219090     1.007825032230
         H           -4.078167477647    -0.028867881736    -0.887432219090     1.007825032230

  Basis Set: AUG-CC-PVTZ
    Blend: AUG-CC-PVTZ
  Basis Set: (AUG-CC-PVTZ AUX)
    Blend: AUG-CC-PVTZ-JKFIT
	 Reference Energy          =    -401.7722505069083923 [Eh]
	 Singles Energy            =      -0.0000000000000000 [Eh]
	 Same-Spin Energy          =      -0.4458645531649980 [Eh]
	 Opposite-Spin Energy      =      -1.4316814425458015 [Eh]
	 Correlation Energy        =      -1.8775459957107996 [Eh]
	 Total Energy              =    -403.6497965026192105 [Eh]

	 ================> DF-SCS-MP2 Energies <==================
	-----------------------------------------------------------
	 SCS Same-Spin Scale       =       0.3333333333333333 [-]
	 SCS Opposite-Spin Scale   =       1.2000000000000000 [-]
	 SCS Same-Spin Energy      =      -0.1486215177216660 [Eh]
	 SCS Opposite-Spin Energy  =      -1.7180177310549618 [Eh]
	 SCS Correlation Energy    =      -1.8666392487766277 [Eh]
	 SCS Total Energy          =    -403.6388897556849997 [Eh]
	-----------------------------------------------------------

  Dipole Moment: [D]
     X:    -1.2893      Y:     1.4850      Z:    -0.0115     Total:     1.9666

*** Psi4 exiting successfully. Buy a developer a beer!
