                               Psi4 1.4a3.dev225

  ==> Input File <==

--------------------------------------------------------------------------
#psi4
#
memory 32 gb

molecule  {
0 1
  N        0.1871790    -0.9111820    -0.0000020
  C        2.0846610     0.5733200    -0.0000030
  C        2.9631220    -0.4040200    -0.7474220
  C        2.9631210    -0.4040120     0.7474270
  C        0.6178930     0.3663440    -0.0000030
  C       -0.2752490     1.4465330    -0.0000020
  C       -1.6242732     1.2021905     0.0000010
  C       -2.1086100    -0.1215530     0.0000030
  C       -1.1379910    -1.1285870     0.0000010
  C       -3.5774520    -0.4452540     0.0000000
  H        2.4036780     1.6130560    -0.0000090
  H        3.8277670    -0.0076600    -1.2704010
  H        2.4452750    -1.2187140    -1.2419740
  H        2.4452760    -1.2187020     1.2419880
  H        3.8277650    -0.0076460     1.2704030
  H        0.1039660     2.4659580    -0.0000030
  H       -2.3510000     2.0273860     0.0000010
  H       -1.4419230    -2.1762520     0.0000020
  H       -4.0731050    -0.0303320     0.8832920
  H       -3.7381210    -1.5268000     0.0000420
  H       -4.0730850    -0.0304030    -0.8833370
units angstrom
no_reorient  #important for SAPT in psi4, default
symmetry c1  #important for SAPT in psi4, default
}

set PROPERTIES_ORIGIN ["COM"]
properties('MP2/aug-cc-pvtz', properties = ['dipole'])
--------------------------------------------------------------------------

    Molecular point group: c1
  Charge       = 0
  Multiplicity = 1
  Basis Set: AUG-CC-PVTZ
    Blend: AUG-CC-PVTZ
  Basis Set: (AUG-CC-PVTZ AUX)
    Blend: AUG-CC-PVTZ-JKFIT

    Orbital Energies [Eh]
    ---------------------

    Doubly Occupied:

       1A    -15.555142     2A    -11.276748     3A    -11.266692
       4A    -11.251295     5A    -11.239786     6A    -11.232064
       7A    -11.231650     8A    -11.229529     9A    -11.221850
      10A    -11.221157    11A     -1.251305    12A     -1.140978
      13A     -1.091318    14A     -1.044568    15A     -0.951417
      16A     -0.866796    17A     -0.839523    18A     -0.815154
      19A     -0.780933    20A     -0.700806    21A     -0.668015
      22A     -0.639059    23A     -0.626025    24A     -0.600678
      25A     -0.583493    26A     -0.563370    27A     -0.549349
      28A     -0.535913    29A     -0.527226    30A     -0.504455
      31A     -0.499759    32A     -0.429430    33A     -0.427218
      34A     -0.405892    35A     -0.374507    36A     -0.312108

  @DF-RHF Final Energy:  -401.77338504444583

   => Energetics <=

    Nuclear Repulsion Energy =            489.1881728066891242
    One-Electron Energy =               -1513.0126958713199201
    Two-Electron Energy =                 622.0511380201849079
    Total Energy =                       -401.7733850444458312
  Basis Set: (AUG-CC-PVTZ AUX)
    Blend: AUG-CC-PVTZ-RI
    Molecular point group: c1

    Geometry (in Angstrom), charge = 0, multiplicity = 1:

       Center              X                  Y                   Z               Mass
    ------------   -----------------  -----------------  -----------------  -----------------
         N            0.180752052117    -0.912303191448    -0.000002000189    14.003074004430
         C            2.078234052117     0.572198808552    -0.000003000189    12.000000000000
         C            2.956695052117    -0.405141191448    -0.747422000189    12.000000000000
         C            2.956694052117    -0.405133191448     0.747426999811    12.000000000000
         C            0.611466052117     0.365222808552    -0.000003000189    12.000000000000
         C           -0.281675947883     1.445411808552    -0.000002000189    12.000000000000
         C           -1.630700147883     1.201069308552     0.000000999811    12.000000000000
         C           -2.115036947883    -0.122674191448     0.000002999811    12.000000000000
         C           -1.144417947883    -1.129708191448     0.000000999811    12.000000000000
         C           -3.583878947883    -0.446375191448    -0.000000000189    12.000000000000
         H            2.397251052117     1.611934808552    -0.000009000189     1.007825032230
         H            3.821340052117    -0.008781191448    -1.270401000189     1.007825032230
         H            2.438848052117    -1.219835191448    -1.241974000189     1.007825032230
         H            2.438849052117    -1.219823191448     1.241987999811     1.007825032230
         H            3.821338052117    -0.008767191448     1.270402999811     1.007825032230
         H            0.097539052117     2.464836808552    -0.000003000189     1.007825032230
         H           -2.357426947883     2.026264808552     0.000000999811     1.007825032230
         H           -1.448349947883    -2.177373191448     0.000001999811     1.007825032230
         H           -4.079531947883    -0.031453191448     0.883291999811     1.007825032230
         H           -3.744547947883    -1.527921191448     0.000041999811     1.007825032230
         H           -4.079511947883    -0.031524191448    -0.883337000189     1.007825032230

  Basis Set: AUG-CC-PVTZ
    Blend: AUG-CC-PVTZ
  Basis Set: (AUG-CC-PVTZ AUX)
    Blend: AUG-CC-PVTZ-JKFIT
	 Reference Energy          =    -401.7733850444458312 [Eh]
	 Singles Energy            =      -0.0000000000000000 [Eh]
	 Same-Spin Energy          =      -0.4459115632843236 [Eh]
	 Opposite-Spin Energy      =      -1.4315678762592978 [Eh]
	 Correlation Energy        =      -1.8774794395436214 [Eh]
	 Total Energy              =    -403.6508644839894373 [Eh]

	 ================> DF-SCS-MP2 Energies <==================
	-----------------------------------------------------------
	 SCS Same-Spin Scale       =       0.3333333333333333 [-]
	 SCS Opposite-Spin Scale   =       1.2000000000000000 [-]
	 SCS Same-Spin Energy      =      -0.1486371877614412 [Eh]
	 SCS Opposite-Spin Energy  =      -1.7178814515111573 [Eh]
	 SCS Correlation Energy    =      -1.8665186392725985 [Eh]
	 SCS Total Energy          =    -403.6399036837184440 [Eh]
	-----------------------------------------------------------

  Dipole Moment: [D]
     X:    -1.3073      Y:     1.4536      Z:    -0.0000     Total:     1.9550

*** Psi4 exiting successfully. Buy a developer a beer!
