                               Psi4 1.4a3.dev225

  ==> Input File <==

--------------------------------------------------------------------------
#psi4
#
memory 32 gb

molecule  {
0 1
  N        0.1871790    -0.9111820    -0.0000020
  C        2.0846610     0.5733200    -0.0000030
  C        2.9631220    -0.4040200    -0.7474220
  C        2.9631210    -0.4040120     0.7474270
  C        0.6178930     0.3663440    -0.0000030
  C       -0.2752490     1.4465330    -0.0000020
  C       -1.6439530     1.1986260     0.0000010
  C       -2.1086100    -0.1215530     0.0000030
  C       -0.9991972    -1.2725880     0.0000007
  C       -3.5774520    -0.4452540     0.0000000
  H        2.4036780     1.6130560    -0.0000090
  H        3.8277670    -0.0076600    -1.2704010
  H        2.4452750    -1.2187140    -1.2419740
  H        2.4452760    -1.2187020     1.2419880
  H        3.8277650    -0.0076460     1.2704030
  H        0.1039660     2.4659580    -0.0000030
  H       -2.3510000     2.0273860     0.0000010
  H       -1.4419230    -2.1762520     0.0000020
  H       -4.0731050    -0.0303320     0.8832920
  H       -3.7381210    -1.5268000     0.0000420
  H       -4.0730850    -0.0304030    -0.8833370
units angstrom
no_reorient  #important for SAPT in psi4, default
symmetry c1  #important for SAPT in psi4, default
}

set PROPERTIES_ORIGIN ["COM"]
properties('MP2/aug-cc-pvtz', properties = ['dipole'])
--------------------------------------------------------------------------

    Molecular point group: c1
  Charge       = 0
  Multiplicity = 1
  Basis Set: AUG-CC-PVTZ
    Blend: AUG-CC-PVTZ
  Basis Set: (AUG-CC-PVTZ AUX)
    Blend: AUG-CC-PVTZ-JKFIT

    Orbital Energies [Eh]
    ---------------------

    Doubly Occupied:

       1A    -15.553260     2A    -11.277914     3A    -11.273732
       4A    -11.251186     5A    -11.241781     6A    -11.232254
       7A    -11.230055     8A    -11.228580     9A    -11.219577
      10A    -11.218885    11A     -1.272504    12A     -1.140582
      13A     -1.087087    14A     -1.036851    15A     -0.952436
      16A     -0.860874    17A     -0.837209    18A     -0.813609
      19A     -0.778240    20A     -0.720836    21A     -0.665944
      22A     -0.644364    23A     -0.630319    24A     -0.597920
      25A     -0.579700    26A     -0.570344    27A     -0.544245
      28A     -0.542385    29A     -0.525612    30A     -0.508913
      31A     -0.503676    32A     -0.428194    33A     -0.421767
      34A     -0.387920    35A     -0.381004    36A     -0.291429

  @DF-RHF Final Energy:  -401.73449912613131

   => Energetics <=

    Nuclear Repulsion Energy =            487.8435128487095085
    One-Electron Energy =               -1510.2536434551054754
    Two-Electron Energy =                 620.6756314802646557
    Total Energy =                       -401.7344991261313680
  Basis Set: (AUG-CC-PVTZ AUX)
    Blend: AUG-CC-PVTZ-RI
    Molecular point group: c1

    Geometry (in Angstrom), charge = 0, multiplicity = 1:

       Center              X                  Y                   Z               Mass
    ------------   -----------------  -----------------  -----------------  -----------------
         N            0.170012123228    -0.898997929459    -0.000001973139    14.003074004430
         C            2.067494123228     0.585504070541    -0.000002973139    12.000000000000
         C            2.945955123228    -0.391835929459    -0.747421973139    12.000000000000
         C            2.945954123228    -0.391827929459     0.747427026861    12.000000000000
         C            0.600726123228     0.378528070541    -0.000002973139    12.000000000000
         C           -0.292415876772     1.458717070541    -0.000001973139    12.000000000000
         C           -1.661119876772     1.210810070541     0.000001026861    12.000000000000
         C           -2.125776876772    -0.109368929459     0.000003026861    12.000000000000
         C           -1.016364076772    -1.260403929459     0.000000726861    12.000000000000
         C           -3.594618876772    -0.433069929459     0.000000026861    12.000000000000
         H            2.386511123228     1.625240070541    -0.000008973139     1.007825032230
         H            3.810600123228     0.004524070541    -1.270400973139     1.007825032230
         H            2.428108123228    -1.206529929459    -1.241973973139     1.007825032230
         H            2.428109123228    -1.206517929459     1.241988026861     1.007825032230
         H            3.810598123228     0.004538070541     1.270403026861     1.007825032230
         H            0.086799123228     2.478142070541    -0.000002973139     1.007825032230
         H           -2.368166876772     2.039570070541     0.000001026861     1.007825032230
         H           -1.459089876772    -2.164067929459     0.000002026861     1.007825032230
         H           -4.090271876772    -0.018147929459     0.883292026861     1.007825032230
         H           -3.755287876772    -1.514615929459     0.000042026861     1.007825032230
         H           -4.090251876772    -0.018218929459    -0.883336973139     1.007825032230

  Basis Set: AUG-CC-PVTZ
    Blend: AUG-CC-PVTZ
  Basis Set: (AUG-CC-PVTZ AUX)
    Blend: AUG-CC-PVTZ-JKFIT
	 Reference Energy          =    -401.7344991261313112 [Eh]
	 Singles Energy            =      -0.0000000000000000 [Eh]
	 Same-Spin Energy          =      -0.4453767429594264 [Eh]
	 Opposite-Spin Energy      =      -1.4323607593690273 [Eh]
	 Correlation Energy        =      -1.8777375023284537 [Eh]
	 Total Energy              =    -403.6122366284597547 [Eh]

	 ================> DF-SCS-MP2 Energies <==================
	-----------------------------------------------------------
	 SCS Same-Spin Scale       =       0.3333333333333333 [-]
	 SCS Opposite-Spin Scale   =       1.2000000000000000 [-]
	 SCS Same-Spin Energy      =      -0.1484589143198088 [Eh]
	 SCS Opposite-Spin Energy  =      -1.7188329112428327 [Eh]
	 SCS Correlation Energy    =      -1.8672918255626414 [Eh]
	 SCS Total Energy          =    -403.6017909516939426 [Eh]
	-----------------------------------------------------------

  Dipole Moment: [D]
     X:    -1.2453      Y:     1.1140      Z:    -0.0000     Total:     1.6708

*** Psi4 exiting successfully. Buy a developer a beer!
