                               Psi4 1.4a3.dev225

  ==> Input File <==

--------------------------------------------------------------------------
#psi4
#
memory 32 gb

molecule  {
0 1
  N        0.1871790    -0.9111820    -0.0000020
  C        2.0846610     0.5733200    -0.0000030
  C        2.9631220    -0.4040200    -0.7474220
  C        2.9631210    -0.4040120     0.7474270
  C        0.6376968     0.3691385    -0.0000030
  C       -0.2752490     1.4465330    -0.0000020
  C       -1.6439530     1.1986260     0.0000010
  C       -2.1086100    -0.1215530     0.0000030
  C       -1.1379910    -1.1285870     0.0000010
  C       -3.5774520    -0.4452540     0.0000000
  H        2.4036780     1.6130560    -0.0000090
  H        3.8277670    -0.0076600    -1.2704010
  H        2.4452750    -1.2187140    -1.2419740
  H        2.4452760    -1.2187020     1.2419880
  H        3.8277650    -0.0076460     1.2704030
  H        0.1039660     2.4659580    -0.0000030
  H       -2.3510000     2.0273860     0.0000010
  H       -1.4419230    -2.1762520     0.0000020
  H       -4.0731050    -0.0303320     0.8832920
  H       -3.7381210    -1.5268000     0.0000420
  H       -4.0730850    -0.0304030    -0.8833370
units angstrom
no_reorient  #important for SAPT in psi4, default
symmetry c1  #important for SAPT in psi4, default
}

set PROPERTIES_ORIGIN ["COM"]
properties('MP2/aug-cc-pvtz', properties = ['dipole'])
--------------------------------------------------------------------------

    Molecular point group: c1
  Charge       = 0
  Multiplicity = 1
  Basis Set: AUG-CC-PVTZ
    Blend: AUG-CC-PVTZ
  Basis Set: (AUG-CC-PVTZ AUX)
    Blend: AUG-CC-PVTZ-JKFIT

    Orbital Energies [Eh]
    ---------------------

    Doubly Occupied:

       1A    -15.555425     2A    -11.277423     3A    -11.267176
       4A    -11.251084     5A    -11.238846     6A    -11.234500
       7A    -11.231538     8A    -11.228840     9A    -11.222868
      10A    -11.222177    11A     -1.247943    12A     -1.143091
      13A     -1.090167    14A     -1.041043    15A     -0.951826
      16A     -0.868097    17A     -0.840158    18A     -0.816190
      19A     -0.781098    20A     -0.701699    21A     -0.666684
      22A     -0.638525    23A     -0.625656    24A     -0.601377
      25A     -0.583086    26A     -0.564103    27A     -0.548925
      28A     -0.534662    29A     -0.528771    30A     -0.504673
      31A     -0.501496    32A     -0.431393    33A     -0.427867
      34A     -0.404650    35A     -0.371431    36A     -0.310437

  @DF-RHF Final Energy:  -401.77238807476800

   => Energetics <=

    Nuclear Repulsion Energy =            488.9064080767702194
    One-Electron Energy =               -1512.4477383163466584
    Two-Electron Energy =                 621.7689421648083226
    Total Energy =                       -401.7723880747680596
  Basis Set: (AUG-CC-PVTZ AUX)
    Blend: AUG-CC-PVTZ-RI
    Molecular point group: c1

    Geometry (in Angstrom), charge = 0, multiplicity = 1:

       Center              X                  Y                   Z               Mass
    ------------   -----------------  -----------------  -----------------  -----------------
         N            0.180740871641    -0.912233764300    -0.000002000189    14.003074004430
         C            2.078222871641     0.572268235700    -0.000003000189    12.000000000000
         C            2.956683871641    -0.405071764300    -0.747422000189    12.000000000000
         C            2.956682871641    -0.405063764300     0.747426999811    12.000000000000
         C            0.631258671641     0.368086735700    -0.000003000189    12.000000000000
         C           -0.281687128359     1.445481235700    -0.000002000189    12.000000000000
         C           -1.650391128359     1.197574235700     0.000000999811    12.000000000000
         C           -2.115048128359    -0.122604764300     0.000002999811    12.000000000000
         C           -1.144429128359    -1.129638764300     0.000000999811    12.000000000000
         C           -3.583890128359    -0.446305764300    -0.000000000189    12.000000000000
         H            2.397239871641     1.612004235700    -0.000009000189     1.007825032230
         H            3.821328871641    -0.008711764300    -1.270401000189     1.007825032230
         H            2.438836871641    -1.219765764300    -1.241974000189     1.007825032230
         H            2.438837871641    -1.219753764300     1.241987999811     1.007825032230
         H            3.821326871641    -0.008697764300     1.270402999811     1.007825032230
         H            0.097527871641     2.464906235700    -0.000003000189     1.007825032230
         H           -2.357438128359     2.026334235700     0.000000999811     1.007825032230
         H           -1.448361128359    -2.177303764300     0.000001999811     1.007825032230
         H           -4.079543128359    -0.031383764300     0.883291999811     1.007825032230
         H           -3.744559128359    -1.527851764300     0.000041999811     1.007825032230
         H           -4.079523128359    -0.031454764300    -0.883337000189     1.007825032230

  Basis Set: AUG-CC-PVTZ
    Blend: AUG-CC-PVTZ
  Basis Set: (AUG-CC-PVTZ AUX)
    Blend: AUG-CC-PVTZ-JKFIT
	 Reference Energy          =    -401.7723880747680028 [Eh]
	 Singles Energy            =      -0.0000000000000000 [Eh]
	 Same-Spin Energy          =      -0.4462721265983921 [Eh]
	 Opposite-Spin Energy      =      -1.4321423151403443 [Eh]
	 Correlation Energy        =      -1.8784144417387365 [Eh]
	 Total Energy              =    -403.6508025165067579 [Eh]

	 ================> DF-SCS-MP2 Energies <==================
	-----------------------------------------------------------
	 SCS Same-Spin Scale       =       0.3333333333333333 [-]
	 SCS Opposite-Spin Scale   =       1.2000000000000000 [-]
	 SCS Same-Spin Energy      =      -0.1487573755327974 [Eh]
	 SCS Opposite-Spin Energy  =      -1.7185707781684132 [Eh]
	 SCS Correlation Energy    =      -1.8673281537012105 [Eh]
	 SCS Total Energy          =    -403.6397162284692399 [Eh]
	-----------------------------------------------------------

  Dipole Moment: [D]
     X:    -1.2150      Y:     1.4518      Z:    -0.0000     Total:     1.8931

*** Psi4 exiting successfully. Buy a developer a beer!
