                               Psi4 1.4a3.dev225

  ==> Input File <==

--------------------------------------------------------------------------
#psi4
#
memory 32 gb

molecule  {
0 1
  N        0.1871790    -0.9111820    -0.0000020
  C        2.0846610     0.5733200    -0.0000030
  C        2.9631220    -0.4040200    -0.7474220
  C        2.9631210    -0.4040120     0.7474270
  C        0.6178930     0.3663440    -0.0000030
  C       -0.2752490     1.4465330    -0.0000020
  C       -1.6439530     1.1986260     0.0000010
  C       -2.1086100    -0.1215530     0.0000030
  C       -1.1379910    -1.1285870     0.0000010
  C       -3.5969833    -0.4495583    -0.0000000
  H        2.4036780     1.6130560    -0.0000090
  H        3.8277670    -0.0076600    -1.2704010
  H        2.4452750    -1.2187140    -1.2419740
  H        2.4452760    -1.2187020     1.2419880
  H        3.8277650    -0.0076460     1.2704030
  H        0.1039660     2.4659580    -0.0000030
  H       -2.3510000     2.0273860     0.0000010
  H       -1.4419230    -2.1762520     0.0000020
  H       -4.0731050    -0.0303320     0.8832920
  H       -3.7381210    -1.5268000     0.0000420
  H       -4.0730850    -0.0304030    -0.8833370
units angstrom
no_reorient  #important for SAPT in psi4, default
symmetry c1  #important for SAPT in psi4, default
}

set PROPERTIES_ORIGIN ["COM"]
properties('MP2/aug-cc-pvtz', properties = ['dipole'])
--------------------------------------------------------------------------

    Molecular point group: c1
  Charge       = 0
  Multiplicity = 1
  Basis Set: AUG-CC-PVTZ
    Blend: AUG-CC-PVTZ
  Basis Set: (AUG-CC-PVTZ AUX)
    Blend: AUG-CC-PVTZ-JKFIT

    Orbital Energies [Eh]
    ---------------------

    Doubly Occupied:

       1A    -15.555626     2A    -11.276013     3A    -11.267686
       4A    -11.251611     5A    -11.240225     6A    -11.233680
       7A    -11.231306     8A    -11.228753     9A    -11.221490
      10A    -11.220798    11A     -1.251011    12A     -1.140640
      13A     -1.090047    14A     -1.041488    15A     -0.951256
      16A     -0.867311    17A     -0.840325    18A     -0.814857
      19A     -0.781146    20A     -0.700878    21A     -0.666252
      22A     -0.638626    23A     -0.624852    24A     -0.600373
      25A     -0.585515    26A     -0.564100    27A     -0.551559
      28A     -0.536244    29A     -0.527392    30A     -0.504232
      31A     -0.497347    32A     -0.429657    33A     -0.427186
      34A     -0.406140    35A     -0.372443    36A     -0.312960

  @DF-RHF Final Energy:  -401.77361588447656

   => Energetics <=

    Nuclear Repulsion Energy =            488.6808471162365777
    One-Electron Energy =               -1512.0068781582183419
    Two-Electron Energy =                 621.5524151575051519
    Total Energy =                       -401.7736158844766123
  Basis Set: (AUG-CC-PVTZ AUX)
    Blend: AUG-CC-PVTZ-RI
    Molecular point group: c1

    Geometry (in Angstrom), charge = 0, multiplicity = 1:

       Center              X                  Y                   Z               Mass
    ------------   -----------------  -----------------  -----------------  -----------------
         N            0.184287525912    -0.911593700099    -0.000002000189    14.003074004430
         C            2.081769525912     0.572908299901    -0.000003000189    12.000000000000
         C            2.960230525912    -0.404431700099    -0.747422000189    12.000000000000
         C            2.960229525912    -0.404423700099     0.747426999811    12.000000000000
         C            0.615001525912     0.365932299901    -0.000003000189    12.000000000000
         C           -0.278140474088     1.446121299901    -0.000002000189    12.000000000000
         C           -1.646844474088     1.198214299901     0.000000999811    12.000000000000
         C           -2.111501474088    -0.121964700099     0.000002999811    12.000000000000
         C           -1.140882474088    -1.128998700099     0.000000999811    12.000000000000
         C           -3.599874774088    -0.449970000099    -0.000000000189    12.000000000000
         H            2.400786525912     1.612644299901    -0.000009000189     1.007825032230
         H            3.824875525912    -0.008071700099    -1.270401000189     1.007825032230
         H            2.442383525912    -1.219125700099    -1.241974000189     1.007825032230
         H            2.442384525912    -1.219113700099     1.241987999811     1.007825032230
         H            3.824873525912    -0.008057700099     1.270402999811     1.007825032230
         H            0.101074525912     2.465546299901    -0.000003000189     1.007825032230
         H           -2.353891474088     2.026974299901     0.000000999811     1.007825032230
         H           -1.444814474088    -2.176663700099     0.000001999811     1.007825032230
         H           -4.075996474088    -0.030743700099     0.883291999811     1.007825032230
         H           -3.741012474088    -1.527211700099     0.000041999811     1.007825032230
         H           -4.075976474088    -0.030814700099    -0.883337000189     1.007825032230

  Basis Set: AUG-CC-PVTZ
    Blend: AUG-CC-PVTZ
  Basis Set: (AUG-CC-PVTZ AUX)
    Blend: AUG-CC-PVTZ-JKFIT
	 Reference Energy          =    -401.7736158844765555 [Eh]
	 Singles Energy            =      -0.0000000000000000 [Eh]
	 Same-Spin Energy          =      -0.4457992756241864 [Eh]
	 Opposite-Spin Energy      =      -1.4315411476224023 [Eh]
	 Correlation Energy        =      -1.8773404232465887 [Eh]
	 Total Energy              =    -403.6509563077231633 [Eh]

	 ================> DF-SCS-MP2 Energies <==================
	-----------------------------------------------------------
	 SCS Same-Spin Scale       =       0.3333333333333333 [-]
	 SCS Opposite-Spin Scale   =       1.2000000000000000 [-]
	 SCS Same-Spin Energy      =      -0.1485997585413955 [Eh]
	 SCS Opposite-Spin Energy  =      -1.7178493771468826 [Eh]
	 SCS Correlation Energy    =      -1.8664491356882780 [Eh]
	 SCS Total Energy          =    -403.6400650201648546 [Eh]
	-----------------------------------------------------------

  Dipole Moment: [D]
     X:    -1.3135      Y:     1.4546      Z:    -0.0000     Total:     1.9599

*** Psi4 exiting successfully. Buy a developer a beer!
