                               Psi4 1.4a3.dev225

  ==> Input File <==

--------------------------------------------------------------------------
#psi4
#
memory 32 gb

molecule  {
0 1
  N        0.1871790    -0.9111820    -0.0000020
  C        2.0846610     0.5733200    -0.0000030
  C        2.9631220    -0.4040200    -0.7474220
  C        2.9631210    -0.4040120     0.7474270
  C        0.6070281     0.4691647    -0.0000036
  C       -0.2752490     1.4465330    -0.0000020
  C       -1.6439530     1.1986260     0.0000010
  C       -2.1086100    -0.1215530     0.0000030
  C       -1.1379910    -1.1285870     0.0000010
  C       -3.5774520    -0.4452540     0.0000000
  H        2.4036780     1.6130560    -0.0000090
  H        3.8277670    -0.0076600    -1.2704010
  H        2.4452750    -1.2187140    -1.2419740
  H        2.4452760    -1.2187020     1.2419880
  H        3.8277650    -0.0076460     1.2704030
  H        0.1039660     2.4659580    -0.0000030
  H       -2.3510000     2.0273860     0.0000010
  H       -1.4419230    -2.1762520     0.0000020
  H       -4.0731050    -0.0303320     0.8832920
  H       -3.7381210    -1.5268000     0.0000420
  H       -4.0730850    -0.0304030    -0.8833370
units angstrom
no_reorient  #important for SAPT in psi4, default
symmetry c1  #important for SAPT in psi4, default
}

set PROPERTIES_ORIGIN ["COM"]
properties('MP2/aug-cc-pvtz', properties = ['dipole'])
--------------------------------------------------------------------------

    Molecular point group: c1
  Charge       = 0
  Multiplicity = 1
  Basis Set: AUG-CC-PVTZ
    Blend: AUG-CC-PVTZ
  Basis Set: (AUG-CC-PVTZ AUX)
    Blend: AUG-CC-PVTZ-JKFIT

    Orbital Energies [Eh]
    ---------------------

    Doubly Occupied:

       1A    -15.561308     2A    -11.270804     3A    -11.269330
       4A    -11.253203     5A    -11.241009     6A    -11.231382
       7A    -11.230244     8A    -11.224687     9A    -11.221139
      10A    -11.220447    11A     -1.234240    12A     -1.138712
      13A     -1.087493    14A     -1.055929    15A     -0.951076
      16A     -0.866467    17A     -0.841459    18A     -0.813784
      19A     -0.781702    20A     -0.696835    21A     -0.670277
      22A     -0.631812    23A     -0.625900    24A     -0.606528
      25A     -0.584164    26A     -0.564334    27A     -0.550526
      28A     -0.530794    29A     -0.526283    30A     -0.503431
      31A     -0.487140    32A     -0.429628    33A     -0.426034
      34A     -0.411997    35A     -0.371651    36A     -0.316586

  @DF-RHF Final Energy:  -401.75819740312380

   => Energetics <=

    Nuclear Repulsion Energy =            488.5064624314524053
    One-Electron Energy =               -1511.6726497671929792
    Two-Electron Energy =                 621.4079899326168288
    Total Energy =                       -401.7581974031237451
  Basis Set: (AUG-CC-PVTZ AUX)
    Blend: AUG-CC-PVTZ-RI
    Molecular point group: c1

    Geometry (in Angstrom), charge = 0, multiplicity = 1:

       Center              X                  Y                   Z               Mass
    ------------   -----------------  -----------------  -----------------  -----------------
         N            0.183506118859    -0.921252639286    -0.000001946090    14.003074004430
         C            2.080988118859     0.563249360714    -0.000002946090    12.000000000000
         C            2.959449118859    -0.414090639286    -0.747421946090    12.000000000000
         C            2.959448118859    -0.414082639286     0.747427053910    12.000000000000
         C            0.603355218859     0.459094060714    -0.000003546090    12.000000000000
         C           -0.278921881141     1.436462360714    -0.000001946090    12.000000000000
         C           -1.647625881141     1.188555360714     0.000001053910    12.000000000000
         C           -2.112282881141    -0.131623639286     0.000003053910    12.000000000000
         C           -1.141663881141    -1.138657639286     0.000001053910    12.000000000000
         C           -3.581124881141    -0.455324639286     0.000000053910    12.000000000000
         H            2.400005118859     1.602985360714    -0.000008946090     1.007825032230
         H            3.824094118859    -0.017730639286    -1.270400946090     1.007825032230
         H            2.441602118859    -1.228784639286    -1.241973946090     1.007825032230
         H            2.441603118859    -1.228772639286     1.241988053910     1.007825032230
         H            3.824092118859    -0.017716639286     1.270403053910     1.007825032230
         H            0.100293118859     2.455887360714    -0.000002946090     1.007825032230
         H           -2.354672881141     2.017315360714     0.000001053910     1.007825032230
         H           -1.445595881141    -2.186322639286     0.000002053910     1.007825032230
         H           -4.076777881141    -0.040402639286     0.883292053910     1.007825032230
         H           -3.741793881141    -1.536870639286     0.000042053910     1.007825032230
         H           -4.076757881141    -0.040473639286    -0.883336946090     1.007825032230

  Basis Set: AUG-CC-PVTZ
    Blend: AUG-CC-PVTZ
  Basis Set: (AUG-CC-PVTZ AUX)
    Blend: AUG-CC-PVTZ-JKFIT
	 Reference Energy          =    -401.7581974031238019 [Eh]
	 Singles Energy            =      -0.0000000000000000 [Eh]
	 Same-Spin Energy          =      -0.4462792917396177 [Eh]
	 Opposite-Spin Energy      =      -1.4339436941528478 [Eh]
	 Correlation Energy        =      -1.8802229858924655 [Eh]
	 Total Energy              =    -403.6384203890162894 [Eh]

	 ================> DF-SCS-MP2 Energies <==================
	-----------------------------------------------------------
	 SCS Same-Spin Scale       =       0.3333333333333333 [-]
	 SCS Opposite-Spin Scale   =       1.2000000000000000 [-]
	 SCS Same-Spin Energy      =      -0.1487597639132059 [Eh]
	 SCS Opposite-Spin Energy  =      -1.7207324329834173 [Eh]
	 SCS Correlation Energy    =      -1.8694921968966232 [Eh]
	 SCS Total Energy          =    -403.6276896000204033 [Eh]
	-----------------------------------------------------------

  Dipole Moment: [D]
     X:    -1.4009      Y:     1.4035      Z:    -0.0000     Total:     1.9830

*** Psi4 exiting successfully. Buy a developer a beer!
