                               Psi4 1.4a3.dev225

  ==> Input File <==

--------------------------------------------------------------------------
#psi4
#
memory 32 gb

molecule  {
0 1
  N        0.1871790    -0.9111820    -0.0000020
  C        2.0846610     0.5733200    -0.0000030
  C        2.9631220    -0.4040200    -0.7474220
  C        2.9631210    -0.4040120     0.7474270
  C        0.6178930     0.3663440    -0.0000030
  C       -0.2568336     1.3021064    -0.0000019
  C       -1.6439530     1.1986260     0.0000010
  C       -2.1086100    -0.1215530     0.0000030
  C       -1.1379910    -1.1285870     0.0000010
  C       -3.5774520    -0.4452540     0.0000000
  H        2.4036780     1.6130560    -0.0000090
  H        3.8277670    -0.0076600    -1.2704010
  H        2.4452750    -1.2187140    -1.2419740
  H        2.4452760    -1.2187020     1.2419880
  H        3.8277650    -0.0076460     1.2704030
  H        0.1039660     2.4659580    -0.0000030
  H       -2.3510000     2.0273860     0.0000010
  H       -1.4419230    -2.1762520     0.0000020
  H       -4.0731050    -0.0303320     0.8832920
  H       -3.7381210    -1.5268000     0.0000420
  H       -4.0730850    -0.0304030    -0.8833370
units angstrom
no_reorient  #important for SAPT in psi4, default
symmetry c1  #important for SAPT in psi4, default
}

set PROPERTIES_ORIGIN ["COM"]
properties('MP2/aug-cc-pvtz', properties = ['dipole'])
--------------------------------------------------------------------------

    Molecular point group: c1
  Charge       = 0
  Multiplicity = 1
  Basis Set: AUG-CC-PVTZ
    Blend: AUG-CC-PVTZ
  Basis Set: (AUG-CC-PVTZ AUX)
    Blend: AUG-CC-PVTZ-JKFIT

    Orbital Energies [Eh]
    ---------------------

    Doubly Occupied:

       1A    -15.556465     2A    -11.268234     3A    -11.257643
       4A    -11.253631     5A    -11.242463     6A    -11.230590
       7A    -11.230545     8A    -11.230445     9A    -11.220104
      10A    -11.219411    11A     -1.260961    12A     -1.140332
      13A     -1.093445    14A     -1.053735    15A     -0.956401
      16A     -0.872552    17A     -0.835349    18A     -0.813837
      19A     -0.787196    20A     -0.702031    21A     -0.677634
      22A     -0.637999    23A     -0.612159    24A     -0.596603
      25A     -0.587075    26A     -0.572588    27A     -0.548867
      28A     -0.543802    29A     -0.525196    30A     -0.504670
      31A     -0.480848    32A     -0.429531    33A     -0.421972
      34A     -0.408756    35A     -0.371060    36A     -0.324385

  @DF-RHF Final Energy:  -401.74586598410502

   => Energetics <=

    Nuclear Repulsion Energy =            491.7668016157282409
    One-Electron Energy =               -1518.0883086900857961
    Two-Electron Energy =                 624.5756410902527023
    Total Energy =                       -401.7458659841049666
  Basis Set: (AUG-CC-PVTZ AUX)
    Blend: AUG-CC-PVTZ-RI
    Molecular point group: c1

    Geometry (in Angstrom), charge = 0, multiplicity = 1:

       Center              X                  Y                   Z               Mass
    ------------   -----------------  -----------------  -----------------  -----------------
         N            0.180866056903    -0.898959555182    -0.000002009205    14.003074004430
         C            2.078348056903     0.585542444818    -0.000003009205    12.000000000000
         C            2.956809056903    -0.391797555182    -0.747422009205    12.000000000000
         C            2.956808056903    -0.391789555182     0.747426990795    12.000000000000
         C            0.611580056903     0.378566444818    -0.000003009205    12.000000000000
         C           -0.263146543097     1.314328844818    -0.000001909205    12.000000000000
         C           -1.650265943097     1.210848444818     0.000000990795    12.000000000000
         C           -2.114922943097    -0.109330555182     0.000002990795    12.000000000000
         C           -1.144303943097    -1.116364555182     0.000000990795    12.000000000000
         C           -3.583764943097    -0.433031555182    -0.000000009205    12.000000000000
         H            2.397365056903     1.625278444818    -0.000009009205     1.007825032230
         H            3.821454056903     0.004562444818    -1.270401009205     1.007825032230
         H            2.438962056903    -1.206491555182    -1.241974009205     1.007825032230
         H            2.438963056903    -1.206479555182     1.241987990795     1.007825032230
         H            3.821452056903     0.004576444818     1.270402990795     1.007825032230
         H            0.097653056903     2.478180444818    -0.000003009205     1.007825032230
         H           -2.357312943097     2.039608444818     0.000000990795     1.007825032230
         H           -1.448235943097    -2.164029555182     0.000001990795     1.007825032230
         H           -4.079417943097    -0.018109555182     0.883291990795     1.007825032230
         H           -3.744433943097    -1.514577555182     0.000041990795     1.007825032230
         H           -4.079397943097    -0.018180555182    -0.883337009205     1.007825032230

  Basis Set: AUG-CC-PVTZ
    Blend: AUG-CC-PVTZ
  Basis Set: (AUG-CC-PVTZ AUX)
    Blend: AUG-CC-PVTZ-JKFIT
	 Reference Energy          =    -401.7458659841050235 [Eh]
	 Singles Energy            =      -0.0000000000000000 [Eh]
	 Same-Spin Energy          =      -0.4467151518826286 [Eh]
	 Opposite-Spin Energy      =      -1.4330788147370035 [Eh]
	 Correlation Energy        =      -1.8797939666196322 [Eh]
	 Total Energy              =    -403.6256599507246392 [Eh]

	 ================> DF-SCS-MP2 Energies <==================
	-----------------------------------------------------------
	 SCS Same-Spin Scale       =       0.3333333333333333 [-]
	 SCS Opposite-Spin Scale   =       1.2000000000000000 [-]
	 SCS Same-Spin Energy      =      -0.1489050506275428 [Eh]
	 SCS Opposite-Spin Energy  =      -1.7196945776844041 [Eh]
	 SCS Correlation Energy    =      -1.8685996283119470 [Eh]
	 SCS Total Energy          =    -403.6144656124169501 [Eh]
	-----------------------------------------------------------

  Dipole Moment: [D]
     X:    -1.4983      Y:     1.3310      Z:    -0.0000     Total:     2.0041

*** Psi4 exiting successfully. Buy a developer a beer!
