                               Psi4 1.4a3.dev225

  ==> Input File <==

--------------------------------------------------------------------------
#psi4
#
memory 32 gb

molecule  {
0 1
  N        0.1871790    -0.9111820    -0.0000020
  C        2.0846610     0.5733200    -0.0000030
  C        2.9631220    -0.4040200    -0.7474220
  C        2.9631210    -0.4040120     0.7474270
  C        0.6674025     0.3733303    -0.0000030
  C       -0.2752490     1.4465330    -0.0000020
  C       -1.6439530     1.1986260     0.0000010
  C       -2.1086100    -0.1215530     0.0000030
  C       -1.1379910    -1.1285870     0.0000010
  C       -3.5774520    -0.4452540     0.0000000
  H        2.4036780     1.6130560    -0.0000090
  H        3.8277670    -0.0076600    -1.2704010
  H        2.4452750    -1.2187140    -1.2419740
  H        2.4452760    -1.2187020     1.2419880
  H        3.8277650    -0.0076460     1.2704030
  H        0.1039660     2.4659580    -0.0000030
  H       -2.3510000     2.0273860     0.0000010
  H       -1.4419230    -2.1762520     0.0000020
  H       -4.0731050    -0.0303320     0.8832920
  H       -3.7381210    -1.5268000     0.0000420
  H       -4.0730850    -0.0304030    -0.8833370
units angstrom
no_reorient  #important for SAPT in psi4, default
symmetry c1  #important for SAPT in psi4, default
}

set PROPERTIES_ORIGIN ["COM"]
properties('MP2/aug-cc-pvtz', properties = ['dipole'])
--------------------------------------------------------------------------

    Molecular point group: c1
  Charge       = 0
  Multiplicity = 1
  Basis Set: AUG-CC-PVTZ
    Blend: AUG-CC-PVTZ
  Basis Set: (AUG-CC-PVTZ AUX)
    Blend: AUG-CC-PVTZ-JKFIT

    Orbital Energies [Eh]
    ---------------------

    Doubly Occupied:

       1A    -15.554973     2A    -11.279435     3A    -11.266326
       4A    -11.250185     5A    -11.237928     6A    -11.235566
       7A    -11.231657     8A    -11.228173     9A    -11.224946
      10A    -11.224262    11A     -1.243290    12A     -1.146601
      13A     -1.088058    14A     -1.039017    15A     -0.953263
      16A     -0.869967    17A     -0.839610    18A     -0.818190
      19A     -0.780611    20A     -0.702889    21A     -0.666726
      22A     -0.637529    23A     -0.625162    24A     -0.601497
      25A     -0.582137    26A     -0.563215    27A     -0.548301
      28A     -0.533884    29A     -0.530305    30A     -0.505442
      31A     -0.504490    32A     -0.434324    33A     -0.429267
      34A     -0.401283    35A     -0.369915    36A     -0.306894

  @DF-RHF Final Energy:  -401.76830462095597

   => Energetics <=

    Nuclear Repulsion Energy =            488.7521657060904658
    One-Electron Energy =               -1512.1303024588132757
    Two-Electron Energy =                 621.6098321317668933
    Total Energy =                       -401.7683046209559734
  Basis Set: (AUG-CC-PVTZ AUX)
    Blend: AUG-CC-PVTZ-RI
    Molecular point group: c1

    Geometry (in Angstrom), charge = 0, multiplicity = 1:

       Center              X                  Y                   Z               Mass
    ------------   -----------------  -----------------  -----------------  -----------------
         N            0.178062453440    -0.912611718478    -0.000002000189    14.003074004430
         C            2.075544453440     0.571890281522    -0.000003000189    12.000000000000
         C            2.954005453440    -0.405449718478    -0.747422000189    12.000000000000
         C            2.954004453440    -0.405441718478     0.747426999811    12.000000000000
         C            0.658285953440     0.371900581522    -0.000003000189    12.000000000000
         C           -0.284365546560     1.445103281522    -0.000002000189    12.000000000000
         C           -1.653069546560     1.197196281522     0.000000999811    12.000000000000
         C           -2.117726546560    -0.122982718478     0.000002999811    12.000000000000
         C           -1.147107546560    -1.130016718478     0.000000999811    12.000000000000
         C           -3.586568546560    -0.446683718478    -0.000000000189    12.000000000000
         H            2.394561453440     1.611626281522    -0.000009000189     1.007825032230
         H            3.818650453440    -0.009089718478    -1.270401000189     1.007825032230
         H            2.436158453440    -1.220143718478    -1.241974000189     1.007825032230
         H            2.436159453440    -1.220131718478     1.241987999811     1.007825032230
         H            3.818648453440    -0.009075718478     1.270402999811     1.007825032230
         H            0.094849453440     2.464528281522    -0.000003000189     1.007825032230
         H           -2.360116546560     2.025956281522     0.000000999811     1.007825032230
         H           -1.451039546560    -2.177681718478     0.000001999811     1.007825032230
         H           -4.082221546560    -0.031761718478     0.883291999811     1.007825032230
         H           -3.747237546560    -1.528229718478     0.000041999811     1.007825032230
         H           -4.082201546560    -0.031832718478    -0.883337000189     1.007825032230

  Basis Set: AUG-CC-PVTZ
    Blend: AUG-CC-PVTZ
  Basis Set: (AUG-CC-PVTZ AUX)
    Blend: AUG-CC-PVTZ-JKFIT
	 Reference Energy          =    -401.7683046209559734 [Eh]
	 Singles Energy            =      -0.0000000000000000 [Eh]
	 Same-Spin Energy          =      -0.4468458988151499 [Eh]
	 Opposite-Spin Energy      =      -1.4330336775918882 [Eh]
	 Correlation Energy        =      -1.8798795764070380 [Eh]
	 Total Energy              =    -403.6481841973630367 [Eh]

	 ================> DF-SCS-MP2 Energies <==================
	-----------------------------------------------------------
	 SCS Same-Spin Scale       =       0.3333333333333333 [-]
	 SCS Opposite-Spin Scale   =       1.2000000000000000 [-]
	 SCS Same-Spin Energy      =      -0.1489486329383833 [Eh]
	 SCS Opposite-Spin Energy  =      -1.7196404131102658 [Eh]
	 SCS Correlation Energy    =      -1.8685890460486492 [Eh]
	 SCS Total Energy          =    -403.6368936670046423 [Eh]
	-----------------------------------------------------------

  Dipole Moment: [D]
     X:    -1.0631      Y:     1.4459      Z:    -0.0000     Total:     1.7946

*** Psi4 exiting successfully. Buy a developer a beer!
