                               Psi4 1.4a3.dev225

  ==> Input File <==

--------------------------------------------------------------------------
#psi4
#
memory 32 gb

molecule  {
0 1
  N        0.1871790    -0.9111820    -0.0000020
  C        2.0846610     0.5733200    -0.0000030
  C        2.9631220    -0.4040200    -0.7474220
  C        2.9631210    -0.4040120     0.7474270
  C        0.5683835     0.3593577    -0.0000030
  C       -0.2752490     1.4465330    -0.0000020
  C       -1.6439530     1.1986260     0.0000010
  C       -2.1086100    -0.1215530     0.0000030
  C       -1.1379910    -1.1285870     0.0000010
  C       -3.5774520    -0.4452540     0.0000000
  H        2.4036780     1.6130560    -0.0000090
  H        3.8277670    -0.0076600    -1.2704010
  H        2.4452750    -1.2187140    -1.2419740
  H        2.4452760    -1.2187020     1.2419880
  H        3.8277650    -0.0076460     1.2704030
  H        0.1039660     2.4659580    -0.0000030
  H       -2.3510000     2.0273860     0.0000010
  H       -1.4419230    -2.1762520     0.0000020
  H       -4.0731050    -0.0303320     0.8832920
  H       -3.7381210    -1.5268000     0.0000420
  H       -4.0730850    -0.0304030    -0.8833370
units angstrom
no_reorient  #important for SAPT in psi4, default
symmetry c1  #important for SAPT in psi4, default
}

set PROPERTIES_ORIGIN ["COM"]
properties('MP2/aug-cc-pvtz', properties = ['dipole'])
--------------------------------------------------------------------------

    Molecular point group: c1
  Charge       = 0
  Multiplicity = 1
  Basis Set: AUG-CC-PVTZ
    Blend: AUG-CC-PVTZ
  Basis Set: (AUG-CC-PVTZ AUX)
    Blend: AUG-CC-PVTZ-JKFIT

    Orbital Energies [Eh]
    ---------------------

    Doubly Occupied:

       1A    -15.556401     2A    -11.273205     3A    -11.269202
       4A    -11.253179     5A    -11.240625     6A    -11.232145
       7A    -11.230659     8A    -11.230237     9A    -11.218499
      10A    -11.217804    11A     -1.259702    12A     -1.135596
      13A     -1.095268    14A     -1.046070    15A     -0.949456
      16A     -0.867352    17A     -0.838330    18A     -0.811925
      19A     -0.781378    20A     -0.700056    21A     -0.667505
      22A     -0.640572    23A     -0.627652    24A     -0.598790
      25A     -0.585322    26A     -0.565980    27A     -0.550789
      28A     -0.538015    29A     -0.527416    30A     -0.502671
      31A     -0.490814    32A     -0.427303    33A     -0.424726
      34A     -0.408014    35A     -0.375028    36A     -0.318051

  @DF-RHF Final Energy:  -401.77239754694335

   => Energetics <=

    Nuclear Repulsion Energy =            489.3237952219359386
    One-Electron Energy =               -1513.2809124362704551
    Two-Electron Energy =                 622.1847196673911640
    Total Energy =                       -401.7723975469433526
  Basis Set: (AUG-CC-PVTZ AUX)
    Blend: AUG-CC-PVTZ-RI
    Molecular point group: c1

    Geometry (in Angstrom), charge = 0, multiplicity = 1:

       Center              X                  Y                   Z               Mass
    ------------   -----------------  -----------------  -----------------  -----------------
         N            0.186990514110    -0.911351877230    -0.000002000189    14.003074004430
         C            2.084472514110     0.573150122770    -0.000003000189    12.000000000000
         C            2.962933514110    -0.404189877230    -0.747422000189    12.000000000000
         C            2.962932514110    -0.404181877230     0.747426999811    12.000000000000
         C            0.568195014110     0.359187822770    -0.000003000189    12.000000000000
         C           -0.275437485890     1.446363122770    -0.000002000189    12.000000000000
         C           -1.644141485890     1.198456122770     0.000000999811    12.000000000000
         C           -2.108798485890    -0.121722877230     0.000002999811    12.000000000000
         C           -1.138179485890    -1.128756877230     0.000000999811    12.000000000000
         C           -3.577640485890    -0.445423877230    -0.000000000189    12.000000000000
         H            2.403489514110     1.612886122770    -0.000009000189     1.007825032230
         H            3.827578514110    -0.007829877230    -1.270401000189     1.007825032230
         H            2.445086514110    -1.218883877230    -1.241974000189     1.007825032230
         H            2.445087514110    -1.218871877230     1.241987999811     1.007825032230
         H            3.827576514110    -0.007815877230     1.270402999811     1.007825032230
         H            0.103777514110     2.465788122770    -0.000003000189     1.007825032230
         H           -2.351188485890     2.027216122770     0.000000999811     1.007825032230
         H           -1.442111485890    -2.176421877230     0.000001999811     1.007825032230
         H           -4.073293485890    -0.030501877230     0.883291999811     1.007825032230
         H           -3.738309485890    -1.526969877230     0.000041999811     1.007825032230
         H           -4.073273485890    -0.030572877230    -0.883337000189     1.007825032230

  Basis Set: AUG-CC-PVTZ
    Blend: AUG-CC-PVTZ
  Basis Set: (AUG-CC-PVTZ AUX)
    Blend: AUG-CC-PVTZ-JKFIT
	 Reference Energy          =    -401.7723975469433526 [Eh]
	 Singles Energy            =      -0.0000000000000000 [Eh]
	 Same-Spin Energy          =      -0.4453629627490016 [Eh]
	 Opposite-Spin Energy      =      -1.4308351958512886 [Eh]
	 Correlation Energy        =      -1.8761981586002903 [Eh]
	 Total Energy              =    -403.6485957055436415 [Eh]

	 ================> DF-SCS-MP2 Energies <==================
	-----------------------------------------------------------
	 SCS Same-Spin Scale       =       0.3333333333333333 [-]
	 SCS Opposite-Spin Scale   =       1.2000000000000000 [-]
	 SCS Same-Spin Energy      =      -0.1484543209163338 [Eh]
	 SCS Opposite-Spin Energy  =      -1.7170022350215464 [Eh]
	 SCS Correlation Energy    =      -1.8654565559378802 [Eh]
	 SCS Total Energy          =    -403.6378541028812492 [Eh]
	-----------------------------------------------------------

  Dipole Moment: [D]
     X:    -1.5497      Y:     1.4628      Z:    -0.0000     Total:     2.1310

*** Psi4 exiting successfully. Buy a developer a beer!
