                               Psi4 1.4a3.dev225

  ==> Input File <==

--------------------------------------------------------------------------
#psi4
#
memory 32 gb

molecule  {
0 1
  N        0.1871790    -0.9111820    -0.0000020
  C        2.0846610     0.5733200    -0.0000030
  C        2.9631220    -0.4040200    -0.7474220
  C        2.9631210    -0.4040120     0.7474270
  C        0.6178930     0.3663440    -0.0000030
  C       -0.2752490     1.4465330    -0.0000020
  C       -1.6439530     1.1986260     0.0000010
  C       -2.1086100    -0.1215530     0.0000030
  C       -1.1379910    -1.1285870     0.0000010
  C       -3.5774520    -0.4452540     0.0000000
  H        2.4036780     1.6130560    -0.0000090
  H        3.8277670    -0.0076600    -1.2704010
  H        2.4452750    -1.2187140    -1.2419740
  H        2.4452760    -1.2187020     1.2419880
  H        3.8277650    -0.0076460     1.2704030
  H        0.1039660     2.4659580    -0.0000030
  H       -2.3510000     2.0273860     0.0000010
  H       -1.4419230    -2.1762520     0.0000020
  H       -4.0504631    -0.0492860     0.8429424
  H       -3.7381210    -1.5268000     0.0000420
  H       -4.0730850    -0.0304030    -0.8833370
units angstrom
no_reorient  #important for SAPT in psi4, default
symmetry c1  #important for SAPT in psi4, default
}

set PROPERTIES_ORIGIN ["COM"]
properties('MP2/aug-cc-pvtz', properties = ['dipole'])
--------------------------------------------------------------------------

    Molecular point group: c1
  Charge       = 0
  Multiplicity = 1
  Basis Set: AUG-CC-PVTZ
    Blend: AUG-CC-PVTZ
  Basis Set: (AUG-CC-PVTZ AUX)
    Blend: AUG-CC-PVTZ-JKFIT

    Orbital Energies [Eh]
    ---------------------

    Doubly Occupied:

       1A    -15.555542     2A    -11.275927     3A    -11.267460
       4A    -11.251530     5A    -11.239053     6A    -11.233665
       7A    -11.231258     8A    -11.223148     9A    -11.221443
      10A    -11.220751    11A     -1.251005    12A     -1.140746
      13A     -1.091977    14A     -1.042812    15A     -0.954238
      16A     -0.867868    17A     -0.840711    18A     -0.814813
      19A     -0.781364    20A     -0.701149    21A     -0.666612
      22A     -0.639563    23A     -0.626097    24A     -0.600850
      25A     -0.589702    26A     -0.564477    27A     -0.551682
      28A     -0.536241    29A     -0.527830    30A     -0.504182
      31A     -0.498634    32A     -0.429537    33A     -0.427140
      34A     -0.406225    35A     -0.372389    36A     -0.312722

  @DF-RHF Final Energy:  -401.77271285030224

   => Energetics <=

    Nuclear Repulsion Energy =            489.2414468184133511
    One-Electron Energy =               -1513.1076354100243861
    Two-Electron Energy =                 622.0934757413087937
    Total Energy =                       -401.7727128503022413
  Basis Set: (AUG-CC-PVTZ AUX)
    Blend: AUG-CC-PVTZ-RI
    Molecular point group: c1

    Geometry (in Angstrom), charge = 0, multiplicity = 1:

       Center              X                  Y                   Z               Mass
    ------------   -----------------  -----------------  -----------------  -----------------
         N            0.182355026720    -0.911838267628     0.000303549415    14.003074004430
         C            2.079837026720     0.572663732372     0.000302549415    12.000000000000
         C            2.958298026720    -0.404676267628    -0.747116450585    12.000000000000
         C            2.958297026720    -0.404668267628     0.747732549415    12.000000000000
         C            0.613069026720     0.365687732372     0.000302549415    12.000000000000
         C           -0.280072973280     1.445876732372     0.000303549415    12.000000000000
         C           -1.648776973280     1.197969732372     0.000306549415    12.000000000000
         C           -2.113433973280    -0.122209267628     0.000308549415    12.000000000000
         C           -1.142814973280    -1.129243267628     0.000306549415    12.000000000000
         C           -3.582275973280    -0.445910267628     0.000305549415    12.000000000000
         H            2.398854026720     1.612399732372     0.000296549415     1.007825032230
         H            3.822943026720    -0.008316267628    -1.270095450585     1.007825032230
         H            2.440451026720    -1.219370267628    -1.241668450585     1.007825032230
         H            2.440452026720    -1.219358267628     1.242293549415     1.007825032230
         H            3.822941026720    -0.008302267628     1.270708549415     1.007825032230
         H            0.099142026720     2.465301732372     0.000302549415     1.007825032230
         H           -2.355823973280     2.026729732372     0.000306549415     1.007825032230
         H           -1.446746973280    -2.176908267628     0.000307549415     1.007825032230
         H           -4.055287073280    -0.049942267628     0.843247949415     1.007825032230
         H           -3.742944973280    -1.527456267628     0.000347549415     1.007825032230
         H           -4.077908973280    -0.031059267628    -0.883031450585     1.007825032230

  Basis Set: AUG-CC-PVTZ
    Blend: AUG-CC-PVTZ
  Basis Set: (AUG-CC-PVTZ AUX)
    Blend: AUG-CC-PVTZ-JKFIT
	 Reference Energy          =    -401.7727128503022413 [Eh]
	 Singles Energy            =      -0.0000000000000000 [Eh]
	 Same-Spin Energy          =      -0.4459705225492989 [Eh]
	 Opposite-Spin Energy      =      -1.4314062543260415 [Eh]
	 Correlation Energy        =      -1.8773767768753404 [Eh]
	 Total Energy              =    -403.6500896271775787 [Eh]

	 ================> DF-SCS-MP2 Energies <==================
	-----------------------------------------------------------
	 SCS Same-Spin Scale       =       0.3333333333333333 [-]
	 SCS Opposite-Spin Scale   =       1.2000000000000000 [-]
	 SCS Same-Spin Energy      =      -0.1486568408497663 [Eh]
	 SCS Opposite-Spin Energy  =      -1.7176875051912497 [Eh]
	 SCS Correlation Energy    =      -1.8663443460410161 [Eh]
	 SCS Total Energy          =    -403.6390571963432308 [Eh]
	-----------------------------------------------------------

  Dipole Moment: [D]
     X:    -1.3356      Y:     1.4590      Z:     0.0127     Total:     1.9780

*** Psi4 exiting successfully. Buy a developer a beer!
