                               Psi4 1.4a3.dev225

  ==> Input File <==

--------------------------------------------------------------------------
#psi4
#
memory 32 gb

molecule  {
0 1
  N        0.1871790    -0.9111820    -0.0000020
  C        2.0846610     0.5733200    -0.0000030
  C        2.9631220    -0.4040200    -0.7474220
  C        2.9631210    -0.4040120     0.7474270
  C        0.6178930     0.3663440    -0.0000030
  C       -0.2752490     1.4465330    -0.0000020
  C       -1.6439530     1.1986260     0.0000010
  C       -2.1086100    -0.1215530     0.0000030
  C       -1.1379910    -1.1285870     0.0000010
  C       -3.5774520    -0.4452540     0.0000000
  H        2.4036780     1.6130560    -0.0000090
  H        3.8277670    -0.0076600    -1.2704010
  H        2.4548236    -1.2036918    -1.2328549
  H        2.4452760    -1.2187020     1.2419880
  H        3.8277650    -0.0076460     1.2704030
  H        0.1039660     2.4659580    -0.0000030
  H       -2.3510000     2.0273860     0.0000010
  H       -1.4419230    -2.1762520     0.0000020
  H       -4.0731050    -0.0303320     0.8832920
  H       -3.7381210    -1.5268000     0.0000420
  H       -4.0730850    -0.0304030    -0.8833370
units angstrom
no_reorient  #important for SAPT in psi4, default
symmetry c1  #important for SAPT in psi4, default
}

set PROPERTIES_ORIGIN ["COM"]
properties('MP2/aug-cc-pvtz', properties = ['dipole'])
--------------------------------------------------------------------------

    Molecular point group: c1
  Charge       = 0
  Multiplicity = 1
  Basis Set: AUG-CC-PVTZ
    Blend: AUG-CC-PVTZ
  Basis Set: (AUG-CC-PVTZ AUX)
    Blend: AUG-CC-PVTZ-JKFIT

    Orbital Energies [Eh]
    ---------------------

    Doubly Occupied:

       1A    -15.555706     2A    -11.276125     3A    -11.267749
       4A    -11.251682     5A    -11.239389     6A    -11.233778
       7A    -11.231256     8A    -11.229254     9A    -11.221149
      10A    -11.218963    11A     -1.251195    12A     -1.141074
      13A     -1.091594    14A     -1.042471    15A     -0.951060
      16A     -0.867447    17A     -0.840130    18A     -0.816770
      19A     -0.781596    20A     -0.701544    21A     -0.667116
      22A     -0.639326    23A     -0.626148    24A     -0.601692
      25A     -0.583711    26A     -0.564660    27A     -0.549484
      28A     -0.535479    29A     -0.528498    30A     -0.505791
      31A     -0.498937    32A     -0.429593    33A     -0.427274
      34A     -0.406317    35A     -0.372458    36A     -0.312669

  @DF-RHF Final Energy:  -401.77380955949332

   => Energetics <=

    Nuclear Repulsion Energy =            489.0995749571666238
    One-Electron Energy =               -1512.8285999401205117
    Two-Electron Energy =                 621.9552154234605723
    Total Energy =                       -401.7738095594933156
  Basis Set: (AUG-CC-PVTZ AUX)
    Blend: AUG-CC-PVTZ-RI
    Molecular point group: c1

    Geometry (in Angstrom), charge = 0, multiplicity = 1:

       Center              X                  Y                   Z               Mass
    ------------   -----------------  -----------------  -----------------  -----------------
         N            0.182454176468    -0.912095554304    -0.000071055084    14.003074004430
         C            2.079936176468     0.572406445696    -0.000072055084    12.000000000000
         C            2.958397176468    -0.404933554304    -0.747491055084    12.000000000000
         C            2.958396176468    -0.404925554304     0.747357944916    12.000000000000
         C            0.613168176468     0.365430445696    -0.000072055084    12.000000000000
         C           -0.279973823532     1.445619445696    -0.000071055084    12.000000000000
         C           -1.648677823532     1.197712445696    -0.000068055084    12.000000000000
         C           -2.113334823532    -0.122466554304    -0.000066055084    12.000000000000
         C           -1.142715823532    -1.129500554304    -0.000068055084    12.000000000000
         C           -3.582176823532    -0.446167554304    -0.000069055084    12.000000000000
         H            2.398953176468     1.612142445696    -0.000078055084     1.007825032230
         H            3.823042176468    -0.008573554304    -1.270470055084     1.007825032230
         H            2.450098776468    -1.204605354304    -1.232923955084     1.007825032230
         H            2.440551176468    -1.219615554304     1.241918944916     1.007825032230
         H            3.823040176468    -0.008559554304     1.270333944916     1.007825032230
         H            0.099241176468     2.465044445696    -0.000072055084     1.007825032230
         H           -2.355724823532     2.026472445696    -0.000068055084     1.007825032230
         H           -1.446647823532    -2.177165554304    -0.000067055084     1.007825032230
         H           -4.077829823532    -0.031245554304     0.883222944916     1.007825032230
         H           -3.742845823532    -1.527713554304    -0.000027055084     1.007825032230
         H           -4.077809823532    -0.031316554304    -0.883406055084     1.007825032230

  Basis Set: AUG-CC-PVTZ
    Blend: AUG-CC-PVTZ
  Basis Set: (AUG-CC-PVTZ AUX)
    Blend: AUG-CC-PVTZ-JKFIT
	 Reference Energy          =    -401.7738095594933156 [Eh]
	 Singles Energy            =      -0.0000000000000000 [Eh]
	 Same-Spin Energy          =      -0.4459158245629709 [Eh]
	 Opposite-Spin Energy      =      -1.4315256428184180 [Eh]
	 Correlation Energy        =      -1.8774414673813888 [Eh]
	 Total Energy              =    -403.6512510268747178 [Eh]

	 ================> DF-SCS-MP2 Energies <==================
	-----------------------------------------------------------
	 SCS Same-Spin Scale       =       0.3333333333333333 [-]
	 SCS Opposite-Spin Scale   =       1.2000000000000000 [-]
	 SCS Same-Spin Energy      =      -0.1486386081876570 [Eh]
	 SCS Opposite-Spin Energy  =      -1.7178307713821015 [Eh]
	 SCS Correlation Energy    =      -1.8664693795697584 [Eh]
	 SCS Total Energy          =    -403.6402789390630801 [Eh]
	-----------------------------------------------------------

  Dipole Moment: [D]
     X:    -1.3114      Y:     1.4538      Z:    -0.0042     Total:     1.9579

*** Psi4 exiting successfully. Buy a developer a beer!
