                               Psi4 1.4a3.dev225

  ==> Input File <==

--------------------------------------------------------------------------
#psi4
#
memory 32 gb

molecule  {
0 1
  N        0.1871790    -0.9111820    -0.0000020
  C        2.0846610     0.5733200    -0.0000030
  C        2.9631220    -0.4040200    -0.7474220
  C        2.9631210    -0.4040120     0.7474270
  C        0.6178930     0.3663440    -0.0000030
  C       -0.2752490     1.4465330    -0.0000020
  C       -1.6439530     1.1986260     0.0000010
  C       -2.1151681    -0.0960514    -0.0454161
  C       -1.1379910    -1.1285870     0.0000010
  C       -3.5774520    -0.4452540     0.0000000
  H        2.4036780     1.6130560    -0.0000090
  H        3.8277670    -0.0076600    -1.2704010
  H        2.4452750    -1.2187140    -1.2419740
  H        2.4452760    -1.2187020     1.2419880
  H        3.8277650    -0.0076460     1.2704030
  H        0.1039660     2.4659580    -0.0000030
  H       -2.3510000     2.0273860     0.0000010
  H       -1.4419230    -2.1762520     0.0000020
  H       -4.0731050    -0.0303320     0.8832920
  H       -3.7381210    -1.5268000     0.0000420
  H       -4.0730850    -0.0304030    -0.8833370
units angstrom
no_reorient  #important for SAPT in psi4, default
symmetry c1  #important for SAPT in psi4, default
}

set PROPERTIES_ORIGIN ["COM"]
properties('MP2/aug-cc-pvtz', properties = ['dipole'])
--------------------------------------------------------------------------

    Molecular point group: c1
  Charge       = 0
  Multiplicity = 1
  Basis Set: AUG-CC-PVTZ
    Blend: AUG-CC-PVTZ
  Basis Set: (AUG-CC-PVTZ AUX)
    Blend: AUG-CC-PVTZ-JKFIT

    Orbital Energies [Eh]
    ---------------------

    Doubly Occupied:

       1A    -15.556704     2A    -11.275422     3A    -11.271655
       4A    -11.248712     5A    -11.240057     6A    -11.233074
       7A    -11.231085     8A    -11.229508     9A    -11.221271
      10A    -11.220577    11A     -1.251185    12A     -1.140532
      13A     -1.094039    14A     -1.040805    15A     -0.951264
      16A     -0.864329    17A     -0.842807    18A     -0.814710
      19A     -0.780253    20A     -0.700628    21A     -0.667359
      22A     -0.638898    23A     -0.626573    24A     -0.600725
      25A     -0.583976    26A     -0.563151    27A     -0.546895
      28A     -0.535607    29A     -0.530915    30A     -0.504004
      31A     -0.501035    32A     -0.429216    33A     -0.426813
      34A     -0.405355    35A     -0.374418    36A     -0.310778

  @DF-RHF Final Energy:  -401.77203270814579

   => Energetics <=

    Nuclear Repulsion Energy =            488.9587169643739912
    One-Electron Energy =               -1512.5528321867716386
    Two-Electron Energy =                 621.8220825142518606
    Total Energy =                       -401.7720327081458436
  Basis Set: (AUG-CC-PVTZ AUX)
    Blend: AUG-CC-PVTZ-RI
    Molecular point group: c1

    Geometry (in Angstrom), charge = 0, multiplicity = 1:

       Center              X                  Y                   Z               Mass
    ------------   -----------------  -----------------  -----------------  -----------------
         N            0.183117795692    -0.914281152846     0.004093218712    14.003074004430
         C            2.080599795692     0.570220847154     0.004092218712    12.000000000000
         C            2.959060795692    -0.407119152846    -0.743326781288    12.000000000000
         C            2.959059795692    -0.407111152846     0.751522218712    12.000000000000
         C            0.613831795692     0.363244847154     0.004092218712    12.000000000000
         C           -0.279310204308     1.443433847154     0.004093218712    12.000000000000
         C           -1.648014204308     1.195526847154     0.004096218712    12.000000000000
         C           -2.119229304308    -0.099150552846    -0.041320881288    12.000000000000
         C           -1.142052204308    -1.131686152846     0.004096218712    12.000000000000
         C           -3.581513204308    -0.448353152846     0.004095218712    12.000000000000
         H            2.399616795692     1.609956847154     0.004086218712     1.007825032230
         H            3.823705795692    -0.010759152846    -1.266305781288     1.007825032230
         H            2.441213795692    -1.221813152846    -1.237878781288     1.007825032230
         H            2.441214795692    -1.221801152846     1.246083218712     1.007825032230
         H            3.823703795692    -0.010745152846     1.274498218712     1.007825032230
         H            0.099904795692     2.462858847154     0.004092218712     1.007825032230
         H           -2.355061204308     2.024286847154     0.004096218712     1.007825032230
         H           -1.445984204308    -2.179351152846     0.004097218712     1.007825032230
         H           -4.077166204308    -0.033431152846     0.887387218712     1.007825032230
         H           -3.742182204308    -1.529899152846     0.004137218712     1.007825032230
         H           -4.077146204308    -0.033502152846    -0.879241781288     1.007825032230

  Basis Set: AUG-CC-PVTZ
    Blend: AUG-CC-PVTZ
  Basis Set: (AUG-CC-PVTZ AUX)
    Blend: AUG-CC-PVTZ-JKFIT
	 Reference Energy          =    -401.7720327081457867 [Eh]
	 Singles Energy            =      -0.0000000000000000 [Eh]
	 Same-Spin Energy          =      -0.4460360125400900 [Eh]
	 Opposite-Spin Energy      =      -1.4318227691759255 [Eh]
	 Correlation Energy        =      -1.8778587817160155 [Eh]
	 Total Energy              =    -403.6498914898618295 [Eh]

	 ================> DF-SCS-MP2 Energies <==================
	-----------------------------------------------------------
	 SCS Same-Spin Scale       =       0.3333333333333333 [-]
	 SCS Opposite-Spin Scale   =       1.2000000000000000 [-]
	 SCS Same-Spin Energy      =      -0.1486786708466967 [Eh]
	 SCS Opposite-Spin Energy  =      -1.7181873230111107 [Eh]
	 SCS Correlation Energy    =      -1.8668659938578074 [Eh]
	 SCS Total Energy          =    -403.6388987020035870 [Eh]
	-----------------------------------------------------------

  Dipole Moment: [D]
     X:    -1.3257      Y:     1.4252      Z:     0.0108     Total:     1.9465

*** Psi4 exiting successfully. Buy a developer a beer!
