                               Psi4 1.4a3.dev225

  ==> Input File <==

--------------------------------------------------------------------------
#psi4
#
memory 32 gb

molecule  {
0 1
  N        0.1871790    -0.9111820    -0.0000020
  C        2.0846610     0.5733200    -0.0000030
  C        2.9631220    -0.4040200    -0.7474220
  C        2.9631210    -0.4040120     0.7474270
  C        0.6178930     0.3663440    -0.0000030
  C       -0.2752490     1.4465330    -0.0000020
  C       -1.6439530     1.1986260     0.0000010
  C       -2.1086100    -0.1215530     0.0000030
  C       -1.1241116    -1.1429871     0.0000010
  C       -3.5774520    -0.4452540     0.0000000
  H        2.4036780     1.6130560    -0.0000090
  H        3.8277670    -0.0076600    -1.2704010
  H        2.4452750    -1.2187140    -1.2419740
  H        2.4452760    -1.2187020     1.2419880
  H        3.8277650    -0.0076460     1.2704030
  H        0.1039660     2.4659580    -0.0000030
  H       -2.3510000     2.0273860     0.0000010
  H       -1.4419230    -2.1762520     0.0000020
  H       -4.0731050    -0.0303320     0.8832920
  H       -3.7381210    -1.5268000     0.0000420
  H       -4.0730850    -0.0304030    -0.8833370
units angstrom
no_reorient  #important for SAPT in psi4, default
symmetry c1  #important for SAPT in psi4, default
}

set PROPERTIES_ORIGIN ["COM"]
properties('MP2/aug-cc-pvtz', properties = ['dipole'])
--------------------------------------------------------------------------

    Molecular point group: c1
  Charge       = 0
  Multiplicity = 1
  Basis Set: AUG-CC-PVTZ
    Blend: AUG-CC-PVTZ
  Basis Set: (AUG-CC-PVTZ AUX)
    Blend: AUG-CC-PVTZ-JKFIT

    Orbital Energies [Eh]
    ---------------------

    Doubly Occupied:

       1A    -15.555412     2A    -11.275876     3A    -11.268973
       4A    -11.250783     5A    -11.241246     6A    -11.233498
       7A    -11.231233     8A    -11.229290     9A    -11.221336
      10A    -11.220644    11A     -1.253030    12A     -1.140613
      13A     -1.090859    14A     -1.041917    15A     -0.951101
      16A     -0.865477    17A     -0.840412    18A     -0.814764
      19A     -0.781365    20A     -0.702207    21A     -0.666361
      22A     -0.639108    23A     -0.627357    24A     -0.600837
      25A     -0.583259    26A     -0.565474    27A     -0.549427
      28A     -0.535899    29A     -0.527920    30A     -0.504031
      31A     -0.500739    32A     -0.428979    33A     -0.426522
      34A     -0.404732    35A     -0.374142    36A     -0.310068

  @DF-RHF Final Energy:  -401.77337768075853

   => Energetics <=

    Nuclear Repulsion Energy =            488.8818384631971412
    One-Electron Energy =               -1512.4006514683776459
    Two-Electron Energy =                 621.7454353244219192
    Total Energy =                       -401.7733776807585855
  Basis Set: (AUG-CC-PVTZ AUX)
    Blend: AUG-CC-PVTZ-RI
    Molecular point group: c1

    Geometry (in Angstrom), charge = 0, multiplicity = 1:

       Center              X                  Y                   Z               Mass
    ------------   -----------------  -----------------  -----------------  -----------------
         N            0.181275045917    -0.910683411014    -0.000002000189    14.003074004430
         C            2.078757045917     0.573818588986    -0.000003000189    12.000000000000
         C            2.957218045917    -0.403521411014    -0.747422000189    12.000000000000
         C            2.957217045917    -0.403513411014     0.747426999811    12.000000000000
         C            0.611989045917     0.366842588986    -0.000003000189    12.000000000000
         C           -0.281152954083     1.447031588986    -0.000002000189    12.000000000000
         C           -1.649856954083     1.199124588986     0.000000999811    12.000000000000
         C           -2.114513954083    -0.121054411014     0.000002999811    12.000000000000
         C           -1.130015554083    -1.142488511014     0.000000999811    12.000000000000
         C           -3.583355954083    -0.444755411014    -0.000000000189    12.000000000000
         H            2.397774045917     1.613554588986    -0.000009000189     1.007825032230
         H            3.821863045917    -0.007161411014    -1.270401000189     1.007825032230
         H            2.439371045917    -1.218215411014    -1.241974000189     1.007825032230
         H            2.439372045917    -1.218203411014     1.241987999811     1.007825032230
         H            3.821861045917    -0.007147411014     1.270402999811     1.007825032230
         H            0.098062045917     2.466456588986    -0.000003000189     1.007825032230
         H           -2.356903954083     2.027884588986     0.000000999811     1.007825032230
         H           -1.447826954083    -2.175753411014     0.000001999811     1.007825032230
         H           -4.079008954083    -0.029833411014     0.883291999811     1.007825032230
         H           -3.744024954083    -1.526301411014     0.000041999811     1.007825032230
         H           -4.078988954083    -0.029904411014    -0.883337000189     1.007825032230

  Basis Set: AUG-CC-PVTZ
    Blend: AUG-CC-PVTZ
  Basis Set: (AUG-CC-PVTZ AUX)
    Blend: AUG-CC-PVTZ-JKFIT
	 Reference Energy          =    -401.7733776807585286 [Eh]
	 Singles Energy            =      -0.0000000000000000 [Eh]
	 Same-Spin Energy          =      -0.4459273656909504 [Eh]
	 Opposite-Spin Energy      =      -1.4315378141396331 [Eh]
	 Correlation Energy        =      -1.8774651798305835 [Eh]
	 Total Energy              =    -403.6508428605891368 [Eh]

	 ================> DF-SCS-MP2 Energies <==================
	-----------------------------------------------------------
	 SCS Same-Spin Scale       =       0.3333333333333333 [-]
	 SCS Opposite-Spin Scale   =       1.2000000000000000 [-]
	 SCS Same-Spin Energy      =      -0.1486424552303168 [Eh]
	 SCS Opposite-Spin Energy  =      -1.7178453769675597 [Eh]
	 SCS Correlation Energy    =      -1.8664878321978764 [Eh]
	 SCS Total Energy          =    -403.6398655129564190 [Eh]
	-----------------------------------------------------------

  Dipole Moment: [D]
     X:    -1.3219      Y:     1.4263      Z:    -0.0000     Total:     1.9446

*** Psi4 exiting successfully. Buy a developer a beer!
