                               Psi4 1.4a3.dev225

  ==> Input File <==

--------------------------------------------------------------------------
#psi4
#
memory 32 gb

molecule  {
0 1
  N        0.1871790    -0.9111820    -0.0000020
  C        2.0846610     0.5733200    -0.0000030
  C        2.9631220    -0.4040200    -0.7474220
  C        2.9631210    -0.4040120     0.7474270
  C        0.6178930     0.3663440    -0.0000030
  C       -0.2752490     1.4465330    -0.0000020
  C       -1.6439530     1.1986260     0.0000010
  C       -2.1086100    -0.1215530     0.0000030
  C       -1.1379910    -1.1285870     0.0000010
  C       -3.5774520    -0.4452540     0.0000000
  H        2.4036780     1.6130560    -0.0000090
  H        3.8277670    -0.0076600    -1.2704010
  H        2.4452750    -1.2187140    -1.2419740
  H        2.4452760    -1.2187020     1.2419880
  H        3.8277650    -0.0076460     1.2704030
  H        0.1039660     2.4659580    -0.0000030
  H       -2.3510000     2.0273860     0.0000010
  H       -1.4474953    -2.1954600     0.0000020
  H       -4.0731050    -0.0303320     0.8832920
  H       -3.7381210    -1.5268000     0.0000420
  H       -4.0730850    -0.0304030    -0.8833370
units angstrom
no_reorient  #important for SAPT in psi4, default
symmetry c1  #important for SAPT in psi4, default
}

set PROPERTIES_ORIGIN ["COM"]
properties('MP2/aug-cc-pvtz', properties = ['dipole'])
--------------------------------------------------------------------------

    Molecular point group: c1
  Charge       = 0
  Multiplicity = 1
  Basis Set: AUG-CC-PVTZ
    Blend: AUG-CC-PVTZ
  Basis Set: (AUG-CC-PVTZ AUX)
    Blend: AUG-CC-PVTZ-JKFIT

    Orbital Energies [Eh]
    ---------------------

    Doubly Occupied:

       1A    -15.555938     2A    -11.276334     3A    -11.270091
       4A    -11.251851     5A    -11.239632     6A    -11.233886
       7A    -11.231471     8A    -11.229213     9A    -11.221623
      10A    -11.220930    11A     -1.251288    12A     -1.140886
      13A     -1.091727    14A     -1.042154    15A     -0.950919
      16A     -0.866560    17A     -0.839723    18A     -0.814983
      19A     -0.781109    20A     -0.700006    21A     -0.666812
      22A     -0.639217    23A     -0.625110    24A     -0.599999
      25A     -0.583726    26A     -0.563903    27A     -0.549256
      28A     -0.535530    29A     -0.528143    30A     -0.504206
      31A     -0.498426    32A     -0.429550    33A     -0.427238
      34A     -0.406312    35A     -0.372590    36A     -0.312813

  @DF-RHF Final Energy:  -401.77303476431734

   => Energetics <=

    Nuclear Repulsion Energy =            488.9132160841159020
    One-Electron Energy =               -1512.4661899029856613
    Two-Electron Energy =                 621.7799390545524147
    Total Energy =                       -401.7730347643173445
  Basis Set: (AUG-CC-PVTZ AUX)
    Blend: AUG-CC-PVTZ-RI
    Molecular point group: c1

    Geometry (in Angstrom), charge = 0, multiplicity = 1:

       Center              X                  Y                   Z               Mass
    ------------   -----------------  -----------------  -----------------  -----------------
         N            0.182568680329    -0.911836344199    -0.000002000189    14.003074004430
         C            2.080050680329     0.572665655801    -0.000003000189    12.000000000000
         C            2.958511680329    -0.404674344199    -0.747422000189    12.000000000000
         C            2.958510680329    -0.404666344199     0.747426999811    12.000000000000
         C            0.613282680329     0.365689655801    -0.000003000189    12.000000000000
         C           -0.279859319671     1.445878655801    -0.000002000189    12.000000000000
         C           -1.648563319671     1.197971655801     0.000000999811    12.000000000000
         C           -2.113220319671    -0.122207344199     0.000002999811    12.000000000000
         C           -1.142601319671    -1.129241344199     0.000000999811    12.000000000000
         C           -3.582062319671    -0.445908344199    -0.000000000189    12.000000000000
         H            2.399067680329     1.612401655801    -0.000009000189     1.007825032230
         H            3.823156680329    -0.008314344199    -1.270401000189     1.007825032230
         H            2.440664680329    -1.219368344199    -1.241974000189     1.007825032230
         H            2.440665680329    -1.219356344199     1.241987999811     1.007825032230
         H            3.823154680329    -0.008300344199     1.270402999811     1.007825032230
         H            0.099355680329     2.465303655801    -0.000003000189     1.007825032230
         H           -2.355610319671     2.026731655801     0.000000999811     1.007825032230
         H           -1.452105619671    -2.196114344199     0.000001999811     1.007825032230
         H           -4.077715319671    -0.030986344199     0.883291999811     1.007825032230
         H           -3.742731319671    -1.527454344199     0.000041999811     1.007825032230
         H           -4.077695319671    -0.031057344199    -0.883337000189     1.007825032230

  Basis Set: AUG-CC-PVTZ
    Blend: AUG-CC-PVTZ
  Basis Set: (AUG-CC-PVTZ AUX)
    Blend: AUG-CC-PVTZ-JKFIT
	 Reference Energy          =    -401.7730347643173445 [Eh]
	 Singles Energy            =      -0.0000000000000000 [Eh]
	 Same-Spin Energy          =      -0.4460117729548433 [Eh]
	 Opposite-Spin Energy      =      -1.4318395521982885 [Eh]
	 Correlation Energy        =      -1.8778513251531317 [Eh]
	 Total Energy              =    -403.6508860894704753 [Eh]

	 ================> DF-SCS-MP2 Energies <==================
	-----------------------------------------------------------
	 SCS Same-Spin Scale       =       0.3333333333333333 [-]
	 SCS Opposite-Spin Scale   =       1.2000000000000000 [-]
	 SCS Same-Spin Energy      =      -0.1486705909849478 [Eh]
	 SCS Opposite-Spin Energy  =      -1.7182074626379462 [Eh]
	 SCS Correlation Energy    =      -1.8668780536228939 [Eh]
	 SCS Total Energy          =    -403.6399128179402283 [Eh]
	-----------------------------------------------------------

  Dipole Moment: [D]
     X:    -1.3047      Y:     1.4644      Z:    -0.0000     Total:     1.9613

*** Psi4 exiting successfully. Buy a developer a beer!
