                               Psi4 1.4a3.dev225

  ==> Input File <==

--------------------------------------------------------------------------
#psi4
#
memory 32 gb

molecule  {
0 1
  N        0.1871790    -0.9111820    -0.0000020
  C        2.0634391     0.5593858    -0.0071908
  C        2.9631220    -0.4040200    -0.7474220
  C        2.9631210    -0.4040120     0.7474270
  C        0.6178930     0.3663440    -0.0000030
  C       -0.2752490     1.4465330    -0.0000020
  C       -1.6439530     1.1986260     0.0000010
  C       -2.1086100    -0.1215530     0.0000030
  C       -1.1379910    -1.1285870     0.0000010
  C       -3.5774520    -0.4452540     0.0000000
  H        2.4036780     1.6130560    -0.0000090
  H        3.8277670    -0.0076600    -1.2704010
  H        2.4452750    -1.2187140    -1.2419740
  H        2.4452760    -1.2187020     1.2419880
  H        3.8277650    -0.0076460     1.2704030
  H        0.1039660     2.4659580    -0.0000030
  H       -2.3510000     2.0273860     0.0000010
  H       -1.4419230    -2.1762520     0.0000020
  H       -4.0731050    -0.0303320     0.8832920
  H       -3.7381210    -1.5268000     0.0000420
  H       -4.0730850    -0.0304030    -0.8833370
units angstrom
no_reorient  #important for SAPT in psi4, default
symmetry c1  #important for SAPT in psi4, default
}

set PROPERTIES_ORIGIN ["COM"]
properties('MP2/aug-cc-pvtz', properties = ['dipole'])
--------------------------------------------------------------------------

    Molecular point group: c1
  Charge       = 0
  Multiplicity = 1
  Basis Set: AUG-CC-PVTZ
    Blend: AUG-CC-PVTZ
  Basis Set: (AUG-CC-PVTZ AUX)
    Blend: AUG-CC-PVTZ-JKFIT

    Orbital Energies [Eh]
    ---------------------

    Doubly Occupied:

       1A    -15.555373     2A    -11.274994     3A    -11.267640
       4A    -11.251724     5A    -11.239330     6A    -11.233881
       7A    -11.231851     8A    -11.229227     9A    -11.222303
      10A    -11.221602    11A     -1.251941    12A     -1.140636
      13A     -1.091509    14A     -1.043060    15A     -0.952593
      16A     -0.868052    17A     -0.841633    18A     -0.815102
      19A     -0.779763    20A     -0.700817    21A     -0.667422
      22A     -0.638634    23A     -0.626607    24A     -0.599460
      25A     -0.583768    26A     -0.564525    27A     -0.549501
      28A     -0.536714    29A     -0.527535    30A     -0.504226
      31A     -0.499554    32A     -0.429972    33A     -0.426536
      34A     -0.406854    35A     -0.372477    36A     -0.311651

  @DF-RHF Final Energy:  -401.77239772284861

   => Energetics <=

    Nuclear Repulsion Energy =            489.3596990826039246
    One-Electron Energy =               -1513.3472547832916462
    Two-Electron Energy =                 622.2151579778391124
    Total Energy =                       -401.7723977228486092
  Basis Set: (AUG-CC-PVTZ AUX)
    Blend: AUG-CC-PVTZ-RI
    Molecular point group: c1

    Geometry (in Angstrom), charge = 0, multiplicity = 1:

       Center              X                  Y                   Z               Mass
    ------------   -----------------  -----------------  -----------------  -----------------
         N            0.184439959075    -0.910725418947     0.000646088708    14.003074004430
         C            2.060700059075     0.559842381053    -0.006542711292    12.000000000000
         C            2.960382959075    -0.403563418947    -0.746773911292    12.000000000000
         C            2.960381959075    -0.403555418947     0.748075088708    12.000000000000
         C            0.615153959075     0.366800581053     0.000645088708    12.000000000000
         C           -0.277988040925     1.446989581053     0.000646088708    12.000000000000
         C           -1.646692040925     1.199082581053     0.000649088708    12.000000000000
         C           -2.111349040925    -0.121096418947     0.000651088708    12.000000000000
         C           -1.140730040925    -1.128130418947     0.000649088708    12.000000000000
         C           -3.580191040925    -0.444797418947     0.000648088708    12.000000000000
         H            2.400938959075     1.613512581053     0.000639088708     1.007825032230
         H            3.825027959075    -0.007203418947    -1.269752911292     1.007825032230
         H            2.442535959075    -1.218257418947    -1.241325911292     1.007825032230
         H            2.442536959075    -1.218245418947     1.242636088708     1.007825032230
         H            3.825025959075    -0.007189418947     1.271051088708     1.007825032230
         H            0.101226959075     2.466414581053     0.000645088708     1.007825032230
         H           -2.353739040925     2.027842581053     0.000649088708     1.007825032230
         H           -1.444662040925    -2.175795418947     0.000650088708     1.007825032230
         H           -4.075844040925    -0.029875418947     0.883940088708     1.007825032230
         H           -3.740860040925    -1.526343418947     0.000690088708     1.007825032230
         H           -4.075824040925    -0.029946418947    -0.882688911292     1.007825032230

  Basis Set: AUG-CC-PVTZ
    Blend: AUG-CC-PVTZ
  Basis Set: (AUG-CC-PVTZ AUX)
    Blend: AUG-CC-PVTZ-JKFIT
	 Reference Energy          =    -401.7723977228486092 [Eh]
	 Singles Energy            =      -0.0000000000000000 [Eh]
	 Same-Spin Energy          =      -0.4462114355937995 [Eh]
	 Opposite-Spin Energy      =      -1.4320361345144854 [Eh]
	 Correlation Energy        =      -1.8782475701082850 [Eh]
	 Total Energy              =    -403.6506452929568809 [Eh]

	 ================> DF-SCS-MP2 Energies <==================
	-----------------------------------------------------------
	 SCS Same-Spin Scale       =       0.3333333333333333 [-]
	 SCS Opposite-Spin Scale   =       1.2000000000000000 [-]
	 SCS Same-Spin Energy      =      -0.1487371451979332 [Eh]
	 SCS Opposite-Spin Energy  =      -1.7184433614173824 [Eh]
	 SCS Correlation Energy    =      -1.8671805066153155 [Eh]
	 SCS Total Energy          =    -403.6395782294639503 [Eh]
	-----------------------------------------------------------

  Dipole Moment: [D]
     X:    -1.2898      Y:     1.4428      Z:    -0.0037     Total:     1.9353

*** Psi4 exiting successfully. Buy a developer a beer!
