                               Psi4 1.4a3.dev225

  ==> Input File <==

--------------------------------------------------------------------------
#psi4
#
memory 32 gb

molecule  {
0 1
  N        0.1871790    -0.9111820    -0.0000020
  C        2.0846610     0.5733200    -0.0000030
  C        2.9631220    -0.4040200    -0.7474220
  C        2.9631210    -0.4040120     0.7474270
  C        0.6178930     0.3663440    -0.0000030
  C       -0.2752490     1.4465330    -0.0000020
  C       -1.6439530     1.1986260     0.0000010
  C       -2.1086100    -0.1215530     0.0000030
  C       -1.1379910    -1.1285870     0.0000010
  C       -3.5774520    -0.4452540     0.0000000
  H        2.4036780     1.6130560    -0.0000090
  H        3.8277670    -0.0076600    -1.2704010
  H        2.4357264    -1.2337362    -1.2510931
  H        2.4452760    -1.2187020     1.2419880
  H        3.8277650    -0.0076460     1.2704030
  H        0.1039660     2.4659580    -0.0000030
  H       -2.3510000     2.0273860     0.0000010
  H       -1.4419230    -2.1762520     0.0000020
  H       -4.0731050    -0.0303320     0.8832920
  H       -3.7381210    -1.5268000     0.0000420
  H       -4.0730850    -0.0304030    -0.8833370
units angstrom
no_reorient  #important for SAPT in psi4, default
symmetry c1  #important for SAPT in psi4, default
}

set PROPERTIES_ORIGIN ["COM"]
properties('MP2/aug-cc-pvtz', properties = ['dipole'])
--------------------------------------------------------------------------

    Molecular point group: c1
  Charge       = 0
  Multiplicity = 1
  Basis Set: AUG-CC-PVTZ
    Blend: AUG-CC-PVTZ
  Basis Set: (AUG-CC-PVTZ AUX)
    Blend: AUG-CC-PVTZ-JKFIT

    Orbital Energies [Eh]
    ---------------------

    Doubly Occupied:

       1A    -15.555706     2A    -11.276149     3A    -11.267742
       4A    -11.251678     5A    -11.239411     6A    -11.233821
       7A    -11.231517     8A    -11.229264     9A    -11.223430
      10A    -11.221284    11A     -1.251182    12A     -1.140656
      13A     -1.091585    14A     -1.042423    15A     -0.950996
      16A     -0.867272    17A     -0.840016    18A     -0.813225
      19A     -0.780994    20A     -0.700606    21A     -0.666498
      22A     -0.638971    23A     -0.626167    24A     -0.600150
      25A     -0.583722    26A     -0.564667    27A     -0.549369
      28A     -0.535370    29A     -0.527722    30A     -0.502450
      31A     -0.498723    32A     -0.429340    33A     -0.427206
      34A     -0.406414    35A     -0.372435    36A     -0.312741

  @DF-RHF Final Energy:  -401.77309295968274

   => Energetics <=

    Nuclear Repulsion Energy =            488.9382519231789388
    One-Electron Energy =               -1512.5208835603655189
    Two-Electron Energy =                 621.8095386775037241
    Total Energy =                       -401.7730929596827991
  Basis Set: (AUG-CC-PVTZ AUX)
    Blend: AUG-CC-PVTZ-RI
    Molecular point group: c1

    Geometry (in Angstrom), charge = 0, multiplicity = 1:

       Center              X                  Y                   Z               Mass
    ------------   -----------------  -----------------  -----------------  -----------------
         N            0.182598791083    -0.911868041404     0.000067054706    14.003074004430
         C            2.080080791083     0.572633958596     0.000066054706    12.000000000000
         C            2.958541791083    -0.404706041404    -0.747352945294    12.000000000000
         C            2.958540791083    -0.404698041404     0.747496054706    12.000000000000
         C            0.613312791083     0.365657958596     0.000066054706    12.000000000000
         C           -0.279829208917     1.445846958596     0.000067054706    12.000000000000
         C           -1.648533208917     1.197939958596     0.000070054706    12.000000000000
         C           -2.113190208917    -0.122239041404     0.000072054706    12.000000000000
         C           -1.142571208917    -1.129273041404     0.000070054706    12.000000000000
         C           -3.582032208917    -0.445940041404     0.000069054706    12.000000000000
         H            2.399097791083     1.612369958596     0.000060054706     1.007825032230
         H            3.823186791083    -0.008346041404    -1.270331945294     1.007825032230
         H            2.431146191083    -1.234422241404    -1.251024045294     1.007825032230
         H            2.440695791083    -1.219388041404     1.242057054706     1.007825032230
         H            3.823184791083    -0.008332041404     1.270472054706     1.007825032230
         H            0.099385791083     2.465271958596     0.000066054706     1.007825032230
         H           -2.355580208917     2.026699958596     0.000070054706     1.007825032230
         H           -1.446503208917    -2.176938041404     0.000071054706     1.007825032230
         H           -4.077685208917    -0.031018041404     0.883361054706     1.007825032230
         H           -3.742701208917    -1.527486041404     0.000111054706     1.007825032230
         H           -4.077665208917    -0.031089041404    -0.883267945294     1.007825032230

  Basis Set: AUG-CC-PVTZ
    Blend: AUG-CC-PVTZ
  Basis Set: (AUG-CC-PVTZ AUX)
    Blend: AUG-CC-PVTZ-JKFIT
	 Reference Energy          =    -401.7730929596827423 [Eh]
	 Singles Energy            =      -0.0000000000000000 [Eh]
	 Same-Spin Energy          =      -0.4459888346008158 [Eh]
	 Opposite-Spin Energy      =      -1.4318088671653504 [Eh]
	 Correlation Energy        =      -1.8777977017661662 [Eh]
	 Total Energy              =    -403.6508906614488978 [Eh]

	 ================> DF-SCS-MP2 Energies <==================
	-----------------------------------------------------------
	 SCS Same-Spin Scale       =       0.3333333333333333 [-]
	 SCS Opposite-Spin Scale   =       1.2000000000000000 [-]
	 SCS Same-Spin Energy      =      -0.1486629448669386 [Eh]
	 SCS Opposite-Spin Energy  =      -1.7181706405984205 [Eh]
	 SCS Correlation Energy    =      -1.8668335854653590 [Eh]
	 SCS Total Energy          =    -403.6399265451481142 [Eh]
	-----------------------------------------------------------

  Dipole Moment: [D]
     X:    -1.3149      Y:     1.4573      Z:     0.0046     Total:     1.9628

*** Psi4 exiting successfully. Buy a developer a beer!
