                               Psi4 1.4a3.dev225

  ==> Input File <==

--------------------------------------------------------------------------
#psi4
#
memory 32 gb

molecule  {
0 1
  N        0.1871790    -0.9111820    -0.0000020
  C        2.0846610     0.5733200    -0.0000030
  C        2.9631220    -0.4040200    -0.7474220
  C        2.9631210    -0.4040120     0.7474270
  C        0.6178930     0.3663440    -0.0000030
  C       -0.2752490     1.4465330    -0.0000020
  C       -1.6439530     1.1986260     0.0000010
  C       -2.1086100    -0.1215530     0.0000030
  C       -1.1379910    -1.1285870     0.0000010
  C       -3.5774520    -0.4452540     0.0000000
  H        2.4036780     1.6130560    -0.0000090
  H        3.6684527    -0.0806909    -1.1740400
  H        2.4452750    -1.2187140    -1.2419740
  H        2.4452760    -1.2187020     1.2419880
  H        3.8277650    -0.0076460     1.2704030
  H        0.1039660     2.4659580    -0.0000030
  H       -2.3510000     2.0273860     0.0000010
  H       -1.4419230    -2.1762520     0.0000020
  H       -4.0731050    -0.0303320     0.8832920
  H       -3.7381210    -1.5268000     0.0000420
  H       -4.0730850    -0.0304030    -0.8833370
units angstrom
no_reorient  #important for SAPT in psi4, default
symmetry c1  #important for SAPT in psi4, default
}

set PROPERTIES_ORIGIN ["COM"]
properties('MP2/aug-cc-pvtz', properties = ['dipole'])
--------------------------------------------------------------------------

    Molecular point group: c1
  Charge       = 0
  Multiplicity = 1
  Basis Set: AUG-CC-PVTZ
    Blend: AUG-CC-PVTZ
  Basis Set: (AUG-CC-PVTZ AUX)
    Blend: AUG-CC-PVTZ-JKFIT

    Orbital Energies [Eh]
    ---------------------

    Doubly Occupied:

       1A    -15.554998     2A    -11.275602     3A    -11.267263
       4A    -11.251229     5A    -11.238847     6A    -11.233247
       7A    -11.230620     8A    -11.228902     9A    -11.220292
      10A    -11.197439    11A     -1.250596    12A     -1.144046
      13A     -1.091374    14A     -1.042720    15A     -0.952065
      16A     -0.869303    17A     -0.848628    18A     -0.833327
      19A     -0.782240    20A     -0.703287    21A     -0.671609
      22A     -0.650066    23A     -0.627012    24A     -0.600486
      25A     -0.583469    26A     -0.564550    27A     -0.550285
      28A     -0.541333    29A     -0.528945    30A     -0.511960
      31A     -0.498886    32A     -0.429895    33A     -0.426724
      34A     -0.405769    35A     -0.372001    36A     -0.312329

  @DF-RHF Final Energy:  -401.73834450112179

   => Energetics <=

    Nuclear Repulsion Energy =            490.1439745103023711
    One-Electron Energy =               -1514.7819524850069683
    Two-Electron Energy =                 622.8996334735828668
    Total Energy =                       -401.7383445011217873
  Basis Set: (AUG-CC-PVTZ AUX)
    Blend: AUG-CC-PVTZ-RI
    Molecular point group: c1

    Geometry (in Angstrom), charge = 0, multiplicity = 1:

       Center              X                  Y                   Z               Mass
    ------------   -----------------  -----------------  -----------------  -----------------
         N            0.183732900229    -0.911428767276    -0.000731699255    14.003074004430
         C            2.081214900229     0.573073232724    -0.000732699255    12.000000000000
         C            2.959675900229    -0.404266767276    -0.748151699255    12.000000000000
         C            2.959674900229    -0.404258767276     0.746697300745    12.000000000000
         C            0.614446900229     0.366097232724    -0.000732699255    12.000000000000
         C           -0.278695099771     1.446286232724    -0.000731699255    12.000000000000
         C           -1.647399099771     1.198379232724    -0.000728699255    12.000000000000
         C           -2.112056099771    -0.121799767276    -0.000726699255    12.000000000000
         C           -1.141437099771    -1.128833767276    -0.000728699255    12.000000000000
         C           -3.580898099771    -0.445500767276    -0.000729699255    12.000000000000
         H            2.400231900229     1.612809232724    -0.000738699255     1.007825032230
         H            3.665006600229    -0.080937667276    -1.174769699255     1.007825032230
         H            2.441828900229    -1.218960767276    -1.242703699255     1.007825032230
         H            2.441829900229    -1.218948767276     1.241258300745     1.007825032230
         H            3.824318900229    -0.007892767276     1.269673300745     1.007825032230
         H            0.100519900229     2.465711232724    -0.000732699255     1.007825032230
         H           -2.354446099771     2.027139232724    -0.000728699255     1.007825032230
         H           -1.445369099771    -2.176498767276    -0.000727699255     1.007825032230
         H           -4.076551099771    -0.030578767276     0.882562300745     1.007825032230
         H           -3.741567099771    -1.527046767276    -0.000687699255     1.007825032230
         H           -4.076531099771    -0.030649767276    -0.884066699255     1.007825032230

  Basis Set: AUG-CC-PVTZ
    Blend: AUG-CC-PVTZ
  Basis Set: (AUG-CC-PVTZ AUX)
    Blend: AUG-CC-PVTZ-JKFIT
	 Reference Energy          =    -401.7383445011217873 [Eh]
	 Singles Energy            =      -0.0000000000000000 [Eh]
	 Same-Spin Energy          =      -0.4460073167919799 [Eh]
	 Opposite-Spin Energy      =      -1.4312733990049145 [Eh]
	 Correlation Energy        =      -1.8772807157968945 [Eh]
	 Total Energy              =    -403.6156252169186587 [Eh]

	 ================> DF-SCS-MP2 Energies <==================
	-----------------------------------------------------------
	 SCS Same-Spin Scale       =       0.3333333333333333 [-]
	 SCS Opposite-Spin Scale   =       1.2000000000000000 [-]
	 SCS Same-Spin Energy      =      -0.1486691055973266 [Eh]
	 SCS Opposite-Spin Energy  =      -1.7175280788058973 [Eh]
	 SCS Correlation Energy    =      -1.8661971844032239 [Eh]
	 SCS Total Energy          =    -403.6045416855250210 [Eh]
	-----------------------------------------------------------

  Dipole Moment: [D]
     X:    -1.2590      Y:     1.4523      Z:    -0.0412     Total:     1.9225

*** Psi4 exiting successfully. Buy a developer a beer!
