                               Psi4 1.4a3.dev225

  ==> Input File <==

--------------------------------------------------------------------------
#psi4
#
memory 32 gb

molecule  {
0 1
  N        0.1871790    -0.9111820    -0.0000020
  C        2.0846610     0.5733200    -0.0000030
  C        2.9631220    -0.4040200    -0.7474220
  C        2.9631210    -0.4040120     0.7474270
  C        0.6178930     0.3663440    -0.0000030
  C       -0.2752490     1.4465330    -0.0000020
  C       -1.6439530     1.1986260     0.0000010
  C       -2.1086100    -0.1215530     0.0000030
  C       -1.2073879    -1.0565865     0.0000011
  C       -3.5774520    -0.4452540     0.0000000
  H        2.4036780     1.6130560    -0.0000090
  H        3.8277670    -0.0076600    -1.2704010
  H        2.4452750    -1.2187140    -1.2419740
  H        2.4452760    -1.2187020     1.2419880
  H        3.8277650    -0.0076460     1.2704030
  H        0.1039660     2.4659580    -0.0000030
  H       -2.3510000     2.0273860     0.0000010
  H       -1.4419230    -2.1762520     0.0000020
  H       -4.0731050    -0.0303320     0.8832920
  H       -3.7381210    -1.5268000     0.0000420
  H       -4.0730850    -0.0304030    -0.8833370
units angstrom
no_reorient  #important for SAPT in psi4, default
symmetry c1  #important for SAPT in psi4, default
}

set PROPERTIES_ORIGIN ["COM"]
properties('MP2/aug-cc-pvtz', properties = ['dipole'])
--------------------------------------------------------------------------

    Molecular point group: c1
  Charge       = 0
  Multiplicity = 1
  Basis Set: AUG-CC-PVTZ
    Blend: AUG-CC-PVTZ
  Basis Set: (AUG-CC-PVTZ AUX)
    Blend: AUG-CC-PVTZ-JKFIT

    Orbital Energies [Eh]
    ---------------------

    Doubly Occupied:

       1A    -15.557040     2A    -11.277411     3A    -11.260300
       4A    -11.255922     5A    -11.235612     6A    -11.232119
       7A    -11.229168     8A    -11.228035     9A    -11.222670
      10A    -11.221977    11A     -1.243471    12A     -1.143331
      13A     -1.096592    14A     -1.044562    15A     -0.951163
      16A     -0.879146    17A     -0.837281    18A     -0.815722
      19A     -0.778403    20A     -0.697980    21A     -0.668750
      22A     -0.640123    23A     -0.621465    24A     -0.600941
      25A     -0.586546    26A     -0.562915    27A     -0.545478
      28A     -0.533598    29A     -0.528720    30A     -0.504832
      31A     -0.484577    32A     -0.433026    33A     -0.431185
      34A     -0.412194    35A     -0.364243    36A     -0.327545

  @DF-RHF Final Energy:  -401.75937090474679

   => Energetics <=

    Nuclear Repulsion Energy =            489.7921246810089428
    One-Electron Energy =               -1514.1949087234404487
    Two-Electron Energy =                 622.6434131376846608
    Total Energy =                       -401.7593709047467883
  Basis Set: (AUG-CC-PVTZ AUX)
    Blend: AUG-CC-PVTZ-RI
    Molecular point group: c1

    Geometry (in Angstrom), charge = 0, multiplicity = 1:

       Center              X                  Y                   Z               Mass
    ------------   -----------------  -----------------  -----------------  -----------------
         N            0.188783664049    -0.918473732051    -0.000002009205    14.003074004430
         C            2.086265664049     0.566028267949    -0.000003009205    12.000000000000
         C            2.964726664049    -0.411311732051    -0.747422009205    12.000000000000
         C            2.964725664049    -0.411303732051     0.747426990795    12.000000000000
         C            0.619497664049     0.359052267949    -0.000003009205    12.000000000000
         C           -0.273644335951     1.439241267949    -0.000002009205    12.000000000000
         C           -1.642348335951     1.191334267949     0.000000990795    12.000000000000
         C           -2.107005335951    -0.128844732051     0.000002990795    12.000000000000
         C           -1.205783235951    -1.063878232051     0.000001090795    12.000000000000
         C           -3.575847335951    -0.452545732051    -0.000000009205    12.000000000000
         H            2.405282664049     1.605764267949    -0.000009009205     1.007825032230
         H            3.829371664049    -0.014951732051    -1.270401009205     1.007825032230
         H            2.446879664049    -1.226005732051    -1.241974009205     1.007825032230
         H            2.446880664049    -1.225993732051     1.241987990795     1.007825032230
         H            3.829369664049    -0.014937732051     1.270402990795     1.007825032230
         H            0.105570664049     2.458666267949    -0.000003009205     1.007825032230
         H           -2.349395335951     2.020094267949     0.000000990795     1.007825032230
         H           -1.440318335951    -2.183543732051     0.000001990795     1.007825032230
         H           -4.071500335951    -0.037623732051     0.883291990795     1.007825032230
         H           -3.736516335951    -1.534091732051     0.000041990795     1.007825032230
         H           -4.071480335951    -0.037694732051    -0.883337009205     1.007825032230

  Basis Set: AUG-CC-PVTZ
    Blend: AUG-CC-PVTZ
  Basis Set: (AUG-CC-PVTZ AUX)
    Blend: AUG-CC-PVTZ-JKFIT
	 Reference Energy          =    -401.7593709047467883 [Eh]
	 Singles Energy            =      -0.0000000000000000 [Eh]
	 Same-Spin Energy          =      -0.4458321315887804 [Eh]
	 Opposite-Spin Energy      =      -1.4328645317625728 [Eh]
	 Correlation Energy        =      -1.8786966633513531 [Eh]
	 Total Energy              =    -403.6380675680981653 [Eh]

	 ================> DF-SCS-MP2 Energies <==================
	-----------------------------------------------------------
	 SCS Same-Spin Scale       =       0.3333333333333333 [-]
	 SCS Opposite-Spin Scale   =       1.2000000000000000 [-]
	 SCS Same-Spin Energy      =      -0.1486107105295935 [Eh]
	 SCS Opposite-Spin Energy  =      -1.7194374381150872 [Eh]
	 SCS Correlation Energy    =      -1.8680481486446807 [Eh]
	 SCS Total Energy          =    -403.6274190533914634 [Eh]
	-----------------------------------------------------------

  Dipole Moment: [D]
     X:    -1.2345      Y:     1.5937      Z:    -0.0000     Total:     2.0159

*** Psi4 exiting successfully. Buy a developer a beer!
