                               Psi4 1.4a3.dev225

  ==> Input File <==

--------------------------------------------------------------------------
#psi4
#
memory 32 gb

molecule  {
0 1
  N        0.1871790    -0.9111820    -0.0000020
  C        2.2173797     0.6505309     0.0382708
  C        2.9631220    -0.4040200    -0.7474220
  C        2.9631210    -0.4040120     0.7474270
  C        0.6178930     0.3663440    -0.0000030
  C       -0.2752490     1.4465330    -0.0000020
  C       -1.6439530     1.1986260     0.0000010
  C       -2.1086100    -0.1215530     0.0000030
  C       -1.1379910    -1.1285870     0.0000010
  C       -3.5774520    -0.4452540     0.0000000
  H        2.4036780     1.6130560    -0.0000090
  H        3.8277670    -0.0076600    -1.2704010
  H        2.4452750    -1.2187140    -1.2419740
  H        2.4452760    -1.2187020     1.2419880
  H        3.8277650    -0.0076460     1.2704030
  H        0.1039660     2.4659580    -0.0000030
  H       -2.3510000     2.0273860     0.0000010
  H       -1.4419230    -2.1762520     0.0000020
  H       -4.0731050    -0.0303320     0.8832920
  H       -3.7381210    -1.5268000     0.0000420
  H       -4.0730850    -0.0304030    -0.8833370
units angstrom
no_reorient  #important for SAPT in psi4, default
symmetry c1  #important for SAPT in psi4, default
}

set PROPERTIES_ORIGIN ["COM"]
properties('MP2/aug-cc-pvtz', properties = ['dipole'])
--------------------------------------------------------------------------

    Molecular point group: c1
  Charge       = 0
  Multiplicity = 1
  Basis Set: AUG-CC-PVTZ
    Blend: AUG-CC-PVTZ
  Basis Set: (AUG-CC-PVTZ AUX)
    Blend: AUG-CC-PVTZ-JKFIT

    Orbital Energies [Eh]
    ---------------------

    Doubly Occupied:

       1A    -15.557044     2A    -11.280525     3A    -11.267926
       4A    -11.250973     5A    -11.239221     6A    -11.232867
       7A    -11.231553     8A    -11.229098     9A    -11.219978
      10A    -11.218836    11A     -1.247475    12A     -1.144164
      13A     -1.091529    14A     -1.039080    15A     -0.943876
      16A     -0.865243    17A     -0.833266    18A     -0.815837
      19A     -0.793885    20A     -0.698920    21A     -0.664014
      22A     -0.644016    23A     -0.624835    24A     -0.614483
      25A     -0.583192    26A     -0.564843    27A     -0.548191
      28A     -0.529573    29A     -0.526361    30A     -0.506345
      31A     -0.489589    32A     -0.433949    33A     -0.421148
      34A     -0.398470    35A     -0.371868    36A     -0.316839

  @DF-RHF Final Energy:  -401.74931962732586

   => Energetics <=

    Nuclear Repulsion Energy =            487.0457477768750891
    One-Electron Energy =               -1508.7121091820879428
    Two-Electron Energy =                 619.9170417778869933
    Total Energy =                       -401.7493196273259173
  Basis Set: (AUG-CC-PVTZ AUX)
    Blend: AUG-CC-PVTZ-RI
    Molecular point group: c1

    Geometry (in Angstrom), charge = 0, multiplicity = 1:

       Center              X                  Y                   Z               Mass
    ------------   -----------------  -----------------  -----------------  -----------------
         N            0.170559885389    -0.918943528427    -0.003452962211    14.003074004430
         C            2.200760585389     0.642769371573     0.034819837789    12.000000000000
         C            2.946502885389    -0.411781528427    -0.750872962211    12.000000000000
         C            2.946501885389    -0.411773528427     0.743976037789    12.000000000000
         C            0.601273885389     0.358582471573    -0.003453962211    12.000000000000
         C           -0.291868114611     1.438771471573    -0.003452962211    12.000000000000
         C           -1.660572114611     1.190864471573    -0.003449962211    12.000000000000
         C           -2.125229114611    -0.129314528427    -0.003447962211    12.000000000000
         C           -1.154610114611    -1.136348528427    -0.003449962211    12.000000000000
         C           -3.594071114611    -0.453015528427    -0.003450962211    12.000000000000
         H            2.387058885389     1.605294471573    -0.003459962211     1.007825032230
         H            3.811147885389    -0.015421528427    -1.273851962211     1.007825032230
         H            2.428655885389    -1.226475528427    -1.245424962211     1.007825032230
         H            2.428656885389    -1.226463528427     1.238537037789     1.007825032230
         H            3.811145885389    -0.015407528427     1.266952037789     1.007825032230
         H            0.087346885389     2.458196471573    -0.003453962211     1.007825032230
         H           -2.367619114611     2.019624471573    -0.003449962211     1.007825032230
         H           -1.458542114611    -2.184013528427    -0.003448962211     1.007825032230
         H           -4.089724114611    -0.038093528427     0.879841037789     1.007825032230
         H           -3.754740114611    -1.534561528427    -0.003408962211     1.007825032230
         H           -4.089704114611    -0.038164528427    -0.886787962211     1.007825032230

  Basis Set: AUG-CC-PVTZ
    Blend: AUG-CC-PVTZ
  Basis Set: (AUG-CC-PVTZ AUX)
    Blend: AUG-CC-PVTZ-JKFIT
	 Reference Energy          =    -401.7493196273258604 [Eh]
	 Singles Energy            =      -0.0000000000000000 [Eh]
	 Same-Spin Energy          =      -0.4455251855536350 [Eh]
	 Opposite-Spin Energy      =      -1.4318040289933636 [Eh]
	 Correlation Energy        =      -1.8773292145469984 [Eh]
	 Total Energy              =    -403.6266488418728500 [Eh]

	 ================> DF-SCS-MP2 Energies <==================
	-----------------------------------------------------------
	 SCS Same-Spin Scale       =       0.3333333333333333 [-]
	 SCS Opposite-Spin Scale   =       1.2000000000000000 [-]
	 SCS Same-Spin Energy      =      -0.1485083951845450 [Eh]
	 SCS Opposite-Spin Energy  =      -1.7181648347920362 [Eh]
	 SCS Correlation Energy    =      -1.8666732299765811 [Eh]
	 SCS Total Energy          =    -403.6159928573024445 [Eh]
	-----------------------------------------------------------

  Dipole Moment: [D]
     X:    -1.4118      Y:     1.4956      Z:     0.0246     Total:     2.0568

*** Psi4 exiting successfully. Buy a developer a beer!
