                               Psi4 1.4a3.dev225

  ==> Input File <==

--------------------------------------------------------------------------
#psi4
#
memory 32 gb

molecule  {
0 1
  N        0.1871790    -0.9111820    -0.0000020
  C        2.0846610     0.5733200    -0.0000030
  C        2.9631220    -0.4040200    -0.7474220
  C        2.9631210    -0.4040120     0.7474270
  C        0.6178930     0.3663440    -0.0000030
  C       -0.3071103     1.4850669    -0.0000020
  C       -1.6439530     1.1986260     0.0000010
  C       -2.1086100    -0.1215530     0.0000030
  C       -1.1379910    -1.1285870     0.0000010
  C       -3.5774520    -0.4452540     0.0000000
  H        2.4036780     1.6130560    -0.0000090
  H        3.8277670    -0.0076600    -1.2704010
  H        2.4452750    -1.2187140    -1.2419740
  H        2.4452760    -1.2187020     1.2419880
  H        3.8277650    -0.0076460     1.2704030
  H        0.1039660     2.4659580    -0.0000030
  H       -2.3510000     2.0273860     0.0000010
  H       -1.4419230    -2.1762520     0.0000020
  H       -4.0731050    -0.0303320     0.8832920
  H       -3.7381210    -1.5268000     0.0000420
  H       -4.0730850    -0.0304030    -0.8833370
units angstrom
no_reorient  #important for SAPT in psi4, default
symmetry c1  #important for SAPT in psi4, default
}

set PROPERTIES_ORIGIN ["COM"]
properties('MP2/aug-cc-pvtz', properties = ['dipole'])
--------------------------------------------------------------------------

    Molecular point group: c1
  Charge       = 0
  Multiplicity = 1
  Basis Set: AUG-CC-PVTZ
    Blend: AUG-CC-PVTZ
  Basis Set: (AUG-CC-PVTZ AUX)
    Blend: AUG-CC-PVTZ-JKFIT

    Orbital Energies [Eh]
    ---------------------

    Doubly Occupied:

       1A    -15.555350     2A    -11.282889     3A    -11.266440
       4A    -11.248450     5A    -11.238139     6A    -11.234968
       7A    -11.232913     8A    -11.228535     9A    -11.222914
      10A    -11.222220    11A     -1.249172    12A     -1.141855
      13A     -1.093114    14A     -1.039810    15A     -0.950096
      16A     -0.865730    17A     -0.841686    18A     -0.816016
      19A     -0.779340    20A     -0.700830    21A     -0.666807
      22A     -0.640165    23A     -0.632757    24A     -0.597225
      25A     -0.582749    26A     -0.562876    27A     -0.548136
      28A     -0.533739    29A     -0.528614    30A     -0.504581
      31A     -0.503195    32A     -0.430281    33A     -0.428534
      34A     -0.403711    35A     -0.376363    36A     -0.308267

  @DF-RHF Final Energy:  -401.77075865011983

   => Energetics <=

    Nuclear Repulsion Energy =            488.3616560909401301
    One-Electron Energy =               -1511.3479008442702707
    Two-Electron Energy =                 621.2154861032103099
    Total Energy =                       -401.7707586501197738
  Basis Set: (AUG-CC-PVTZ AUX)
    Blend: AUG-CC-PVTZ-RI
    Molecular point group: c1

    Geometry (in Angstrom), charge = 0, multiplicity = 1:

       Center              X                  Y                   Z               Mass
    ------------   -----------------  -----------------  -----------------  -----------------
         N            0.185399261923    -0.915456211825    -0.000002000189    14.003074004430
         C            2.082881261923     0.569045788175    -0.000003000189    12.000000000000
         C            2.961342261923    -0.408294211825    -0.747422000189    12.000000000000
         C            2.961341261923    -0.408286211825     0.747426999811    12.000000000000
         C            0.616113261923     0.362069788175    -0.000003000189    12.000000000000
         C           -0.308890038077     1.480792688175    -0.000002000189    12.000000000000
         C           -1.645732738077     1.194351788175     0.000000999811    12.000000000000
         C           -2.110389738077    -0.125827211825     0.000002999811    12.000000000000
         C           -1.139770738077    -1.132861211825     0.000000999811    12.000000000000
         C           -3.579231738077    -0.449528211825    -0.000000000189    12.000000000000
         H            2.401898261923     1.608781788175    -0.000009000189     1.007825032230
         H            3.825987261923    -0.011934211825    -1.270401000189     1.007825032230
         H            2.443495261923    -1.222988211825    -1.241974000189     1.007825032230
         H            2.443496261923    -1.222976211825     1.241987999811     1.007825032230
         H            3.825985261923    -0.011920211825     1.270402999811     1.007825032230
         H            0.102186261923     2.461683788175    -0.000003000189     1.007825032230
         H           -2.352779738077     2.023111788175     0.000000999811     1.007825032230
         H           -1.443702738077    -2.180526211825     0.000001999811     1.007825032230
         H           -4.074884738077    -0.034606211825     0.883291999811     1.007825032230
         H           -3.739900738077    -1.531074211825     0.000041999811     1.007825032230
         H           -4.074864738077    -0.034677211825    -0.883337000189     1.007825032230

  Basis Set: AUG-CC-PVTZ
    Blend: AUG-CC-PVTZ
  Basis Set: (AUG-CC-PVTZ AUX)
    Blend: AUG-CC-PVTZ-JKFIT
	 Reference Energy          =    -401.7707586501198307 [Eh]
	 Singles Energy            =      -0.0000000000000000 [Eh]
	 Same-Spin Energy          =      -0.4457845025699728 [Eh]
	 Opposite-Spin Energy      =      -1.4316564100626952 [Eh]
	 Correlation Energy        =      -1.8774409126326681 [Eh]
	 Total Energy              =    -403.6481995627524952 [Eh]

	 ================> DF-SCS-MP2 Energies <==================
	-----------------------------------------------------------
	 SCS Same-Spin Scale       =       0.3333333333333333 [-]
	 SCS Opposite-Spin Scale   =       1.2000000000000000 [-]
	 SCS Same-Spin Energy      =      -0.1485948341899909 [Eh]
	 SCS Opposite-Spin Energy  =      -1.7179876920752342 [Eh]
	 SCS Correlation Energy    =      -1.8665825262652251 [Eh]
	 SCS Total Energy          =    -403.6373411763850640 [Eh]
	-----------------------------------------------------------

  Dipole Moment: [D]
     X:    -1.2237      Y:     1.4654      Z:    -0.0000     Total:     1.9092

*** Psi4 exiting successfully. Buy a developer a beer!
