                               Psi4 1.4a3.dev225

  ==> Input File <==

--------------------------------------------------------------------------
#psi4
#
memory 32 gb

molecule  {
0 1
  N        0.1871790    -0.9111820    -0.0000020
  C        2.0846610     0.5733200    -0.0000030
  C        2.9631220    -0.4040200    -0.7474220
  C        2.9631210    -0.4040120     0.7474270
  C        0.4198550     0.3383988    -0.0000030
  C       -0.2752490     1.4465330    -0.0000020
  C       -1.6439530     1.1986260     0.0000010
  C       -2.1086100    -0.1215530     0.0000030
  C       -1.1379910    -1.1285870     0.0000010
  C       -3.5774520    -0.4452540     0.0000000
  H        2.4036780     1.6130560    -0.0000090
  H        3.8277670    -0.0076600    -1.2704010
  H        2.4452750    -1.2187140    -1.2419740
  H        2.4452760    -1.2187020     1.2419880
  H        3.8277650    -0.0076460     1.2704030
  H        0.1039660     2.4659580    -0.0000030
  H       -2.3510000     2.0273860     0.0000010
  H       -1.4419230    -2.1762520     0.0000020
  H       -4.0731050    -0.0303320     0.8832920
  H       -3.7381210    -1.5268000     0.0000420
  H       -4.0730850    -0.0304030    -0.8833370
units angstrom
no_reorient  #important for SAPT in psi4, default
symmetry c1  #important for SAPT in psi4, default
}

set PROPERTIES_ORIGIN ["COM"]
properties('MP2/aug-cc-pvtz', properties = ['dipole'])
--------------------------------------------------------------------------

    Molecular point group: c1
  Charge       = 0
  Multiplicity = 1
  Basis Set: AUG-CC-PVTZ
    Blend: AUG-CC-PVTZ
  Basis Set: (AUG-CC-PVTZ AUX)
    Blend: AUG-CC-PVTZ-JKFIT

    Orbital Energies [Eh]
    ---------------------

    Doubly Occupied:

       1A    -15.559702     2A    -11.274443     3A    -11.268622
       4A    -11.258261     5A    -11.243743     6A    -11.233046
       7A    -11.229227     8A    -11.224812     9A    -11.210333
      10A    -11.209639    11A     -1.287787    12A     -1.122581
      13A     -1.108593    14A     -1.057230    15A     -0.947085
      16A     -0.875928    17A     -0.829897    18A     -0.803733
      19A     -0.778055    20A     -0.702086    21A     -0.671717
      22A     -0.645067    23A     -0.629585    24A     -0.591295
      25A     -0.589326    26A     -0.569785    27A     -0.555097
      28A     -0.549923    29A     -0.529468    30A     -0.497384
      31A     -0.471617    32A     -0.429558    33A     -0.411388
      34A     -0.391154    35A     -0.383542    36A     -0.331818

  @DF-RHF Final Energy:  -401.73345007282910

   => Energetics <=

    Nuclear Repulsion Energy =            490.4190078219947395
    One-Electron Energy =               -1515.3598594481686632
    Two-Electron Energy =                 623.2074015533448801
    Total Energy =                       -401.7334500728291005
  Basis Set: (AUG-CC-PVTZ AUX)
    Blend: AUG-CC-PVTZ-RI
    Molecular point group: c1

    Geometry (in Angstrom), charge = 0, multiplicity = 1:

       Center              X                  Y                   Z               Mass
    ------------   -----------------  -----------------  -----------------  -----------------
         N            0.200382605116    -0.909462115358    -0.000002000189    14.003074004430
         C            2.097864605116     0.575039884642    -0.000003000189    12.000000000000
         C            2.976325605116    -0.402300115358    -0.747422000189    12.000000000000
         C            2.976324605116    -0.402292115358     0.747426999811    12.000000000000
         C            0.433058605116     0.340118684642    -0.000003000189    12.000000000000
         C           -0.262045394884     1.448252884642    -0.000002000189    12.000000000000
         C           -1.630749394884     1.200345884642     0.000000999811    12.000000000000
         C           -2.095406394884    -0.119833115358     0.000002999811    12.000000000000
         C           -1.124787394884    -1.126867115358     0.000000999811    12.000000000000
         C           -3.564248394884    -0.443534115358    -0.000000000189    12.000000000000
         H            2.416881605116     1.614775884642    -0.000009000189     1.007825032230
         H            3.840970605116    -0.005940115358    -1.270401000189     1.007825032230
         H            2.458478605116    -1.216994115358    -1.241974000189     1.007825032230
         H            2.458479605116    -1.216982115358     1.241987999811     1.007825032230
         H            3.840968605116    -0.005926115358     1.270402999811     1.007825032230
         H            0.117169605116     2.467677884642    -0.000003000189     1.007825032230
         H           -2.337796394884     2.029105884642     0.000000999811     1.007825032230
         H           -1.428719394884    -2.174532115358     0.000001999811     1.007825032230
         H           -4.059901394884    -0.028612115358     0.883291999811     1.007825032230
         H           -3.724917394884    -1.525080115358     0.000041999811     1.007825032230
         H           -4.059881394884    -0.028683115358    -0.883337000189     1.007825032230

  Basis Set: AUG-CC-PVTZ
    Blend: AUG-CC-PVTZ
  Basis Set: (AUG-CC-PVTZ AUX)
    Blend: AUG-CC-PVTZ-JKFIT
	 Reference Energy          =    -401.7334500728291005 [Eh]
	 Singles Energy            =      -0.0000000000000000 [Eh]
	 Same-Spin Energy          =      -0.4453826974798143 [Eh]
	 Opposite-Spin Energy      =      -1.4314145161917855 [Eh]
	 Correlation Energy        =      -1.8767972136715998 [Eh]
	 Total Energy              =    -403.6102472865006803 [Eh]

	 ================> DF-SCS-MP2 Energies <==================
	-----------------------------------------------------------
	 SCS Same-Spin Scale       =       0.3333333333333333 [-]
	 SCS Opposite-Spin Scale   =       1.2000000000000000 [-]
	 SCS Same-Spin Energy      =      -0.1484608991599381 [Eh]
	 SCS Opposite-Spin Energy  =      -1.7176974194301426 [Eh]
	 SCS Correlation Energy    =      -1.8661583185900807 [Eh]
	 SCS Total Energy          =    -403.5996083914191672 [Eh]
	-----------------------------------------------------------

  Dipole Moment: [D]
     X:    -2.2288      Y:     1.4694      Z:    -0.0000     Total:     2.6696

*** Psi4 exiting successfully. Buy a developer a beer!
