                               Psi4 1.4a3.dev225

  ==> Input File <==

--------------------------------------------------------------------------
#psi4
#
memory 32 gb

molecule  {
0 1
  N        0.1871790    -0.9111820    -0.0000020
  C        2.0846610     0.5733200    -0.0000030
  C        2.9631220    -0.4040200    -0.7474220
  C        2.9631210    -0.4040120     0.7474270
  C        0.6178930     0.3663440    -0.0000030
  C       -0.2752490     1.4465330    -0.0000020
  C       -1.6439530     1.1986260     0.0000010
  C       -2.0996940    -0.2002975     0.1360391
  C       -1.1379910    -1.1285870     0.0000010
  C       -3.5774520    -0.4452540     0.0000000
  H        2.4036780     1.6130560    -0.0000090
  H        3.8277670    -0.0076600    -1.2704010
  H        2.4452750    -1.2187140    -1.2419740
  H        2.4452760    -1.2187020     1.2419880
  H        3.8277650    -0.0076460     1.2704030
  H        0.1039660     2.4659580    -0.0000030
  H       -2.3510000     2.0273860     0.0000010
  H       -1.4419230    -2.1762520     0.0000020
  H       -4.0731050    -0.0303320     0.8832920
  H       -3.7381210    -1.5268000     0.0000420
  H       -4.0730850    -0.0304030    -0.8833370
units angstrom
no_reorient  #important for SAPT in psi4, default
symmetry c1  #important for SAPT in psi4, default
}

set PROPERTIES_ORIGIN ["COM"]
properties('MP2/aug-cc-pvtz', properties = ['dipole'])
--------------------------------------------------------------------------

    Molecular point group: c1
  Charge       = 0
  Multiplicity = 1
  Basis Set: AUG-CC-PVTZ
    Blend: AUG-CC-PVTZ
  Basis Set: (AUG-CC-PVTZ AUX)
    Blend: AUG-CC-PVTZ-JKFIT

    Orbital Energies [Eh]
    ---------------------

    Doubly Occupied:

       1A    -15.552368     2A    -11.279827     3A    -11.261443
       4A    -11.258413     5A    -11.238859     6A    -11.235304
       7A    -11.232871     8A    -11.228642     9A    -11.223047
      10A    -11.222342    11A     -1.250867    12A     -1.142202
      13A     -1.083841    14A     -1.047195    15A     -0.950499
      16A     -0.875861    17A     -0.830123    18A     -0.816080
      19A     -0.783556    20A     -0.701915    21A     -0.663850
      22A     -0.639448    23A     -0.626021    24A     -0.601761
      25A     -0.583455    26A     -0.569371    27A     -0.553616
      28A     -0.535286    29A     -0.520364    30A     -0.504972
      31A     -0.485595    32A     -0.431368    33A     -0.427573
      34A     -0.408174    35A     -0.366845    36A     -0.318265

  @DF-RHF Final Energy:  -401.76017706170148

   => Energetics <=

    Nuclear Repulsion Energy =            488.7896023751161465
    One-Electron Energy =               -1512.1971203899315697
    Two-Electron Energy =                 621.6473409531139396
    Total Energy =                       -401.7601770617014836
  Basis Set: (AUG-CC-PVTZ AUX)
    Blend: AUG-CC-PVTZ-RI
    Molecular point group: c1

    Geometry (in Angstrom), charge = 0, multiplicity = 1:

       Center              X                  Y                   Z               Mass
    ------------   -----------------  -----------------  -----------------  -----------------
         N            0.181722571507    -0.904881790043    -0.012267712367    14.003074004430
         C            2.079204571507     0.579620209957    -0.012268712367    12.000000000000
         C            2.957665571507    -0.397719790043    -0.759687712367    12.000000000000
         C            2.957664571507    -0.397711790043     0.735161287633    12.000000000000
         C            0.612436571507     0.372644209957    -0.012268712367    12.000000000000
         C           -0.280705428493     1.452833209957    -0.012267712367    12.000000000000
         C           -1.649409428493     1.204926209957    -0.012264712367    12.000000000000
         C           -2.105150428493    -0.193997290043     0.123773387633    12.000000000000
         C           -1.143447428493    -1.122286790043    -0.012264712367    12.000000000000
         C           -3.582908428493    -0.438953790043    -0.012265712367    12.000000000000
         H            2.398221571507     1.619356209957    -0.012274712367     1.007825032230
         H            3.822310571507    -0.001359790043    -1.282666712367     1.007825032230
         H            2.439818571507    -1.212413790043    -1.254239712367     1.007825032230
         H            2.439819571507    -1.212401790043     1.229722287633     1.007825032230
         H            3.822308571507    -0.001345790043     1.258137287633     1.007825032230
         H            0.098509571507     2.472258209957    -0.012268712367     1.007825032230
         H           -2.356456428493     2.033686209957    -0.012264712367     1.007825032230
         H           -1.447379428493    -2.169951790043    -0.012263712367     1.007825032230
         H           -4.078561428493    -0.024031790043     0.871026287633     1.007825032230
         H           -3.743577428493    -1.520499790043    -0.012223712367     1.007825032230
         H           -4.078541428493    -0.024102790043    -0.895602712367     1.007825032230

  Basis Set: AUG-CC-PVTZ
    Blend: AUG-CC-PVTZ
  Basis Set: (AUG-CC-PVTZ AUX)
    Blend: AUG-CC-PVTZ-JKFIT
	 Reference Energy          =    -401.7601770617014836 [Eh]
	 Singles Energy            =      -0.0000000000000000 [Eh]
	 Same-Spin Energy          =      -0.4457164298655074 [Eh]
	 Opposite-Spin Energy      =      -1.4323192706576311 [Eh]
	 Correlation Energy        =      -1.8780357005231385 [Eh]
	 Total Energy              =    -403.6382127622246117 [Eh]

	 ================> DF-SCS-MP2 Energies <==================
	-----------------------------------------------------------
	 SCS Same-Spin Scale       =       0.3333333333333333 [-]
	 SCS Opposite-Spin Scale   =       1.2000000000000000 [-]
	 SCS Same-Spin Energy      =      -0.1485721432885025 [Eh]
	 SCS Opposite-Spin Energy  =      -1.7187831247891572 [Eh]
	 SCS Correlation Energy    =      -1.8673552680776597 [Eh]
	 SCS Total Energy          =    -403.6275323297791715 [Eh]
	-----------------------------------------------------------

  Dipole Moment: [D]
     X:    -1.2075      Y:     1.5415      Z:    -0.0372     Total:     1.9585

*** Psi4 exiting successfully. Buy a developer a beer!
