                               Psi4 1.4a3.dev225

  ==> Input File <==

--------------------------------------------------------------------------
#psi4
#
memory 32 gb

molecule  {
0 1
  N        0.1871790    -0.9111820    -0.0000020
  C        2.0846610     0.5733200    -0.0000030
  C        2.9631220    -0.4040200    -0.7474220
  C        2.9631210    -0.4040120     0.7474270
  C        0.6260099     0.3152806    -0.0000027
  C       -0.2752490     1.4465330    -0.0000020
  C       -1.6439530     1.1986260     0.0000010
  C       -2.1086100    -0.1215530     0.0000030
  C       -1.1379910    -1.1285870     0.0000010
  C       -3.5774520    -0.4452540     0.0000000
  H        2.4036780     1.6130560    -0.0000090
  H        3.8277670    -0.0076600    -1.2704010
  H        2.4452750    -1.2187140    -1.2419740
  H        2.4452760    -1.2187020     1.2419880
  H        3.8277650    -0.0076460     1.2704030
  H        0.1039660     2.4659580    -0.0000030
  H       -2.3510000     2.0273860     0.0000010
  H       -1.4419230    -2.1762520     0.0000020
  H       -4.0731050    -0.0303320     0.8832920
  H       -3.7381210    -1.5268000     0.0000420
  H       -4.0730850    -0.0304030    -0.8833370
units angstrom
no_reorient  #important for SAPT in psi4, default
symmetry c1  #important for SAPT in psi4, default
}

set PROPERTIES_ORIGIN ["COM"]
properties('MP2/aug-cc-pvtz', properties = ['dipole'])
--------------------------------------------------------------------------

    Molecular point group: c1
  Charge       = 0
  Multiplicity = 1
  Basis Set: AUG-CC-PVTZ
    Blend: AUG-CC-PVTZ
  Basis Set: (AUG-CC-PVTZ AUX)
    Blend: AUG-CC-PVTZ-JKFIT

    Orbital Energies [Eh]
    ---------------------

    Doubly Occupied:

       1A    -15.552101     2A    -11.277651     3A    -11.266704
       4A    -11.250430     5A    -11.239047     6A    -11.237576
       7A    -11.231607     8A    -11.228882     9A    -11.221901
      10A    -11.221208    11A     -1.261737    12A     -1.142102
      13A     -1.093955    14A     -1.035881    15A     -0.951615
      16A     -0.867895    17A     -0.839832    18A     -0.815629
      19A     -0.780134    20A     -0.703063    21A     -0.665683
      22A     -0.643468    23A     -0.625897    24A     -0.597183
      25A     -0.583724    26A     -0.565026    27A     -0.548585
      28A     -0.538908    29A     -0.529404    30A     -0.504764
      31A     -0.503773    32A     -0.429626    33A     -0.427810
      34A     -0.400474    35A     -0.374653    36A     -0.310399

  @DF-RHF Final Energy:  -401.77217735078506

   => Energetics <=

    Nuclear Repulsion Energy =            489.3076003812326462
    One-Electron Energy =               -1513.2229024948269398
    Two-Electron Energy =                 622.1431247628092933
    Total Energy =                       -401.7721773507850003
  Basis Set: (AUG-CC-PVTZ AUX)
    Blend: AUG-CC-PVTZ-RI
    Molecular point group: c1

    Geometry (in Angstrom), charge = 0, multiplicity = 1:

       Center              X                  Y                   Z               Mass
    ------------   -----------------  -----------------  -----------------  -----------------
         N            0.181794622459    -0.907377659929    -0.000002027239    14.003074004430
         C            2.079276622459     0.577124340071    -0.000003027239    12.000000000000
         C            2.957737622459    -0.400215659929    -0.747422027239    12.000000000000
         C            2.957736622459    -0.400207659929     0.747426972761    12.000000000000
         C            0.620625522459     0.319084940071    -0.000002727239    12.000000000000
         C           -0.280633377541     1.450337340071    -0.000002027239    12.000000000000
         C           -1.649337377541     1.202430340071     0.000000972761    12.000000000000
         C           -2.113994377541    -0.117748659929     0.000002972761    12.000000000000
         C           -1.143375377541    -1.124782659929     0.000000972761    12.000000000000
         C           -3.582836377541    -0.441449659929    -0.000000027239    12.000000000000
         H            2.398293622459     1.616860340071    -0.000009027239     1.007825032230
         H            3.822382622459    -0.003855659929    -1.270401027239     1.007825032230
         H            2.439890622459    -1.214909659929    -1.241974027239     1.007825032230
         H            2.439891622459    -1.214897659929     1.241987972761     1.007825032230
         H            3.822380622459    -0.003841659929     1.270402972761     1.007825032230
         H            0.098581622459     2.469762340071    -0.000003027239     1.007825032230
         H           -2.356384377541     2.031190340071     0.000000972761     1.007825032230
         H           -1.447307377541    -2.172447659929     0.000001972761     1.007825032230
         H           -4.078489377541    -0.026527659929     0.883291972761     1.007825032230
         H           -3.743505377541    -1.522995659929     0.000041972761     1.007825032230
         H           -4.078469377541    -0.026598659929    -0.883337027239     1.007825032230

  Basis Set: AUG-CC-PVTZ
    Blend: AUG-CC-PVTZ
  Basis Set: (AUG-CC-PVTZ AUX)
    Blend: AUG-CC-PVTZ-JKFIT
	 Reference Energy          =    -401.7721773507850571 [Eh]
	 Singles Energy            =      -0.0000000000000000 [Eh]
	 Same-Spin Energy          =      -0.4454961068030708 [Eh]
	 Opposite-Spin Energy      =      -1.4308957316870679 [Eh]
	 Correlation Energy        =      -1.8763918384901386 [Eh]
	 Total Energy              =    -403.6485691892751788 [Eh]

	 ================> DF-SCS-MP2 Energies <==================
	-----------------------------------------------------------
	 SCS Same-Spin Scale       =       0.3333333333333333 [-]
	 SCS Opposite-Spin Scale   =       1.2000000000000000 [-]
	 SCS Same-Spin Energy      =      -0.1484987022676903 [Eh]
	 SCS Opposite-Spin Energy  =      -1.7170748780244813 [Eh]
	 SCS Correlation Energy    =      -1.8655735802921716 [Eh]
	 SCS Total Energy          =    -403.6377509310772211 [Eh]
	-----------------------------------------------------------

  Dipole Moment: [D]
     X:    -1.2478      Y:     1.4621      Z:    -0.0000     Total:     1.9222

*** Psi4 exiting successfully. Buy a developer a beer!
