                               Psi4 1.4a3.dev225

  ==> Input File <==

--------------------------------------------------------------------------
#psi4
#
memory 32 gb

molecule  {
0 1
  N        0.1871790    -0.9111820    -0.0000020
  C        2.0846610     0.5733200    -0.0000030
  C        2.9631220    -0.4040200    -0.7474220
  C        2.9631210    -0.4040120     0.7474270
  C        0.6178930     0.3663440    -0.0000030
  C       -0.2752490     1.4465330    -0.0000020
  C       -1.6439530     1.1986260     0.0000010
  C       -2.1086100    -0.1215530     0.0000030
  C       -1.1379910    -1.1285870     0.0000010
  C       -3.5774520    -0.4452540     0.0000000
  H        2.4036780     1.6130560    -0.0000090
  H        3.8675956     0.0105977    -1.2944912
  H        2.4452750    -1.2187140    -1.2419740
  H        2.4452760    -1.2187020     1.2419880
  H        3.8277650    -0.0076460     1.2704030
  H        0.1039660     2.4659580    -0.0000030
  H       -2.3510000     2.0273860     0.0000010
  H       -1.4419230    -2.1762520     0.0000020
  H       -4.0731050    -0.0303320     0.8832920
  H       -3.7381210    -1.5268000     0.0000420
  H       -4.0730850    -0.0304030    -0.8833370
units angstrom
no_reorient  #important for SAPT in psi4, default
symmetry c1  #important for SAPT in psi4, default
}

set PROPERTIES_ORIGIN ["COM"]
properties('MP2/aug-cc-pvtz', properties = ['dipole'])
--------------------------------------------------------------------------

    Molecular point group: c1
  Charge       = 0
  Multiplicity = 1
  Basis Set: AUG-CC-PVTZ
    Blend: AUG-CC-PVTZ
  Basis Set: (AUG-CC-PVTZ AUX)
    Blend: AUG-CC-PVTZ-JKFIT

    Orbital Energies [Eh]
    ---------------------

    Doubly Occupied:

       1A    -15.555985     2A    -11.276360     3A    -11.267942
       4A    -11.251866     5A    -11.239624     6A    -11.234026
       7A    -11.231763     8A    -11.229405     9A    -11.226977
      10A    -11.221610    11A     -1.251436    12A     -1.140616
      13A     -1.091751    14A     -1.042541    15A     -0.951024
      16A     -0.867411    17A     -0.839941    18A     -0.810856
      19A     -0.781041    20A     -0.700817    21A     -0.666355
      22A     -0.636497    23A     -0.625531    24A     -0.601144
      25A     -0.583837    26A     -0.564791    27A     -0.549434
      28A     -0.534479    29A     -0.527715    30A     -0.501663
      31A     -0.497988    32A     -0.429461    33A     -0.427442
      34A     -0.406630    35A     -0.372631    36A     -0.312891

  @DF-RHF Final Energy:  -401.77141465423335

   => Energetics <=

    Nuclear Repulsion Energy =            488.7787950065914515
    One-Electron Energy =               -1512.1974534839289390
    Two-Electron Energy =                 621.6472438231040769
    Total Energy =                       -401.7714146542333538
  Basis Set: (AUG-CC-PVTZ AUX)
    Blend: AUG-CC-PVTZ-RI
    Molecular point group: c1

    Geometry (in Angstrom), charge = 0, multiplicity = 1:

       Center              X                  Y                   Z               Mass
    ------------   -----------------  -----------------  -----------------  -----------------
         N            0.182224879473    -0.912120055309     0.000180424199    14.003074004430
         C            2.079706879473     0.572381944691     0.000179424199    12.000000000000
         C            2.958167879473    -0.404958055309    -0.747239575801    12.000000000000
         C            2.958166879473    -0.404950055309     0.747609424199    12.000000000000
         C            0.612938879473     0.365405944691     0.000179424199    12.000000000000
         C           -0.280203120527     1.445594944691     0.000180424199    12.000000000000
         C           -1.648907120527     1.197687944691     0.000183424199    12.000000000000
         C           -2.113564120527    -0.122491055309     0.000185424199    12.000000000000
         C           -1.142945120527    -1.129525055309     0.000183424199    12.000000000000
         C           -3.582406120527    -0.446192055309     0.000182424199    12.000000000000
         H            2.398723879473     1.612117944691     0.000173424199     1.007825032230
         H            3.862641479473     0.009659644691    -1.294308775801     1.007825032230
         H            2.440320879473    -1.219652055309    -1.241791575801     1.007825032230
         H            2.440321879473    -1.219640055309     1.242170424199     1.007825032230
         H            3.822810879473    -0.008584055309     1.270585424199     1.007825032230
         H            0.099011879473     2.465019944691     0.000179424199     1.007825032230
         H           -2.355954120527     2.026447944691     0.000183424199     1.007825032230
         H           -1.446877120527    -2.177190055309     0.000184424199     1.007825032230
         H           -4.078059120527    -0.031270055309     0.883474424199     1.007825032230
         H           -3.743075120527    -1.527738055309     0.000224424199     1.007825032230
         H           -4.078039120527    -0.031341055309    -0.883154575801     1.007825032230

  Basis Set: AUG-CC-PVTZ
    Blend: AUG-CC-PVTZ
  Basis Set: (AUG-CC-PVTZ AUX)
    Blend: AUG-CC-PVTZ-JKFIT
	 Reference Energy          =    -401.7714146542333538 [Eh]
	 Singles Energy            =      -0.0000000000000000 [Eh]
	 Same-Spin Energy          =      -0.4459702551972006 [Eh]
	 Opposite-Spin Energy      =      -1.4319894800128226 [Eh]
	 Correlation Energy        =      -1.8779597352100232 [Eh]
	 Total Energy              =    -403.6493743894433806 [Eh]

	 ================> DF-SCS-MP2 Energies <==================
	-----------------------------------------------------------
	 SCS Same-Spin Scale       =       0.3333333333333333 [-]
	 SCS Opposite-Spin Scale   =       1.2000000000000000 [-]
	 SCS Same-Spin Energy      =      -0.1486567517324002 [Eh]
	 SCS Opposite-Spin Energy  =      -1.7183873760153869 [Eh]
	 SCS Correlation Energy    =      -1.8670441277477872 [Eh]
	 SCS Total Energy          =    -403.6384587819811145 [Eh]
	-----------------------------------------------------------

  Dipole Moment: [D]
     X:    -1.3389      Y:     1.4549      Z:     0.0184     Total:     1.9773

*** Psi4 exiting successfully. Buy a developer a beer!
