                               Psi4 1.4a3.dev225

  ==> Input File <==

--------------------------------------------------------------------------
#psi4
#
memory 32 gb

molecule  {
0 1
  N        0.1871790    -0.9111820    -0.0000020
  C        2.0846610     0.5733200    -0.0000030
  C        2.9631220    -0.4040200    -0.7474220
  C        2.9631210    -0.4040120     0.7474270
  C        0.6178930     0.3663440    -0.0000030
  C       -0.2752490     1.4465330    -0.0000020
  C       -1.6439530     1.1986260     0.0000010
  C       -2.1086100    -0.1215530     0.0000030
  C       -1.1379910    -1.1285870     0.0000010
  C       -3.5774520    -0.4452540     0.0000000
  H        2.4036780     1.6130560    -0.0000090
  H        3.8277670    -0.0076600    -1.2704010
  H        2.4452750    -1.2187140    -1.2419740
  H        2.4452760    -1.2187020     1.2419880
  H        3.8277650    -0.0076460     1.2704030
  H        0.1039660     2.4659580    -0.0000030
  H       -2.3510000     2.0273860     0.0000010
  H       -1.4558538    -2.2242721     0.0000020
  H       -4.0731050    -0.0303320     0.8832920
  H       -3.7381210    -1.5268000     0.0000420
  H       -4.0730850    -0.0304030    -0.8833370
units angstrom
no_reorient  #important for SAPT in psi4, default
symmetry c1  #important for SAPT in psi4, default
}

set PROPERTIES_ORIGIN ["COM"]
properties('MP2/aug-cc-pvtz', properties = ['dipole'])
--------------------------------------------------------------------------

    Molecular point group: c1
  Charge       = 0
  Multiplicity = 1
  Basis Set: AUG-CC-PVTZ
    Blend: AUG-CC-PVTZ
  Basis Set: (AUG-CC-PVTZ AUX)
    Blend: AUG-CC-PVTZ-JKFIT

    Orbital Energies [Eh]
    ---------------------

    Doubly Occupied:

       1A    -15.556314     2A    -11.276648     3A    -11.273550
       4A    -11.252124     5A    -11.240007     6A    -11.234034
       7A    -11.231615     8A    -11.229145     9A    -11.221727
      10A    -11.221034    11A     -1.251472    12A     -1.140957
      13A     -1.091950    14A     -1.041784    15A     -0.950795
      16A     -0.865557    17A     -0.839235    18A     -0.815083
      19A     -0.780864    20A     -0.698572    21A     -0.666849
      22A     -0.639344    23A     -0.623732    24A     -0.598573
      25A     -0.583749    26A     -0.562671    27A     -0.548934
      28A     -0.535711    29A     -0.528232    30A     -0.504323
      31A     -0.497676    32A     -0.429697    33A     -0.427216
      34A     -0.406225    35A     -0.372820    36A     -0.312993

  @DF-RHF Final Energy:  -401.77118710525349

   => Energetics <=

    Nuclear Repulsion Energy =            488.7604474391361578
    One-Electron Energy =               -1512.1608478594853295
    Two-Electron Energy =                 621.6292133150956261
    Total Energy =                       -401.7711871052534889
  Basis Set: (AUG-CC-PVTZ AUX)
    Blend: AUG-CC-PVTZ-RI
    Molecular point group: c1

    Geometry (in Angstrom), charge = 0, multiplicity = 1:

       Center              X                  Y                   Z               Mass
    ------------   -----------------  -----------------  -----------------  -----------------
         N            0.182631975538    -0.911618162959    -0.000002000189    14.003074004430
         C            2.080113975538     0.572883837041    -0.000003000189    12.000000000000
         C            2.958574975538    -0.404456162959    -0.747422000189    12.000000000000
         C            2.958573975538    -0.404448162959     0.747426999811    12.000000000000
         C            0.613345975538     0.365907837041    -0.000003000189    12.000000000000
         C           -0.279796024462     1.446096837041    -0.000002000189    12.000000000000
         C           -1.648500024462     1.198189837041     0.000000999811    12.000000000000
         C           -2.113157024462    -0.121989162959     0.000002999811    12.000000000000
         C           -1.142538024462    -1.129023162959     0.000000999811    12.000000000000
         C           -3.581999024462    -0.445690162959    -0.000000000189    12.000000000000
         H            2.399130975538     1.612619837041    -0.000009000189     1.007825032230
         H            3.823219975538    -0.008096162959    -1.270401000189     1.007825032230
         H            2.440727975538    -1.219150162959    -1.241974000189     1.007825032230
         H            2.440728975538    -1.219138162959     1.241987999811     1.007825032230
         H            3.823217975538    -0.008082162959     1.270402999811     1.007825032230
         H            0.099418975538     2.465521837041    -0.000003000189     1.007825032230
         H           -2.355547024462     2.026949837041     0.000000999811     1.007825032230
         H           -1.460400824462    -2.224708262959     0.000001999811     1.007825032230
         H           -4.077652024462    -0.030768162959     0.883291999811     1.007825032230
         H           -3.742668024462    -1.527236162959     0.000041999811     1.007825032230
         H           -4.077632024462    -0.030839162959    -0.883337000189     1.007825032230

  Basis Set: AUG-CC-PVTZ
    Blend: AUG-CC-PVTZ
  Basis Set: (AUG-CC-PVTZ AUX)
    Blend: AUG-CC-PVTZ-JKFIT
	 Reference Energy          =    -401.7711871052534889 [Eh]
	 Singles Energy            =      -0.0000000000000000 [Eh]
	 Same-Spin Energy          =      -0.4461093390874666 [Eh]
	 Opposite-Spin Energy      =      -1.4321391023393129 [Eh]
	 Correlation Energy        =      -1.8782484414267795 [Eh]
	 Total Energy              =    -403.6494355466802517 [Eh]

	 ================> DF-SCS-MP2 Energies <==================
	-----------------------------------------------------------
	 SCS Same-Spin Scale       =       0.3333333333333333 [-]
	 SCS Opposite-Spin Scale   =       1.2000000000000000 [-]
	 SCS Same-Spin Energy      =      -0.1487031130291555 [Eh]
	 SCS Opposite-Spin Energy  =      -1.7185669228071754 [Eh]
	 SCS Correlation Energy    =      -1.8672700358363310 [Eh]
	 SCS Total Energy          =    -403.6384571410898161 [Eh]
	-----------------------------------------------------------

  Dipole Moment: [D]
     X:    -1.2913      Y:     1.4796      Z:    -0.0000     Total:     1.9639

*** Psi4 exiting successfully. Buy a developer a beer!
