                               Psi4 1.4a3.dev225

  ==> Input File <==

--------------------------------------------------------------------------
#psi4
#
memory 32 gb

molecule  {
0 1
  N        0.1871790    -0.9111820    -0.0000020
  C        2.0846610     0.5733200    -0.0000030
  C        2.9631220    -0.4040200    -0.7474220
  C        2.9631210    -0.4040120     0.7474270
  C        0.6178930     0.3663440    -0.0000030
  C       -0.2752490     1.4465330    -0.0000020
  C       -1.6439530     1.1986260     0.0000010
  C       -2.1086100    -0.1215530     0.0000030
  C       -1.0701082    -1.0584270     0.0000013
  C       -3.5774520    -0.4452540     0.0000000
  H        2.4036780     1.6130560    -0.0000090
  H        3.8277670    -0.0076600    -1.2704010
  H        2.4452750    -1.2187140    -1.2419740
  H        2.4452760    -1.2187020     1.2419880
  H        3.8277650    -0.0076460     1.2704030
  H        0.1039660     2.4659580    -0.0000030
  H       -2.3510000     2.0273860     0.0000010
  H       -1.4419230    -2.1762520     0.0000020
  H       -4.0731050    -0.0303320     0.8832920
  H       -3.7381210    -1.5268000     0.0000420
  H       -4.0730850    -0.0304030    -0.8833370
units angstrom
no_reorient  #important for SAPT in psi4, default
symmetry c1  #important for SAPT in psi4, default
}

set PROPERTIES_ORIGIN ["COM"]
properties('MP2/aug-cc-pvtz', properties = ['dipole'])
--------------------------------------------------------------------------

    Molecular point group: c1
  Charge       = 0
  Multiplicity = 1
  Basis Set: AUG-CC-PVTZ
    Blend: AUG-CC-PVTZ
  Basis Set: (AUG-CC-PVTZ AUX)
    Blend: AUG-CC-PVTZ-JKFIT

    Orbital Energies [Eh]
    ---------------------

    Doubly Occupied:

       1A    -15.552711     2A    -11.277642     3A    -11.268315
       4A    -11.251122     5A    -11.238299     6A    -11.232304
       7A    -11.231886     8A    -11.231260     9A    -11.222864
      10A    -11.222173    11A     -1.277162    12A     -1.143699
      13A     -1.098117    14A     -1.041636    15A     -0.953832
      16A     -0.864331    17A     -0.840818    18A     -0.816288
      19A     -0.787760    20A     -0.699818    21A     -0.669889
      22A     -0.640977    23A     -0.620530    24A     -0.593423
      25A     -0.586575    26A     -0.561935    27A     -0.551998
      28A     -0.544726    29A     -0.528322    30A     -0.506891
      31A     -0.495875    32A     -0.432534    33A     -0.426569
      34A     -0.405699    35A     -0.381831    36A     -0.310399

  @DF-RHF Final Energy:  -401.76370219298627

   => Energetics <=

    Nuclear Repulsion Energy =            490.7875727253467630
    One-Electron Energy =               -1516.0821281221085428
    Two-Electron Energy =                 623.5308532037754503
    Total Energy =                       -401.7637021929863295
  Basis Set: (AUG-CC-PVTZ AUX)
    Blend: AUG-CC-PVTZ-RI
    Molecular point group: c1

    Geometry (in Angstrom), charge = 0, multiplicity = 1:

       Center              X                  Y                   Z               Mass
    ------------   -----------------  -----------------  -----------------  -----------------
         N            0.176405822520    -0.918307783136    -0.000002027239    14.003074004430
         C            2.073887822520     0.566194216864    -0.000003027239    12.000000000000
         C            2.952348822520    -0.411145783136    -0.747422027239    12.000000000000
         C            2.952347822520    -0.411137783136     0.747426972761    12.000000000000
         C            0.607119822520     0.359218216864    -0.000003027239    12.000000000000
         C           -0.286022177480     1.439407216864    -0.000002027239    12.000000000000
         C           -1.654726177480     1.191500216864     0.000000972761    12.000000000000
         C           -2.119383177480    -0.128678783136     0.000002972761    12.000000000000
         C           -1.080881377480    -1.065552783136     0.000001272761    12.000000000000
         C           -3.588225177480    -0.452379783136    -0.000000027239    12.000000000000
         H            2.392904822520     1.605930216864    -0.000009027239     1.007825032230
         H            3.816993822520    -0.014785783136    -1.270401027239     1.007825032230
         H            2.434501822520    -1.225839783136    -1.241974027239     1.007825032230
         H            2.434502822520    -1.225827783136     1.241987972761     1.007825032230
         H            3.816991822520    -0.014771783136     1.270402972761     1.007825032230
         H            0.093192822520     2.458832216864    -0.000003027239     1.007825032230
         H           -2.361773177480     2.020260216864     0.000000972761     1.007825032230
         H           -1.452696177480    -2.183377783136     0.000001972761     1.007825032230
         H           -4.083878177480    -0.037457783136     0.883291972761     1.007825032230
         H           -3.748894177480    -1.533925783136     0.000041972761     1.007825032230
         H           -4.083858177480    -0.037528783136    -0.883337027239     1.007825032230

  Basis Set: AUG-CC-PVTZ
    Blend: AUG-CC-PVTZ
  Basis Set: (AUG-CC-PVTZ AUX)
    Blend: AUG-CC-PVTZ-JKFIT
	 Reference Energy          =    -401.7637021929862726 [Eh]
	 Singles Energy            =      -0.0000000000000000 [Eh]
	 Same-Spin Energy          =      -0.4455866251989306 [Eh]
	 Opposite-Spin Energy      =      -1.4305758939589919 [Eh]
	 Correlation Energy        =      -1.8761625191579223 [Eh]
	 Total Energy              =    -403.6398647121441741 [Eh]

	 ================> DF-SCS-MP2 Energies <==================
	-----------------------------------------------------------
	 SCS Same-Spin Scale       =       0.3333333333333333 [-]
	 SCS Opposite-Spin Scale   =       1.2000000000000000 [-]
	 SCS Same-Spin Energy      =      -0.1485288750663102 [Eh]
	 SCS Opposite-Spin Energy  =      -1.7166910727507902 [Eh]
	 SCS Correlation Energy    =      -1.8652199478171003 [Eh]
	 SCS Total Energy          =    -403.6289221408033541 [Eh]
	-----------------------------------------------------------

  Dipole Moment: [D]
     X:    -1.2177      Y:     1.5792      Z:    -0.0000     Total:     1.9942

*** Psi4 exiting successfully. Buy a developer a beer!
