                               Psi4 1.4a3.dev225

  ==> Input File <==

--------------------------------------------------------------------------
#psi4
#
memory 32 gb

molecule  {
0 1
  N        0.1871790    -0.9111820    -0.0000020
  C        1.9615669     0.4854011    -0.0464656
  C        2.9631220    -0.4040200    -0.7474220
  C        2.9631210    -0.4040120     0.7474270
  C        0.6178930     0.3663440    -0.0000030
  C       -0.2752490     1.4465330    -0.0000020
  C       -1.6439530     1.1986260     0.0000010
  C       -2.1086100    -0.1215530     0.0000030
  C       -1.1379910    -1.1285870     0.0000010
  C       -3.5774520    -0.4452540     0.0000000
  H        2.4036780     1.6130560    -0.0000090
  H        3.8277670    -0.0076600    -1.2704010
  H        2.4452750    -1.2187140    -1.2419740
  H        2.4452760    -1.2187020     1.2419880
  H        3.8277650    -0.0076460     1.2704030
  H        0.1039660     2.4659580    -0.0000030
  H       -2.3510000     2.0273860     0.0000010
  H       -1.4419230    -2.1762520     0.0000020
  H       -4.0731050    -0.0303320     0.8832920
  H       -3.7381210    -1.5268000     0.0000420
  H       -4.0730850    -0.0304030    -0.8833370
units angstrom
no_reorient  #important for SAPT in psi4, default
symmetry c1  #important for SAPT in psi4, default
}

set PROPERTIES_ORIGIN ["COM"]
properties('MP2/aug-cc-pvtz', properties = ['dipole'])
--------------------------------------------------------------------------

    Molecular point group: c1
  Charge       = 0
  Multiplicity = 1
  Basis Set: AUG-CC-PVTZ
    Blend: AUG-CC-PVTZ
  Basis Set: (AUG-CC-PVTZ AUX)
    Blend: AUG-CC-PVTZ-JKFIT

    Orbital Energies [Eh]
    ---------------------

    Doubly Occupied:

       1A    -15.553448     2A    -11.268126     3A    -11.266933
       4A    -11.251719     5A    -11.238625     6A    -11.235933
       7A    -11.234051     8A    -11.228869     9A    -11.227919
      10A    -11.227051    11A     -1.256891    12A     -1.141056
      13A     -1.090865    14A     -1.046658    15A     -0.962367
      16A     -0.872747    17A     -0.849382    18A     -0.817453
      19A     -0.774751    20A     -0.697772    21A     -0.671200
      22A     -0.636849    23A     -0.629229    24A     -0.597842
      25A     -0.584023    26A     -0.564441    27A     -0.548871
      28A     -0.544695    29A     -0.521530    30A     -0.506198
      31A     -0.498628    32A     -0.433512    33A     -0.420099
      34A     -0.405909    35A     -0.372464    36A     -0.304735

  @DF-RHF Final Energy:  -401.74105723821259

   => Energetics <=

    Nuclear Repulsion Energy =            491.1167755586410522
    One-Electron Energy =               -1516.7499813575968801
    Two-Electron Energy =                 623.8921485607430668
    Total Energy =                       -401.7410572382126475
  Basis Set: (AUG-CC-PVTZ AUX)
    Blend: AUG-CC-PVTZ-RI
    Molecular point group: c1

    Geometry (in Angstrom), charge = 0, multiplicity = 1:

       Center              X                  Y                   Z               Mass
    ------------   -----------------  -----------------  -----------------  -----------------
         N            0.193625278885    -0.904054579105     0.004187306022    14.003074004430
         C            1.968013178885     0.492528520895    -0.042276293978    12.000000000000
         C            2.969568278885    -0.396892579105    -0.743232693978    12.000000000000
         C            2.969567278885    -0.396884579105     0.751616306022    12.000000000000
         C            0.624339278885     0.373471420895     0.004186306022    12.000000000000
         C           -0.268802721115     1.453660420895     0.004187306022    12.000000000000
         C           -1.637506721115     1.205753420895     0.004190306022    12.000000000000
         C           -2.102163721115    -0.114425579105     0.004192306022    12.000000000000
         C           -1.131544721115    -1.121459579105     0.004190306022    12.000000000000
         C           -3.571005721115    -0.438126579105     0.004189306022    12.000000000000
         H            2.410124278885     1.620183420895     0.004180306022     1.007825032230
         H            3.834213278885    -0.000532579105    -1.266211693978     1.007825032230
         H            2.451721278885    -1.211586579105    -1.237784693978     1.007825032230
         H            2.451722278885    -1.211574579105     1.246177306022     1.007825032230
         H            3.834211278885    -0.000518579105     1.274592306022     1.007825032230
         H            0.110412278885     2.473085420895     0.004186306022     1.007825032230
         H           -2.344553721115     2.034513420895     0.004190306022     1.007825032230
         H           -1.435476721115    -2.169124579105     0.004191306022     1.007825032230
         H           -4.066658721115    -0.023204579105     0.887481306022     1.007825032230
         H           -3.731674721115    -1.519672579105     0.004231306022     1.007825032230
         H           -4.066638721115    -0.023275579105    -0.879147693978     1.007825032230

  Basis Set: AUG-CC-PVTZ
    Blend: AUG-CC-PVTZ
  Basis Set: (AUG-CC-PVTZ AUX)
    Blend: AUG-CC-PVTZ-JKFIT
	 Reference Energy          =    -401.7410572382125906 [Eh]
	 Singles Energy            =      -0.0000000000000000 [Eh]
	 Same-Spin Energy          =      -0.4483192701127857 [Eh]
	 Opposite-Spin Energy      =      -1.4355679633018377 [Eh]
	 Correlation Energy        =      -1.8838872334146233 [Eh]
	 Total Energy              =    -403.6249444716272023 [Eh]

	 ================> DF-SCS-MP2 Energies <==================
	-----------------------------------------------------------
	 SCS Same-Spin Scale       =       0.3333333333333333 [-]
	 SCS Opposite-Spin Scale   =       1.2000000000000000 [-]
	 SCS Same-Spin Energy      =      -0.1494397567042619 [Eh]
	 SCS Opposite-Spin Energy  =      -1.7226815559622051 [Eh]
	 SCS Correlation Energy    =      -1.8721213126664669 [Eh]
	 SCS Total Energy          =    -403.6131785508790699 [Eh]
	-----------------------------------------------------------

  Dipole Moment: [D]
     X:    -1.1551      Y:     1.3476      Z:    -0.0211     Total:     1.7751

*** Psi4 exiting successfully. Buy a developer a beer!
