                               Psi4 1.4a3.dev225

  ==> Input File <==

--------------------------------------------------------------------------
#psi4
#
memory 32 gb

molecule  {
0 1
  N        0.1907714    -0.9343425    -0.0000020
  C        2.0846610     0.5733200    -0.0000030
  C        2.9631220    -0.4040200    -0.7474220
  C        2.9631210    -0.4040120     0.7474270
  C        0.6178930     0.3663440    -0.0000030
  C       -0.2752490     1.4465330    -0.0000020
  C       -1.6439530     1.1986260     0.0000010
  C       -2.1086100    -0.1215530     0.0000030
  C       -1.1379910    -1.1285870     0.0000010
  C       -3.5774520    -0.4452540     0.0000000
  H        2.4036780     1.6130560    -0.0000090
  H        3.8277670    -0.0076600    -1.2704010
  H        2.4452750    -1.2187140    -1.2419740
  H        2.4452760    -1.2187020     1.2419880
  H        3.8277650    -0.0076460     1.2704030
  H        0.1039660     2.4659580    -0.0000030
  H       -2.3510000     2.0273860     0.0000010
  H       -1.4419230    -2.1762520     0.0000020
  H       -4.0731050    -0.0303320     0.8832920
  H       -3.7381210    -1.5268000     0.0000420
  H       -4.0730850    -0.0304030    -0.8833370
units angstrom
no_reorient  #important for SAPT in psi4, default
symmetry c1  #important for SAPT in psi4, default
}

set PROPERTIES_ORIGIN ["COM"]
properties('MP2/aug-cc-pvtz', properties = ['dipole'])
--------------------------------------------------------------------------

    Molecular point group: c1
  Charge       = 0
  Multiplicity = 1
  Basis Set: AUG-CC-PVTZ
    Blend: AUG-CC-PVTZ
  Basis Set: (AUG-CC-PVTZ AUX)
    Blend: AUG-CC-PVTZ-JKFIT

    Orbital Energies [Eh]
    ---------------------

    Doubly Occupied:

       1A    -15.558722     2A    -11.278626     3A    -11.267918
       4A    -11.252401     5A    -11.239360     6A    -11.234144
       7A    -11.231880     8A    -11.229344     9A    -11.221744
      10A    -11.221051    11A     -1.246781    12A     -1.141042
      13A     -1.091506    14A     -1.042535    15A     -0.950128
      16A     -0.866965    17A     -0.839512    18A     -0.815083
      19A     -0.781096    20A     -0.699988    21A     -0.666543
      22A     -0.637782    23A     -0.626289    24A     -0.600569
      25A     -0.583514    26A     -0.564639    27A     -0.549453
      28A     -0.533703    29A     -0.527683    30A     -0.503923
      31A     -0.497513    32A     -0.429828    33A     -0.428054
      34A     -0.409140    35A     -0.372802    36A     -0.311802

  @DF-RHF Final Energy:  -401.77196106585865

   => Energetics <=

    Nuclear Repulsion Energy =            488.5174019658686575
    One-Electron Energy =               -1511.6725947891784472
    Two-Electron Energy =                 621.3832317574511990
    Total Energy =                       -401.7719610658585907
  Basis Set: (AUG-CC-PVTZ AUX)
    Blend: AUG-CC-PVTZ-RI
    Molecular point group: c1

    Geometry (in Angstrom), charge = 0, multiplicity = 1:

       Center              X                  Y                   Z               Mass
    ------------   -----------------  -----------------  -----------------  -----------------
         N            0.185740906733    -0.932705448591    -0.000002000189    14.003074004430
         C            2.079630506733     0.574957051409    -0.000003000189    12.000000000000
         C            2.958091506733    -0.402382948591    -0.747422000189    12.000000000000
         C            2.958090506733    -0.402374948591     0.747426999811    12.000000000000
         C            0.612862506733     0.367981051409    -0.000003000189    12.000000000000
         C           -0.280279493267     1.448170051409    -0.000002000189    12.000000000000
         C           -1.648983493267     1.200263051409     0.000000999811    12.000000000000
         C           -2.113640493267    -0.119915948591     0.000002999811    12.000000000000
         C           -1.143021493267    -1.126949948591     0.000000999811    12.000000000000
         C           -3.582482493267    -0.443616948591    -0.000000000189    12.000000000000
         H            2.398647506733     1.614693051409    -0.000009000189     1.007825032230
         H            3.822736506733    -0.006022948591    -1.270401000189     1.007825032230
         H            2.440244506733    -1.217076948591    -1.241974000189     1.007825032230
         H            2.440245506733    -1.217064948591     1.241987999811     1.007825032230
         H            3.822734506733    -0.006008948591     1.270402999811     1.007825032230
         H            0.098935506733     2.467595051409    -0.000003000189     1.007825032230
         H           -2.356030493267     2.029023051409     0.000000999811     1.007825032230
         H           -1.446953493267    -2.174614948591     0.000001999811     1.007825032230
         H           -4.078135493267    -0.028694948591     0.883291999811     1.007825032230
         H           -3.743151493267    -1.525162948591     0.000041999811     1.007825032230
         H           -4.078115493267    -0.028765948591    -0.883337000189     1.007825032230

  Basis Set: AUG-CC-PVTZ
    Blend: AUG-CC-PVTZ
  Basis Set: (AUG-CC-PVTZ AUX)
    Blend: AUG-CC-PVTZ-JKFIT
	 Reference Energy          =    -401.7719610658586475 [Eh]
	 Singles Energy            =      -0.0000000000000000 [Eh]
	 Same-Spin Energy          =      -0.4461521877044685 [Eh]
	 Opposite-Spin Energy      =      -1.4323530806684346 [Eh]
	 Correlation Energy        =      -1.8785052683729031 [Eh]
	 Total Energy              =    -403.6504663342315666 [Eh]

	 ================> DF-SCS-MP2 Energies <==================
	-----------------------------------------------------------
	 SCS Same-Spin Scale       =       0.3333333333333333 [-]
	 SCS Opposite-Spin Scale   =       1.2000000000000000 [-]
	 SCS Same-Spin Energy      =      -0.1487173959014895 [Eh]
	 SCS Opposite-Spin Energy  =      -1.7188236968021215 [Eh]
	 SCS Correlation Energy    =      -1.8675410927036111 [Eh]
	 SCS Total Energy          =    -403.6395021585622658 [Eh]
	-----------------------------------------------------------

  Dipole Moment: [D]
     X:    -1.3123      Y:     1.4932      Z:    -0.0000     Total:     1.9879

*** Psi4 exiting successfully. Buy a developer a beer!
