                               Psi4 1.4a3.dev225

  ==> Input File <==

--------------------------------------------------------------------------
#psi4
#
memory 32 gb

molecule  {
0 1
  N        0.1871790    -0.9111820    -0.0000020
  C        2.0846610     0.5733200    -0.0000030
  C        2.9631220    -0.4040200    -0.7474220
  C        2.9631210    -0.4040120     0.7474270
  C        0.6178930     0.3663440    -0.0000030
  C       -0.2752490     1.4465330    -0.0000020
  C       -1.6439530     1.1986260     0.0000010
  C       -2.1086100    -0.1215530     0.0000030
  C       -1.1379910    -1.1285870     0.0000010
  C       -3.5774520    -0.4452540     0.0000000
  H        2.4036780     1.6130560    -0.0000090
  H        3.8277670    -0.0076600    -1.2704010
  H        2.3497888    -1.3689360    -1.3331648
  H        2.4452760    -1.2187020     1.2419880
  H        3.8277650    -0.0076460     1.2704030
  H        0.1039660     2.4659580    -0.0000030
  H       -2.3510000     2.0273860     0.0000010
  H       -1.4419230    -2.1762520     0.0000020
  H       -4.0731050    -0.0303320     0.8832920
  H       -3.7381210    -1.5268000     0.0000420
  H       -4.0730850    -0.0304030    -0.8833370
units angstrom
no_reorient  #important for SAPT in psi4, default
symmetry c1  #important for SAPT in psi4, default
}

set PROPERTIES_ORIGIN ["COM"]
properties('MP2/aug-cc-pvtz', properties = ['dipole'])
--------------------------------------------------------------------------

    Molecular point group: c1
  Charge       = 0
  Multiplicity = 1
  Basis Set: AUG-CC-PVTZ
    Blend: AUG-CC-PVTZ
  Basis Set: (AUG-CC-PVTZ AUX)
    Blend: AUG-CC-PVTZ-JKFIT

    Orbital Energies [Eh]
    ---------------------

    Doubly Occupied:

       1A    -15.555765     2A    -11.276397     3A    -11.267722
       4A    -11.251703     5A    -11.241325     6A    -11.239585
       7A    -11.234134     8A    -11.233178     9A    -11.229343
      10A    -11.222972    11A     -1.251208    12A     -1.140121
      13A     -1.091665    14A     -1.042445    15A     -0.950979
      16A     -0.867071    17A     -0.840046    18A     -0.803953
      19A     -0.778102    20A     -0.697520    21A     -0.664604
      22A     -0.638143    23A     -0.626381    24A     -0.594429
      25A     -0.583811    26A     -0.564770    27A     -0.549099
      28A     -0.535335    29A     -0.525978    30A     -0.499811
      31A     -0.481621    32A     -0.429654    33A     -0.424488
      34A     -0.406931    35A     -0.372290    36A     -0.313219

  @DF-RHF Final Energy:  -401.75169475396893

   => Energetics <=

    Nuclear Repulsion Energy =            488.2990878616477062
    One-Electron Energy =               -1511.2499665416376047
    Two-Electron Energy =                 621.1991839260209645
    Total Energy =                       -401.7516947539689909
  Basis Set: (AUG-CC-PVTZ AUX)
    Blend: AUG-CC-PVTZ-RI
    Molecular point group: c1

    Geometry (in Angstrom), charge = 0, multiplicity = 1:

       Center              X                  Y                   Z               Mass
    ------------   -----------------  -----------------  -----------------  -----------------
         N            0.183249558369    -0.910844233351     0.000688547248    14.003074004430
         C            2.080731558369     0.573657766649     0.000687547248    12.000000000000
         C            2.959192558369    -0.403682233351    -0.746731452752    12.000000000000
         C            2.959191558369    -0.403674233351     0.748117547248    12.000000000000
         C            0.613963558369     0.366681766649     0.000687547248    12.000000000000
         C           -0.279178441631     1.446870766649     0.000688547248    12.000000000000
         C           -1.647882441631     1.198963766649     0.000691547248    12.000000000000
         C           -2.112539441631    -0.121215233351     0.000693547248    12.000000000000
         C           -1.141920441631    -1.128249233351     0.000691547248    12.000000000000
         C           -3.581381441631    -0.444916233351     0.000690547248    12.000000000000
         H            2.399748558369     1.613393766649     0.000681547248     1.007825032230
         H            3.823837558369    -0.007322233351    -1.269710452752     1.007825032230
         H            2.345859358369    -1.368598233351    -1.332474252752     1.007825032230
         H            2.441346558369    -1.218364233351     1.242678547248     1.007825032230
         H            3.823835558369    -0.007308233351     1.271093547248     1.007825032230
         H            0.100036558369     2.466295766649     0.000687547248     1.007825032230
         H           -2.354929441631     2.027723766649     0.000691547248     1.007825032230
         H           -1.445852441631    -2.175914233351     0.000692547248     1.007825032230
         H           -4.077034441631    -0.029994233351     0.883982547248     1.007825032230
         H           -3.742050441631    -1.526462233351     0.000732547248     1.007825032230
         H           -4.077014441631    -0.030065233351    -0.882646452752     1.007825032230

  Basis Set: AUG-CC-PVTZ
    Blend: AUG-CC-PVTZ
  Basis Set: (AUG-CC-PVTZ AUX)
    Blend: AUG-CC-PVTZ-JKFIT
	 Reference Energy          =    -401.7516947539689340 [Eh]
	 Singles Energy            =      -0.0000000000000000 [Eh]
	 Same-Spin Energy          =      -0.4463896416734198 [Eh]
	 Opposite-Spin Energy      =      -1.4336780351538838 [Eh]
	 Correlation Energy        =      -1.8800676768273035 [Eh]
	 Total Energy              =    -403.6317624307962433 [Eh]

	 ================> DF-SCS-MP2 Energies <==================
	-----------------------------------------------------------
	 SCS Same-Spin Scale       =       0.3333333333333333 [-]
	 SCS Opposite-Spin Scale   =       1.2000000000000000 [-]
	 SCS Same-Spin Energy      =      -0.1487965472244732 [Eh]
	 SCS Opposite-Spin Energy  =      -1.7204136421846605 [Eh]
	 SCS Correlation Energy    =      -1.8692101894091337 [Eh]
	 SCS Total Energy          =    -403.6209049433780933 [Eh]
	-----------------------------------------------------------

  Dipole Moment: [D]
     X:    -1.3315      Y:     1.4897      Z:     0.0633     Total:     1.9990

*** Psi4 exiting successfully. Buy a developer a beer!
