                               Psi4 1.4a3.dev225

  ==> Input File <==

--------------------------------------------------------------------------
#psi4
#
memory 32 gb

molecule  {
0 1
  N        0.1871790    -0.9111820    -0.0000020
  C        2.0846610     0.5733200    -0.0000030
  C        2.9631220    -0.4040200    -0.7474220
  C        2.9631210    -0.4040120     0.7474270
  C        0.6178930     0.3663440    -0.0000030
  C       -0.2752490     1.4465330    -0.0000020
  C       -1.6439530     1.1986260     0.0000010
  C       -2.1086100    -0.1215530     0.0000030
  C       -1.1379910    -1.1285870     0.0000010
  C       -3.5774520    -0.4452540     0.0000000
  H        2.4036780     1.6130560    -0.0000090
  H        3.8277670    -0.0076600    -1.2704010
  H        2.4214035    -1.2562695    -1.2647717
  H        2.4452760    -1.2187020     1.2419880
  H        3.8277650    -0.0076460     1.2704030
  H        0.1039660     2.4659580    -0.0000030
  H       -2.3510000     2.0273860     0.0000010
  H       -1.4419230    -2.1762520     0.0000020
  H       -4.0731050    -0.0303320     0.8832920
  H       -3.7381210    -1.5268000     0.0000420
  H       -4.0730850    -0.0304030    -0.8833370
units angstrom
no_reorient  #important for SAPT in psi4, default
symmetry c1  #important for SAPT in psi4, default
}

set PROPERTIES_ORIGIN ["COM"]
properties('MP2/aug-cc-pvtz', properties = ['dipole'])
--------------------------------------------------------------------------

    Molecular point group: c1
  Charge       = 0
  Multiplicity = 1
  Basis Set: AUG-CC-PVTZ
    Blend: AUG-CC-PVTZ
  Basis Set: (AUG-CC-PVTZ AUX)
    Blend: AUG-CC-PVTZ-JKFIT

    Orbital Energies [Eh]
    ---------------------

    Doubly Occupied:

       1A    -15.555708     2A    -11.276175     3A    -11.267737
       4A    -11.251678     5A    -11.239431     6A    -11.233860
       7A    -11.231746     8A    -11.229273     9A    -11.226575
      10A    -11.221531    11A     -1.251176    12A     -1.140422
      13A     -1.091586    14A     -1.042400    15A     -0.950965
      16A     -0.867181    17A     -0.839973    18A     -0.810963
      19A     -0.780518    20A     -0.699963    21A     -0.666080
      22A     -0.638743    23A     -0.626189    24A     -0.599041
      25A     -0.583732    26A     -0.564676    27A     -0.549297
      28A     -0.535322    29A     -0.527247    30A     -0.500432
      31A     -0.497786    32A     -0.429206    33A     -0.427073
      34A     -0.406493    35A     -0.372417    36A     -0.312804

  @DF-RHF Final Energy:  -401.77130741884457

   => Energetics <=

    Nuclear Repulsion Energy =            488.8224521794267616
    One-Electron Energy =               -1512.2967201614512760
    Two-Electron Energy =                 621.7029605631798859
    Total Energy =                       -401.7713074188445717
  Basis Set: (AUG-CC-PVTZ AUX)
    Blend: AUG-CC-PVTZ-RI
    Molecular point group: c1

    Geometry (in Angstrom), charge = 0, multiplicity = 1:

       Center              X                  Y                   Z               Mass
    ------------   -----------------  -----------------  -----------------  -----------------
         N            0.182707252045    -0.911697406728     0.000170636670    14.003074004430
         C            2.080189252045     0.572804593272     0.000169636670    12.000000000000
         C            2.958650252045    -0.404535406728    -0.747249363330    12.000000000000
         C            2.958649252045    -0.404527406728     0.747599636670    12.000000000000
         C            0.613421252045     0.365828593272     0.000169636670    12.000000000000
         C           -0.279720747955     1.446017593272     0.000170636670    12.000000000000
         C           -1.648424747955     1.198110593272     0.000173636670    12.000000000000
         C           -2.113081747955    -0.122068406728     0.000175636670    12.000000000000
         C           -1.142462747955    -1.129102406728     0.000173636670    12.000000000000
         C           -3.581923747955    -0.445769406728     0.000172636670    12.000000000000
         H            2.399206252045     1.612540593272     0.000163636670     1.007825032230
         H            3.823295252045    -0.008175406728    -1.270228363330     1.007825032230
         H            2.416931752045    -1.256784906728    -1.264599063330     1.007825032230
         H            2.440804252045    -1.219217406728     1.242160636670     1.007825032230
         H            3.823293252045    -0.008161406728     1.270575636670     1.007825032230
         H            0.099494252045     2.465442593272     0.000169636670     1.007825032230
         H           -2.355471747955     2.026870593272     0.000173636670     1.007825032230
         H           -1.446394747955    -2.176767406728     0.000174636670     1.007825032230
         H           -4.077576747955    -0.030847406728     0.883464636670     1.007825032230
         H           -3.742592747955    -1.527315406728     0.000214636670     1.007825032230
         H           -4.077556747955    -0.030918406728    -0.883164363330     1.007825032230

  Basis Set: AUG-CC-PVTZ
    Blend: AUG-CC-PVTZ
  Basis Set: (AUG-CC-PVTZ AUX)
    Blend: AUG-CC-PVTZ-JKFIT
	 Reference Energy          =    -401.7713074188445717 [Eh]
	 Singles Energy            =      -0.0000000000000000 [Eh]
	 Same-Spin Energy          =      -0.4460488816692409 [Eh]
	 Opposite-Spin Energy      =      -1.4320583397581677 [Eh]
	 Correlation Energy        =      -1.8781072214274086 [Eh]
	 Total Energy              =    -403.6494146402719707 [Eh]

	 ================> DF-SCS-MP2 Energies <==================
	-----------------------------------------------------------
	 SCS Same-Spin Scale       =       0.3333333333333333 [-]
	 SCS Opposite-Spin Scale   =       1.2000000000000000 [-]
	 SCS Same-Spin Energy      =      -0.1486829605564136 [Eh]
	 SCS Opposite-Spin Energy  =      -1.7184700077098012 [Eh]
	 SCS Correlation Energy    =      -1.8671529682662149 [Eh]
	 SCS Total Energy          =    -403.6384603871107970 [Eh]
	-----------------------------------------------------------

  Dipole Moment: [D]
     X:    -1.3175      Y:     1.4608      Z:     0.0122     Total:     1.9672

*** Psi4 exiting successfully. Buy a developer a beer!
