                               Psi4 1.4a3.dev225

  ==> Input File <==

--------------------------------------------------------------------------
#psi4
#
memory 32 gb

molecule  {
0 1
  N        0.1871790    -0.9111820    -0.0000020
  C        2.0846610     0.5733200    -0.0000030
  C        2.9631220    -0.4040200    -0.7474220
  C        2.9631210    -0.4040120     0.7474270
  C        0.6178930     0.3663440    -0.0000030
  C       -0.2752490     1.4465330    -0.0000020
  C       -1.6439530     1.1986260     0.0000010
  C       -2.1086100    -0.1215530     0.0000030
  C       -1.1379910    -1.1285870     0.0000010
  C       -3.5774520    -0.4452540     0.0000000
  H        2.4036780     1.6130560    -0.0000090
  H        3.8277670    -0.0076600    -1.2704010
  H        2.4452750    -1.2187140    -1.2419740
  H        2.4452760    -1.2187020     1.2419880
  H        3.8277650    -0.0076460     1.2704030
  H        0.1039660     2.4659580    -0.0000030
  H       -2.3510000     2.0273860     0.0000010
  H       -1.4419230    -2.1762520     0.0000020
  H       -4.0848505    -0.0205006     0.8718762
  H       -3.7381210    -1.5268000     0.0000420
  H       -4.0730850    -0.0304030    -0.8833370
units angstrom
no_reorient  #important for SAPT in psi4, default
symmetry c1  #important for SAPT in psi4, default
}

set PROPERTIES_ORIGIN ["COM"]
properties('MP2/aug-cc-pvtz', properties = ['dipole'])
--------------------------------------------------------------------------

    Molecular point group: c1
  Charge       = 0
  Multiplicity = 1
  Basis Set: AUG-CC-PVTZ
    Blend: AUG-CC-PVTZ
  Basis Set: (AUG-CC-PVTZ AUX)
    Blend: AUG-CC-PVTZ-JKFIT

    Orbital Energies [Eh]
    ---------------------

    Doubly Occupied:

       1A    -15.555746     2A    -11.276184     3A    -11.267825
       4A    -11.251731     5A    -11.239521     6A    -11.233825
       7A    -11.231405     8A    -11.229250     9A    -11.221579
      10A    -11.220887    11A     -1.251230    12A     -1.140872
      13A     -1.091584    14A     -1.042448    15A     -0.951045
      16A     -0.867454    17A     -0.840130    18A     -0.814940
      19A     -0.781371    20A     -0.701149    21A     -0.666826
      22A     -0.639319    23A     -0.626225    24A     -0.600956
      25A     -0.582229    26A     -0.564702    27A     -0.550838
      28A     -0.535093    29A     -0.528138    30A     -0.504106
      31A     -0.498929    32A     -0.429433    33A     -0.427295
      34A     -0.406436    35A     -0.372460    36A     -0.312697

  @DF-RHF Final Energy:  -401.77368259613928

   => Energetics <=

    Nuclear Repulsion Energy =            489.0033548942446373
    One-Electron Energy =               -1512.6423611275047278
    Two-Electron Energy =                 621.8653236371206958
    Total Energy =                       -401.7736825961393379
  Basis Set: (AUG-CC-PVTZ AUX)
    Blend: AUG-CC-PVTZ-RI
    Molecular point group: c1

    Geometry (in Angstrom), charge = 0, multiplicity = 1:

       Center              X                  Y                   Z               Mass
    ------------   -----------------  -----------------  -----------------  -----------------
         N            0.182615427232    -0.912056246681     0.000084446595    14.003074004430
         C            2.080097427232     0.572445753319     0.000083446595    12.000000000000
         C            2.958558427232    -0.404894246681    -0.747335553405    12.000000000000
         C            2.958557427232    -0.404886246681     0.747513446595    12.000000000000
         C            0.613329427232     0.365469753319     0.000083446595    12.000000000000
         C           -0.279812572768     1.445658753319     0.000084446595    12.000000000000
         C           -1.648516572768     1.197751753319     0.000087446595    12.000000000000
         C           -2.113173572768    -0.122427246681     0.000089446595    12.000000000000
         C           -1.142554572768    -1.129461246681     0.000087446595    12.000000000000
         C           -3.582015572768    -0.446128246681     0.000086446595    12.000000000000
         H            2.399114427232     1.612181753319     0.000077446595     1.007825032230
         H            3.823203427232    -0.008534246681    -1.270314553405     1.007825032230
         H            2.440711427232    -1.219588246681    -1.241887553405     1.007825032230
         H            2.440712427232    -1.219576246681     1.242074446595     1.007825032230
         H            3.823201427232    -0.008520246681     1.270489446595     1.007825032230
         H            0.099402427232     2.465083753319     0.000083446595     1.007825032230
         H           -2.355563572768     2.026511753319     0.000087446595     1.007825032230
         H           -1.446486572768    -2.177126246681     0.000088446595     1.007825032230
         H           -4.089414072768    -0.021374846681     0.871962646595     1.007825032230
         H           -3.742684572768    -1.527674246681     0.000128446595     1.007825032230
         H           -4.077648572768    -0.031277246681    -0.883250553405     1.007825032230

  Basis Set: AUG-CC-PVTZ
    Blend: AUG-CC-PVTZ
  Basis Set: (AUG-CC-PVTZ AUX)
    Blend: AUG-CC-PVTZ-JKFIT
	 Reference Energy          =    -401.7736825961392810 [Eh]
	 Singles Energy            =      -0.0000000000000000 [Eh]
	 Same-Spin Energy          =      -0.4459487136509109 [Eh]
	 Opposite-Spin Energy      =      -1.4316481675706210 [Eh]
	 Correlation Energy        =      -1.8775968812215318 [Eh]
	 Total Energy              =    -403.6512794773607880 [Eh]

	 ================> DF-SCS-MP2 Energies <==================
	-----------------------------------------------------------
	 SCS Same-Spin Scale       =       0.3333333333333333 [-]
	 SCS Opposite-Spin Scale   =       1.2000000000000000 [-]
	 SCS Same-Spin Energy      =      -0.1486495712169703 [Eh]
	 SCS Opposite-Spin Energy  =      -1.7179778010847451 [Eh]
	 SCS Correlation Energy    =      -1.8666273723017153 [Eh]
	 SCS Total Energy          =    -403.6403099684409881 [Eh]
	-----------------------------------------------------------

  Dipole Moment: [D]
     X:    -1.3145      Y:     1.4606      Z:    -0.0031     Total:     1.9650

*** Psi4 exiting successfully. Buy a developer a beer!
