                               Psi4 1.4a3.dev225

  ==> Input File <==

--------------------------------------------------------------------------
#psi4
#
memory 32 gb

molecule  {
0 1
  N        0.1687855    -0.8192724    -0.0000020
  C        2.0846610     0.5733200    -0.0000030
  C        2.9631220    -0.4040200    -0.7474220
  C        2.9631210    -0.4040120     0.7474270
  C        0.6178930     0.3663440    -0.0000030
  C       -0.2752490     1.4465330    -0.0000020
  C       -1.6439530     1.1986260     0.0000010
  C       -2.1086100    -0.1215530     0.0000030
  C       -1.1379910    -1.1285870     0.0000010
  C       -3.5774520    -0.4452540     0.0000000
  H        2.4036780     1.6130560    -0.0000090
  H        3.8277670    -0.0076600    -1.2704010
  H        2.4452750    -1.2187140    -1.2419740
  H        2.4452760    -1.2187020     1.2419880
  H        3.8277650    -0.0076460     1.2704030
  H        0.1039660     2.4659580    -0.0000030
  H       -2.3510000     2.0273860     0.0000010
  H       -1.4419230    -2.1762520     0.0000020
  H       -4.0731050    -0.0303320     0.8832920
  H       -3.7381210    -1.5268000     0.0000420
  H       -4.0730850    -0.0304030    -0.8833370
units angstrom
no_reorient  #important for SAPT in psi4, default
symmetry c1  #important for SAPT in psi4, default
}

set PROPERTIES_ORIGIN ["COM"]
properties('MP2/aug-cc-pvtz', properties = ['dipole'])
--------------------------------------------------------------------------

    Molecular point group: c1
  Charge       = 0
  Multiplicity = 1
  Basis Set: AUG-CC-PVTZ
    Blend: AUG-CC-PVTZ
  Basis Set: (AUG-CC-PVTZ AUX)
    Blend: AUG-CC-PVTZ-JKFIT

    Orbital Energies [Eh]
    ---------------------

    Doubly Occupied:

       1A    -15.543164     2A    -11.267382     3A    -11.265543
       4A    -11.248613     5A    -11.239731     6A    -11.232275
       7A    -11.229122     8A    -11.228889     9A    -11.220897
      10A    -11.220210    11A     -1.270794    12A     -1.140133
      13A     -1.092628    14A     -1.041640    15A     -0.955085
      16A     -0.869871    17A     -0.841024    18A     -0.814337
      19A     -0.781827    20A     -0.705884    21A     -0.668433
      22A     -0.644283    23A     -0.625324    24A     -0.602061
      25A     -0.584959    26A     -0.565130    27A     -0.548302
      28A     -0.543474    29A     -0.530192    30A     -0.504836
      31A     -0.504071    32A     -0.428113    33A     -0.425065
      34A     -0.391434    35A     -0.371747    36A     -0.316097

  @DF-RHF Final Energy:  -401.77077778279818

   => Energetics <=

    Nuclear Repulsion Energy =            491.0566647145735146
    One-Electron Energy =               -1516.7297452082086693
    Two-Electron Energy =                 623.9023027108369206
    Total Energy =                       -401.7707777827981772
  Basis Set: (AUG-CC-PVTZ AUX)
    Blend: AUG-CC-PVTZ-RI
    Molecular point group: c1

    Geometry (in Angstrom), charge = 0, multiplicity = 1:

       Center              X                  Y                   Z               Mass
    ------------   -----------------  -----------------  -----------------  -----------------
         N            0.166068269582    -0.829742534893    -0.000002000189    14.003074004430
         C            2.081943769582     0.562849865107    -0.000003000189    12.000000000000
         C            2.960404769582    -0.414490134893    -0.747422000189    12.000000000000
         C            2.960403769582    -0.414482134893     0.747426999811    12.000000000000
         C            0.615175769582     0.355873865107    -0.000003000189    12.000000000000
         C           -0.277966230418     1.436062865107    -0.000002000189    12.000000000000
         C           -1.646670230418     1.188155865107     0.000000999811    12.000000000000
         C           -2.111327230418    -0.132023134893     0.000002999811    12.000000000000
         C           -1.140708230418    -1.139057134893     0.000000999811    12.000000000000
         C           -3.580169230418    -0.455724134893    -0.000000000189    12.000000000000
         H            2.400960769582     1.602585865107    -0.000009000189     1.007825032230
         H            3.825049769582    -0.018130134893    -1.270401000189     1.007825032230
         H            2.442557769582    -1.229184134893    -1.241974000189     1.007825032230
         H            2.442558769582    -1.229172134893     1.241987999811     1.007825032230
         H            3.825047769582    -0.018116134893     1.270402999811     1.007825032230
         H            0.101248769582     2.455487865107    -0.000003000189     1.007825032230
         H           -2.353717230418     2.016915865107     0.000000999811     1.007825032230
         H           -1.444640230418    -2.186722134893     0.000001999811     1.007825032230
         H           -4.075822230418    -0.040802134893     0.883291999811     1.007825032230
         H           -3.740838230418    -1.537270134893     0.000041999811     1.007825032230
         H           -4.075802230418    -0.040873134893    -0.883337000189     1.007825032230

  Basis Set: AUG-CC-PVTZ
    Blend: AUG-CC-PVTZ
  Basis Set: (AUG-CC-PVTZ AUX)
    Blend: AUG-CC-PVTZ-JKFIT
	 Reference Energy          =    -401.7707777827981772 [Eh]
	 Singles Energy            =      -0.0000000000000000 [Eh]
	 Same-Spin Energy          =      -0.4452289131325242 [Eh]
	 Opposite-Spin Energy      =      -1.4294664280918337 [Eh]
	 Correlation Energy        =      -1.8746953412243579 [Eh]
	 Total Energy              =    -403.6454731240225442 [Eh]

	 ================> DF-SCS-MP2 Energies <==================
	-----------------------------------------------------------
	 SCS Same-Spin Scale       =       0.3333333333333333 [-]
	 SCS Opposite-Spin Scale   =       1.2000000000000000 [-]
	 SCS Same-Spin Energy      =      -0.1484096377108414 [Eh]
	 SCS Opposite-Spin Energy  =      -1.7153597137102004 [Eh]
	 SCS Correlation Energy    =      -1.8637693514210418 [Eh]
	 SCS Total Energy          =    -403.6345471342192468 [Eh]
	-----------------------------------------------------------

  Dipole Moment: [D]
     X:    -1.3104      Y:     1.2804      Z:    -0.0000     Total:     1.8321

*** Psi4 exiting successfully. Buy a developer a beer!
