                               Psi4 1.4a3.dev225

  ==> Input File <==

--------------------------------------------------------------------------
#psi4
#
memory 32 gb

molecule  {
0 1
  N        0.1871790    -0.9111820    -0.0000020
  C        2.0846610     0.5733200    -0.0000030
  C        2.9631220    -0.4040200    -0.7474220
  C        2.9631210    -0.4040120     0.7474270
  C        0.6178930     0.3663440    -0.0000030
  C       -0.2752490     1.4465330    -0.0000020
  C       -1.6439530     1.1986260     0.0000010
  C       -2.1418101    -0.2158809     0.0000031
  C       -1.1379910    -1.1285870     0.0000010
  C       -3.5774520    -0.4452540     0.0000000
  H        2.4036780     1.6130560    -0.0000090
  H        3.8277670    -0.0076600    -1.2704010
  H        2.4452750    -1.2187140    -1.2419740
  H        2.4452760    -1.2187020     1.2419880
  H        3.8277650    -0.0076460     1.2704030
  H        0.1039660     2.4659580    -0.0000030
  H       -2.3510000     2.0273860     0.0000010
  H       -1.4419230    -2.1762520     0.0000020
  H       -4.0731050    -0.0303320     0.8832920
  H       -3.7381210    -1.5268000     0.0000420
  H       -4.0730850    -0.0304030    -0.8833370
units angstrom
no_reorient  #important for SAPT in psi4, default
symmetry c1  #important for SAPT in psi4, default
}

set PROPERTIES_ORIGIN ["COM"]
properties('MP2/aug-cc-pvtz', properties = ['dipole'])
--------------------------------------------------------------------------

    Molecular point group: c1
  Charge       = 0
  Multiplicity = 1
  Basis Set: AUG-CC-PVTZ
    Blend: AUG-CC-PVTZ
  Basis Set: (AUG-CC-PVTZ AUX)
    Blend: AUG-CC-PVTZ-JKFIT

    Orbital Energies [Eh]
    ---------------------

    Doubly Occupied:

       1A    -15.552729     2A    -11.279662     3A    -11.262138
       4A    -11.259002     5A    -11.240623     6A    -11.235480
       7A    -11.232763     8A    -11.227501     9A    -11.222963
      10A    -11.222269    11A     -1.249104    12A     -1.141813
      13A     -1.086294    14A     -1.048298    15A     -0.954927
      16A     -0.874745    17A     -0.828168    18A     -0.815991
      19A     -0.782623    20A     -0.700887    21A     -0.664281
      22A     -0.639681    23A     -0.628742    24A     -0.600996
      25A     -0.587301    26A     -0.572431    27A     -0.557081
      28A     -0.535125    29A     -0.519529    30A     -0.504480
      31A     -0.487833    32A     -0.429178    33A     -0.427491
      34A     -0.407722    35A     -0.366639    36A     -0.315081

  @DF-RHF Final Energy:  -401.76161791505547

   => Energetics <=

    Nuclear Repulsion Energy =            488.5165172130986662
    One-Electron Energy =               -1511.6331295685642999
    Two-Electron Energy =                 621.3549944404101097
    Total Energy =                       -401.7616179150554672
  Basis Set: (AUG-CC-PVTZ AUX)
    Blend: AUG-CC-PVTZ-RI
    Molecular point group: c1

    Geometry (in Angstrom), charge = 0, multiplicity = 1:

       Center              X                  Y                   Z               Mass
    ------------   -----------------  -----------------  -----------------  -----------------
         N            0.185519974995    -0.903476710809    -0.000002009205    14.003074004430
         C            2.083001974995     0.581025289191    -0.000003009205    12.000000000000
         C            2.961462974995    -0.396314710809    -0.747422009205    12.000000000000
         C            2.961461974995    -0.396306710809     0.747426990795    12.000000000000
         C            0.616233974995     0.374049289191    -0.000003009205    12.000000000000
         C           -0.276908025005     1.454238289191    -0.000002009205    12.000000000000
         C           -1.645612025005     1.206331289191     0.000000990795    12.000000000000
         C           -2.143469125005    -0.208175610809     0.000003090795    12.000000000000
         C           -1.139650025005    -1.120881710809     0.000000990795    12.000000000000
         C           -3.579111025005    -0.437548710809    -0.000000009205    12.000000000000
         H            2.402018974995     1.620761289191    -0.000009009205     1.007825032230
         H            3.826107974995     0.000045289191    -1.270401009205     1.007825032230
         H            2.443615974995    -1.211008710809    -1.241974009205     1.007825032230
         H            2.443616974995    -1.210996710809     1.241987990795     1.007825032230
         H            3.826105974995     0.000059289191     1.270402990795     1.007825032230
         H            0.102306974995     2.473663289191    -0.000003009205     1.007825032230
         H           -2.352659025005     2.035091289191     0.000000990795     1.007825032230
         H           -1.443582025005    -2.168546710809     0.000001990795     1.007825032230
         H           -4.074764025005    -0.022626710809     0.883291990795     1.007825032230
         H           -3.739780025005    -1.519094710809     0.000041990795     1.007825032230
         H           -4.074744025005    -0.022697710809    -0.883337009205     1.007825032230

  Basis Set: AUG-CC-PVTZ
    Blend: AUG-CC-PVTZ
  Basis Set: (AUG-CC-PVTZ AUX)
    Blend: AUG-CC-PVTZ-JKFIT
	 Reference Energy          =    -401.7616179150554672 [Eh]
	 Singles Energy            =      -0.0000000000000000 [Eh]
	 Same-Spin Energy          =      -0.4459942135426491 [Eh]
	 Opposite-Spin Energy      =      -1.4325069571074700 [Eh]
	 Correlation Energy        =      -1.8785011706501191 [Eh]
	 Total Energy              =    -403.6401190857055781 [Eh]

	 ================> DF-SCS-MP2 Energies <==================
	-----------------------------------------------------------
	 SCS Same-Spin Scale       =       0.3333333333333333 [-]
	 SCS Opposite-Spin Scale   =       1.2000000000000000 [-]
	 SCS Same-Spin Energy      =      -0.1486647378475497 [Eh]
	 SCS Opposite-Spin Energy  =      -1.7190083485289640 [Eh]
	 SCS Correlation Energy    =      -1.8676730863765136 [Eh]
	 SCS Total Energy          =    -403.6292910014319659 [Eh]
	-----------------------------------------------------------

  Dipole Moment: [D]
     X:    -1.3127      Y:     1.5308      Z:    -0.0000     Total:     2.0166

*** Psi4 exiting successfully. Buy a developer a beer!
