                               Psi4 1.4a3.dev225

  ==> Input File <==

--------------------------------------------------------------------------
#psi4
#
memory 32 gb

molecule  {
0 1
  N        0.1871790    -0.9111820    -0.0000020
  C        2.0846610     0.5733200    -0.0000030
  C        2.9631220    -0.4040200    -0.7474220
  C        2.8210799    -0.4691253     0.7392383
  C        0.6178930     0.3663440    -0.0000030
  C       -0.2752490     1.4465330    -0.0000020
  C       -1.6439530     1.1986260     0.0000010
  C       -2.1086100    -0.1215530     0.0000030
  C       -1.1379910    -1.1285870     0.0000010
  C       -3.5774520    -0.4452540     0.0000000
  H        2.4036780     1.6130560    -0.0000090
  H        3.8277670    -0.0076600    -1.2704010
  H        2.4452750    -1.2187140    -1.2419740
  H        2.4452760    -1.2187020     1.2419880
  H        3.8277650    -0.0076460     1.2704030
  H        0.1039660     2.4659580    -0.0000030
  H       -2.3510000     2.0273860     0.0000010
  H       -1.4419230    -2.1762520     0.0000020
  H       -4.0731050    -0.0303320     0.8832920
  H       -3.7381210    -1.5268000     0.0000420
  H       -4.0730850    -0.0304030    -0.8833370
units angstrom
no_reorient  #important for SAPT in psi4, default
symmetry c1  #important for SAPT in psi4, default
}

set PROPERTIES_ORIGIN ["COM"]
properties('MP2/aug-cc-pvtz', properties = ['dipole'])
--------------------------------------------------------------------------

    Molecular point group: c1
  Charge       = 0
  Multiplicity = 1
  Basis Set: AUG-CC-PVTZ
    Blend: AUG-CC-PVTZ
  Basis Set: (AUG-CC-PVTZ AUX)
    Blend: AUG-CC-PVTZ-JKFIT

    Orbital Energies [Eh]
    ---------------------

    Doubly Occupied:

       1A    -15.555667     2A    -11.275722     3A    -11.268313
       4A    -11.251942     5A    -11.239284     6A    -11.233450
       7A    -11.233003     8A    -11.229329     9A    -11.224158
      10A    -11.221342    11A     -1.252565    12A     -1.148923
      13A     -1.091746    14A     -1.042472    15A     -0.950614
      16A     -0.868673    17A     -0.840063    18A     -0.821771
      19A     -0.784377    20A     -0.703568    21A     -0.672598
      22A     -0.632879    23A     -0.626679    24A     -0.611474
      25A     -0.583768    26A     -0.565077    27A     -0.549355
      28A     -0.535286    29A     -0.525644    30A     -0.503515
      31A     -0.492401    32A     -0.437461    33A     -0.420658
      34A     -0.404111    35A     -0.372519    36A     -0.312876

  @DF-RHF Final Energy:  -401.74581664014886

   => Energetics <=

    Nuclear Repulsion Energy =            490.6409837009121020
    One-Electron Energy =               -1515.8070334384683520
    Two-Electron Energy =                 623.4202330974073902
    Total Energy =                       -401.7458166401488597
  Basis Set: (AUG-CC-PVTZ AUX)
    Blend: AUG-CC-PVTZ-RI
    Molecular point group: c1

    Geometry (in Angstrom), charge = 0, multiplicity = 1:

       Center              X                  Y                   Z               Mass
    ------------   -----------------  -----------------  -----------------  -----------------
         N            0.195333637538    -0.906110848916     0.000736334983    14.003074004430
         C            2.092815637538     0.578391151084     0.000735334983    12.000000000000
         C            2.971276637538    -0.398948848916    -0.746683665017    12.000000000000
         C            2.829234537538    -0.464054148916     0.739976634983    12.000000000000
         C            0.626047637538     0.371415151084     0.000735334983    12.000000000000
         C           -0.267094362462     1.451604151084     0.000736334983    12.000000000000
         C           -1.635798362462     1.203697151084     0.000739334983    12.000000000000
         C           -2.100455362462    -0.116481848916     0.000741334983    12.000000000000
         C           -1.129836362462    -1.123515848916     0.000739334983    12.000000000000
         C           -3.569297362462    -0.440182848916     0.000738334983    12.000000000000
         H            2.411832637538     1.618127151084     0.000729334983     1.007825032230
         H            3.835921637538    -0.002588848916    -1.269662665017     1.007825032230
         H            2.453429637538    -1.213642848916    -1.241235665017     1.007825032230
         H            2.453430637538    -1.213630848916     1.242726334983     1.007825032230
         H            3.835919637538    -0.002574848916     1.271141334983     1.007825032230
         H            0.112120637538     2.471029151084     0.000735334983     1.007825032230
         H           -2.342845362462     2.032457151084     0.000739334983     1.007825032230
         H           -1.433768362462    -2.171180848916     0.000740334983     1.007825032230
         H           -4.064950362462    -0.025260848916     0.884030334983     1.007825032230
         H           -3.729966362462    -1.521728848916     0.000780334983     1.007825032230
         H           -4.064930362462    -0.025331848916    -0.882598665017     1.007825032230

  Basis Set: AUG-CC-PVTZ
    Blend: AUG-CC-PVTZ
  Basis Set: (AUG-CC-PVTZ AUX)
    Blend: AUG-CC-PVTZ-JKFIT
	 Reference Energy          =    -401.7458166401488597 [Eh]
	 Singles Energy            =      -0.0000000000000000 [Eh]
	 Same-Spin Energy          =      -0.4463912241973910 [Eh]
	 Opposite-Spin Energy      =      -1.4329588143171721 [Eh]
	 Correlation Energy        =      -1.8793500385145632 [Eh]
	 Total Energy              =    -403.6251666786634473 [Eh]

	 ================> DF-SCS-MP2 Energies <==================
	-----------------------------------------------------------
	 SCS Same-Spin Scale       =       0.3333333333333333 [-]
	 SCS Opposite-Spin Scale   =       1.2000000000000000 [-]
	 SCS Same-Spin Energy      =      -0.1487970747324636 [Eh]
	 SCS Opposite-Spin Energy  =      -1.7195505771806066 [Eh]
	 SCS Correlation Energy    =      -1.8683476519130702 [Eh]
	 SCS Total Energy          =    -403.6141642920619574 [Eh]
	-----------------------------------------------------------

  Dipole Moment: [D]
     X:    -1.3719      Y:     1.4373      Z:    -0.0643     Total:     1.9880

*** Psi4 exiting successfully. Buy a developer a beer!
