                               Psi4 1.4a3.dev225

  ==> Input File <==

--------------------------------------------------------------------------
#psi4
#
memory 32 gb

molecule  {
0 1
  N        0.1871790    -0.9111820    -0.0000020
  C        2.0846610     0.5733200    -0.0000030
  C        2.9631220    -0.4040200    -0.7474220
  C        2.9631210    -0.4040120     0.7474270
  C        0.6178930     0.3663440    -0.0000030
  C       -0.2752490     1.4465330    -0.0000020
  C       -1.6439530     1.1986260     0.0000010
  C       -2.1086100    -0.1215530     0.0000030
  C       -1.2485719    -1.2245277     0.0000005
  C       -3.5774520    -0.4452540     0.0000000
  H        2.4036780     1.6130560    -0.0000090
  H        3.8277670    -0.0076600    -1.2704010
  H        2.4452750    -1.2187140    -1.2419740
  H        2.4452760    -1.2187020     1.2419880
  H        3.8277650    -0.0076460     1.2704030
  H        0.1039660     2.4659580    -0.0000030
  H       -2.3510000     2.0273860     0.0000010
  H       -1.4419230    -2.1762520     0.0000020
  H       -4.0731050    -0.0303320     0.8832920
  H       -3.7381210    -1.5268000     0.0000420
  H       -4.0730850    -0.0304030    -0.8833370
units angstrom
no_reorient  #important for SAPT in psi4, default
symmetry c1  #important for SAPT in psi4, default
}

set PROPERTIES_ORIGIN ["COM"]
properties('MP2/aug-cc-pvtz', properties = ['dipole'])
--------------------------------------------------------------------------

    Molecular point group: c1
  Charge       = 0
  Multiplicity = 1
  Basis Set: AUG-CC-PVTZ
    Blend: AUG-CC-PVTZ
  Basis Set: (AUG-CC-PVTZ AUX)
    Blend: AUG-CC-PVTZ-JKFIT

    Orbital Energies [Eh]
    ---------------------

    Doubly Occupied:

       1A    -15.559720     2A    -11.275064     3A    -11.268649
       4A    -11.253603     5A    -11.245082     6A    -11.238671
       7A    -11.230716     8A    -11.226808     9A    -11.220279
      10A    -11.219585    11A     -1.223899    12A     -1.137368
      13A     -1.084782    14A     -1.043910    15A     -0.947020
      16A     -0.878898    17A     -0.838650    18A     -0.813538
      19A     -0.776861    20A     -0.703056    21A     -0.666334
      22A     -0.645600    23A     -0.633524    24A     -0.607011
      25A     -0.581762    26A     -0.569229    27A     -0.543074
      28A     -0.528912    29A     -0.526167    30A     -0.500497
      31A     -0.500397    32A     -0.426830    33A     -0.424430
      34A     -0.397637    35A     -0.358934    36A     -0.318263

  @DF-RHF Final Energy:  -401.74084436970298

   => Energetics <=

    Nuclear Repulsion Energy =            486.6489125141757768
    One-Electron Energy =               -1507.9499921663916666
    Two-Electron Energy =                 619.5602352825128492
    Total Energy =                       -401.7408443697030407
  Basis Set: (AUG-CC-PVTZ AUX)
    Blend: AUG-CC-PVTZ-RI
    Molecular point group: c1

    Geometry (in Angstrom), charge = 0, multiplicity = 1:

       Center              X                  Y                   Z               Mass
    ------------   -----------------  -----------------  -----------------  -----------------
         N            0.192497024623    -0.903331292493    -0.000001955106    14.003074004430
         C            2.089979024623     0.581170707507    -0.000002955106    12.000000000000
         C            2.968440024623    -0.396169292493    -0.747421955106    12.000000000000
         C            2.968439024623    -0.396161292493     0.747427044894    12.000000000000
         C            0.623211024623     0.374194707507    -0.000002955106    12.000000000000
         C           -0.269930975377     1.454383707507    -0.000001955106    12.000000000000
         C           -1.638634975377     1.206476707507     0.000001044894    12.000000000000
         C           -2.103291975377    -0.113702292493     0.000003044894    12.000000000000
         C           -1.243253875377    -1.216676992493     0.000000544894    12.000000000000
         C           -3.572133975377    -0.437403292493     0.000000044894    12.000000000000
         H            2.408996024623     1.620906707507    -0.000008955106     1.007825032230
         H            3.833085024623     0.000190707507    -1.270400955106     1.007825032230
         H            2.450593024623    -1.210863292493    -1.241973955106     1.007825032230
         H            2.450594024623    -1.210851292493     1.241988044894     1.007825032230
         H            3.833083024623     0.000204707507     1.270403044894     1.007825032230
         H            0.109284024623     2.473808707507    -0.000002955106     1.007825032230
         H           -2.345681975377     2.035236707507     0.000001044894     1.007825032230
         H           -1.436604975377    -2.168401292493     0.000002044894     1.007825032230
         H           -4.067786975377    -0.022481292493     0.883292044894     1.007825032230
         H           -3.732802975377    -1.518949292493     0.000042044894     1.007825032230
         H           -4.067766975377    -0.022552292493    -0.883336955106     1.007825032230

  Basis Set: AUG-CC-PVTZ
    Blend: AUG-CC-PVTZ
  Basis Set: (AUG-CC-PVTZ AUX)
    Blend: AUG-CC-PVTZ-JKFIT
	 Reference Energy          =    -401.7408443697029838 [Eh]
	 Singles Energy            =      -0.0000000000000000 [Eh]
	 Same-Spin Energy          =      -0.4470084839119798 [Eh]
	 Opposite-Spin Energy      =      -1.4360424332063542 [Eh]
	 Correlation Energy        =      -1.8830509171183341 [Eh]
	 Total Energy              =    -403.6238952868213232 [Eh]

	 ================> DF-SCS-MP2 Energies <==================
	-----------------------------------------------------------
	 SCS Same-Spin Scale       =       0.3333333333333333 [-]
	 SCS Opposite-Spin Scale   =       1.2000000000000000 [-]
	 SCS Same-Spin Energy      =      -0.1490028279706599 [Eh]
	 SCS Opposite-Spin Energy  =      -1.7232509198476249 [Eh]
	 SCS Correlation Energy    =      -1.8722537478182848 [Eh]
	 SCS Total Energy          =    -403.6130981175212469 [Eh]
	-----------------------------------------------------------

  Dipole Moment: [D]
     X:    -1.3756      Y:     1.4071      Z:    -0.0000     Total:     1.9678

*** Psi4 exiting successfully. Buy a developer a beer!
