                               Psi4 1.4a3.dev225

  ==> Input File <==

--------------------------------------------------------------------------
#psi4
#
memory 32 gb

molecule  {
0 1
  N        0.1871790    -0.9111820    -0.0000020
  C        2.0846610     0.5733200    -0.0000030
  C        2.9631220    -0.4040200    -0.7474220
  C        2.9631210    -0.4040120     0.7474270
  C        0.6178930     0.3663440    -0.0000030
  C       -0.2752490     1.4465330    -0.0000020
  C       -1.6439530     1.1986260     0.0000010
  C       -2.1086100    -0.1215530     0.0000030
  C       -1.2106025    -1.1938409     0.0000007
  C       -3.5774520    -0.4452540     0.0000000
  H        2.4036780     1.6130560    -0.0000090
  H        3.8277670    -0.0076600    -1.2704010
  H        2.4452750    -1.2187140    -1.2419740
  H        2.4452760    -1.2187020     1.2419880
  H        3.8277650    -0.0076460     1.2704030
  H        0.1039660     2.4659580    -0.0000030
  H       -2.3510000     2.0273860     0.0000010
  H       -1.4419230    -2.1762520     0.0000020
  H       -4.0731050    -0.0303320     0.8832920
  H       -3.7381210    -1.5268000     0.0000420
  H       -4.0730850    -0.0304030    -0.8833370
units angstrom
no_reorient  #important for SAPT in psi4, default
symmetry c1  #important for SAPT in psi4, default
}

set PROPERTIES_ORIGIN ["COM"]
properties('MP2/aug-cc-pvtz', properties = ['dipole'])
--------------------------------------------------------------------------

    Molecular point group: c1
  Charge       = 0
  Multiplicity = 1
  Basis Set: AUG-CC-PVTZ
    Blend: AUG-CC-PVTZ
  Basis Set: (AUG-CC-PVTZ AUX)
    Blend: AUG-CC-PVTZ-JKFIT

    Orbital Energies [Eh]
    ---------------------

    Doubly Occupied:

       1A    -15.558616     2A    -11.275373     3A    -11.268145
       4A    -11.252878     5A    -11.242701     6A    -11.236833
       7A    -11.230888     8A    -11.227521     9A    -11.220648
      10A    -11.219954    11A     -1.231540    12A     -1.138416
      13A     -1.086613    14A     -1.043425    15A     -0.948282
      16A     -0.874398    17A     -0.838965    18A     -0.813941
      19A     -0.777197    20A     -0.702495    21A     -0.665373
      22A     -0.640092    23A     -0.634816    24A     -0.605814
      25A     -0.582184    26A     -0.567982    27A     -0.545171
      28A     -0.528698    29A     -0.528508    30A     -0.501589
      31A     -0.500675    32A     -0.427480    33A     -0.425523
      34A     -0.401554    35A     -0.363295    36A     -0.316189

  @DF-RHF Final Energy:  -401.75794060811961

   => Energetics <=

    Nuclear Repulsion Energy =            487.3980248107578177
    One-Electron Energy =               -1509.4643869178739806
    Two-Electron Energy =                 620.3084214989966085
    Total Energy =                       -401.7579406081196112
  Basis Set: (AUG-CC-PVTZ AUX)
    Blend: AUG-CC-PVTZ-RI
    Molecular point group: c1

    Geometry (in Angstrom), charge = 0, multiplicity = 1:

       Center              X                  Y                   Z               Mass
    ------------   -----------------  -----------------  -----------------  -----------------
         N            0.189073508865    -0.906098171700    -0.000001973139    14.003074004430
         C            2.086555508865     0.578403828300    -0.000002973139    12.000000000000
         C            2.965016508865    -0.398936171700    -0.747421973139    12.000000000000
         C            2.965015508865    -0.398928171700     0.747427026861    12.000000000000
         C            0.619787508865     0.371427828300    -0.000002973139    12.000000000000
         C           -0.273354491135     1.451616828300    -0.000001973139    12.000000000000
         C           -1.642058491135     1.203709828300     0.000001026861    12.000000000000
         C           -2.106715491135    -0.116469171700     0.000003026861    12.000000000000
         C           -1.208707991135    -1.188757071700     0.000000726861    12.000000000000
         C           -3.575557491135    -0.440170171700     0.000000026861    12.000000000000
         H            2.405572508865     1.618139828300    -0.000008973139     1.007825032230
         H            3.829661508865    -0.002576171700    -1.270400973139     1.007825032230
         H            2.447169508865    -1.213630171700    -1.241973973139     1.007825032230
         H            2.447170508865    -1.213618171700     1.241988026861     1.007825032230
         H            3.829659508865    -0.002562171700     1.270403026861     1.007825032230
         H            0.105860508865     2.471041828300    -0.000002973139     1.007825032230
         H           -2.349105491135     2.032469828300     0.000001026861     1.007825032230
         H           -1.440028491135    -2.171168171700     0.000002026861     1.007825032230
         H           -4.071210491135    -0.025248171700     0.883292026861     1.007825032230
         H           -3.736226491135    -1.521716171700     0.000042026861     1.007825032230
         H           -4.071190491135    -0.025319171700    -0.883336973139     1.007825032230

  Basis Set: AUG-CC-PVTZ
    Blend: AUG-CC-PVTZ
  Basis Set: (AUG-CC-PVTZ AUX)
    Blend: AUG-CC-PVTZ-JKFIT
	 Reference Energy          =    -401.7579406081196112 [Eh]
	 Singles Energy            =      -0.0000000000000000 [Eh]
	 Same-Spin Energy          =      -0.4465904038700486 [Eh]
	 Opposite-Spin Energy      =      -1.4342219950057828 [Eh]
	 Correlation Energy        =      -1.8808123988758314 [Eh]
	 Total Energy              =    -403.6387530069954437 [Eh]

	 ================> DF-SCS-MP2 Energies <==================
	-----------------------------------------------------------
	 SCS Same-Spin Scale       =       0.3333333333333333 [-]
	 SCS Opposite-Spin Scale   =       1.2000000000000000 [-]
	 SCS Same-Spin Energy      =      -0.1488634679566829 [Eh]
	 SCS Opposite-Spin Energy  =      -1.7210663940069393 [Eh]
	 SCS Correlation Energy    =      -1.8699298619636222 [Eh]
	 SCS Total Energy          =    -403.6278704700832236 [Eh]
	-----------------------------------------------------------

  Dipole Moment: [D]
     X:    -1.3619      Y:     1.4101      Z:    -0.0000     Total:     1.9604

*** Psi4 exiting successfully. Buy a developer a beer!
