                               Psi4 1.4a3.dev225

  ==> Input File <==

--------------------------------------------------------------------------
#psi4
#
memory 32 gb

molecule  {
0 1
  N        0.1871790    -0.9111820    -0.0000020
  C        2.0846610     0.5733200    -0.0000030
  C        2.9631220    -0.4040200    -0.7474220
  C        2.9631210    -0.4040120     0.7474270
  C        0.6178930     0.3663440    -0.0000030
  C       -0.2752490     1.4465330    -0.0000020
  C       -1.6439530     1.1986260     0.0000010
  C       -2.1086100    -0.1215530     0.0000030
  C       -1.0380444    -1.0216130     0.0000015
  C       -3.5774520    -0.4452540     0.0000000
  H        2.4036780     1.6130560    -0.0000090
  H        3.8277670    -0.0076600    -1.2704010
  H        2.4452750    -1.2187140    -1.2419740
  H        2.4452760    -1.2187020     1.2419880
  H        3.8277650    -0.0076460     1.2704030
  H        0.1039660     2.4659580    -0.0000030
  H       -2.3510000     2.0273860     0.0000010
  H       -1.4419230    -2.1762520     0.0000020
  H       -4.0731050    -0.0303320     0.8832920
  H       -3.7381210    -1.5268000     0.0000420
  H       -4.0730850    -0.0304030    -0.8833370
units angstrom
no_reorient  #important for SAPT in psi4, default
symmetry c1  #important for SAPT in psi4, default
}

set PROPERTIES_ORIGIN ["COM"]
properties('MP2/aug-cc-pvtz', properties = ['dipole'])
--------------------------------------------------------------------------

    Molecular point group: c1
  Charge       = 0
  Multiplicity = 1
  Basis Set: AUG-CC-PVTZ
    Blend: AUG-CC-PVTZ
  Basis Set: (AUG-CC-PVTZ AUX)
    Blend: AUG-CC-PVTZ-JKFIT

    Orbital Energies [Eh]
    ---------------------

    Doubly Occupied:

       1A    -15.551583     2A    -11.278903     3A    -11.269212
       4A    -11.251219     5A    -11.238715     6A    -11.233014
       7A    -11.232322     8A    -11.231468     9A    -11.223725
      10A    -11.223034    11A     -1.292442    12A     -1.145284
      13A     -1.101937    14A     -1.041417    15A     -0.955251
      16A     -0.864839    17A     -0.840629    18A     -0.817174
      19A     -0.791199    20A     -0.699581    21A     -0.671709
      22A     -0.641868    23A     -0.619777    24A     -0.590438
      25A     -0.588880    26A     -0.562185    27A     -0.551894
      28A     -0.550237    29A     -0.528595    30A     -0.508367
      31A     -0.495189    32A     -0.434532    33A     -0.425605
      34A     -0.401470    35A     -0.386486    36A     -0.309816

  @DF-RHF Final Energy:  -401.74886632058036

   => Energetics <=

    Nuclear Repulsion Energy =            491.7196591467204598
    One-Electron Energy =               -1517.8370556920369836
    Two-Electron Energy =                 624.3685302247362188
    Total Energy =                       -401.7488663205803050
  Basis Set: (AUG-CC-PVTZ AUX)
    Blend: AUG-CC-PVTZ-RI
    Molecular point group: c1

    Geometry (in Angstrom), charge = 0, multiplicity = 1:

       Center              X                  Y                   Z               Mass
    ------------   -----------------  -----------------  -----------------  -----------------
         N            0.173514785934    -0.921627122106    -0.000002045272    14.003074004430
         C            2.070996785934     0.562874877894    -0.000003045272    12.000000000000
         C            2.949457785934    -0.414465122106    -0.747422045272    12.000000000000
         C            2.949456785934    -0.414457122106     0.747426954728    12.000000000000
         C            0.604228785934     0.355898877894    -0.000003045272    12.000000000000
         C           -0.288913214066     1.436087877894    -0.000002045272    12.000000000000
         C           -1.657617214066     1.188180877894     0.000000954728    12.000000000000
         C           -2.122274214066    -0.131998122106     0.000002954728    12.000000000000
         C           -1.051708614066    -1.032058122106     0.000001454728    12.000000000000
         C           -3.591116214066    -0.455699122106    -0.000000045272    12.000000000000
         H            2.390013785934     1.602610877894    -0.000009045272     1.007825032230
         H            3.814102785934    -0.018105122106    -1.270401045272     1.007825032230
         H            2.431610785934    -1.229159122106    -1.241974045272     1.007825032230
         H            2.431611785934    -1.229147122106     1.241987954728     1.007825032230
         H            3.814100785934    -0.018091122106     1.270402954728     1.007825032230
         H            0.090301785934     2.455512877894    -0.000003045272     1.007825032230
         H           -2.364664214066     2.016940877894     0.000000954728     1.007825032230
         H           -1.455587214066    -2.186697122106     0.000001954728     1.007825032230
         H           -4.086769214066    -0.040777122106     0.883291954728     1.007825032230
         H           -3.751785214066    -1.537245122106     0.000041954728     1.007825032230
         H           -4.086749214066    -0.040848122106    -0.883337045272     1.007825032230

  Basis Set: AUG-CC-PVTZ
    Blend: AUG-CC-PVTZ
  Basis Set: (AUG-CC-PVTZ AUX)
    Blend: AUG-CC-PVTZ-JKFIT
	 Reference Energy          =    -401.7488663205803618 [Eh]
	 Singles Energy            =      -0.0000000000000000 [Eh]
	 Same-Spin Energy          =      -0.4455224050849839 [Eh]
	 Opposite-Spin Energy      =      -1.4305598264879564 [Eh]
	 Correlation Energy        =      -1.8760822315729404 [Eh]
	 Total Energy              =    -403.6249485521532847 [Eh]

	 ================> DF-SCS-MP2 Energies <==================
	-----------------------------------------------------------
	 SCS Same-Spin Scale       =       0.3333333333333333 [-]
	 SCS Opposite-Spin Scale   =       1.2000000000000000 [-]
	 SCS Same-Spin Energy      =      -0.1485074683616613 [Eh]
	 SCS Opposite-Spin Energy  =      -1.7166717917855476 [Eh]
	 SCS Correlation Energy    =      -1.8651792601472090 [Eh]
	 SCS Total Energy          =    -403.6140455807275771 [Eh]
	-----------------------------------------------------------

  Dipole Moment: [D]
     X:    -1.1456      Y:     1.6819      Z:    -0.0000     Total:     2.0350

*** Psi4 exiting successfully. Buy a developer a beer!
