                               Psi4 1.4a3.dev225

  ==> Input File <==

--------------------------------------------------------------------------
#psi4
#
memory 32 gb

molecule  {
0 1
  N        0.1871790    -0.9111820    -0.0000020
  C        2.0846610     0.5733200    -0.0000030
  C        2.9631220    -0.4040200    -0.7474220
  C        2.9631210    -0.4040120     0.7474270
  C        0.6178930     0.3663440    -0.0000030
  C       -0.2752490     1.4465330    -0.0000020
  C       -1.5981625     1.1816055     0.0000012
  C       -2.1086100    -0.1215530     0.0000030
  C       -1.1379910    -1.1285870     0.0000010
  C       -3.5774520    -0.4452540     0.0000000
  H        2.4036780     1.6130560    -0.0000090
  H        3.8277670    -0.0076600    -1.2704010
  H        2.4452750    -1.2187140    -1.2419740
  H        2.4452760    -1.2187020     1.2419880
  H        3.8277650    -0.0076460     1.2704030
  H        0.1039660     2.4659580    -0.0000030
  H       -2.3510000     2.0273860     0.0000010
  H       -1.4419230    -2.1762520     0.0000020
  H       -4.0731050    -0.0303320     0.8832920
  H       -3.7381210    -1.5268000     0.0000420
  H       -4.0730850    -0.0304030    -0.8833370
units angstrom
no_reorient  #important for SAPT in psi4, default
symmetry c1  #important for SAPT in psi4, default
}

set PROPERTIES_ORIGIN ["COM"]
properties('MP2/aug-cc-pvtz', properties = ['dipole'])
--------------------------------------------------------------------------

    Molecular point group: c1
  Charge       = 0
  Multiplicity = 1
  Basis Set: AUG-CC-PVTZ
    Blend: AUG-CC-PVTZ
  Basis Set: (AUG-CC-PVTZ AUX)
    Blend: AUG-CC-PVTZ-JKFIT

    Orbital Energies [Eh]
    ---------------------

    Doubly Occupied:

       1A    -15.554541     2A    -11.277088     3A    -11.266448
       4A    -11.250148     5A    -11.238286     6A    -11.231760
       7A    -11.230178     8A    -11.229538     9A    -11.222107
      10A    -11.221414    11A     -1.252389    12A     -1.141411
      13A     -1.093474    14A     -1.047034    15A     -0.952231
      16A     -0.865729    17A     -0.841347    18A     -0.815361
      19A     -0.778969    20A     -0.700483    21A     -0.669999
      22A     -0.639329    23A     -0.626327    24A     -0.599799
      25A     -0.584101    26A     -0.556240    27A     -0.549464
      28A     -0.536928    29A     -0.527501    30A     -0.504976
      31A     -0.502066    32A     -0.429972    33A     -0.427292
      34A     -0.404564    35A     -0.377591    36A     -0.312486

  @DF-RHF Final Energy:  -401.77116547765638

   => Energetics <=

    Nuclear Repulsion Energy =            489.8027678490276458
    One-Electron Energy =               -1514.2307182833060324
    Two-Electron Energy =                 622.6567849566221184
    Total Energy =                       -401.7711654776563819
  Basis Set: (AUG-CC-PVTZ AUX)
    Blend: AUG-CC-PVTZ-RI
    Molecular point group: c1

    Geometry (in Angstrom), charge = 0, multiplicity = 1:

       Center              X                  Y                   Z               Mass
    ------------   -----------------  -----------------  -----------------  -----------------
         N            0.178397777546    -0.910447142317    -0.000002018222    14.003074004430
         C            2.075879777546     0.574054857683    -0.000003018222    12.000000000000
         C            2.954340777546    -0.403285142317    -0.747422018222    12.000000000000
         C            2.954339777546    -0.403277142317     0.747426981778    12.000000000000
         C            0.609111777546     0.367078857683    -0.000003018222    12.000000000000
         C           -0.284030222454     1.447267857683    -0.000002018222    12.000000000000
         C           -1.606943722454     1.182340357683     0.000001181778    12.000000000000
         C           -2.117391222454    -0.120818142317     0.000002981778    12.000000000000
         C           -1.146772222454    -1.127852142317     0.000000981778    12.000000000000
         C           -3.586233222454    -0.444519142317    -0.000000018222    12.000000000000
         H            2.394896777546     1.613790857683    -0.000009018222     1.007825032230
         H            3.818985777546    -0.006925142317    -1.270401018222     1.007825032230
         H            2.436493777546    -1.217979142317    -1.241974018222     1.007825032230
         H            2.436494777546    -1.217967142317     1.241987981778     1.007825032230
         H            3.818983777546    -0.006911142317     1.270402981778     1.007825032230
         H            0.095184777546     2.466692857683    -0.000003018222     1.007825032230
         H           -2.359781222454     2.028120857683     0.000000981778     1.007825032230
         H           -1.450704222454    -2.175517142317     0.000001981778     1.007825032230
         H           -4.081886222454    -0.029597142317     0.883291981778     1.007825032230
         H           -3.746902222454    -1.526065142317     0.000041981778     1.007825032230
         H           -4.081866222454    -0.029668142317    -0.883337018222     1.007825032230

  Basis Set: AUG-CC-PVTZ
    Blend: AUG-CC-PVTZ
  Basis Set: (AUG-CC-PVTZ AUX)
    Blend: AUG-CC-PVTZ-JKFIT
	 Reference Energy          =    -401.7711654776563819 [Eh]
	 Singles Energy            =      -0.0000000000000000 [Eh]
	 Same-Spin Energy          =      -0.4459004824591641 [Eh]
	 Opposite-Spin Energy      =      -1.4314031407741714 [Eh]
	 Correlation Energy        =      -1.8773036232333355 [Eh]
	 Total Energy              =    -403.6484691008897130 [Eh]

	 ================> DF-SCS-MP2 Energies <==================
	-----------------------------------------------------------
	 SCS Same-Spin Scale       =       0.3333333333333333 [-]
	 SCS Opposite-Spin Scale   =       1.2000000000000000 [-]
	 SCS Same-Spin Energy      =      -0.1486334941530547 [Eh]
	 SCS Opposite-Spin Energy  =      -1.7176837689290056 [Eh]
	 SCS Correlation Energy    =      -1.8663172630820604 [Eh]
	 SCS Total Energy          =    -403.6374827407384487 [Eh]
	-----------------------------------------------------------

  Dipole Moment: [D]
     X:    -1.2880      Y:     1.4328      Z:    -0.0000     Total:     1.9266

*** Psi4 exiting successfully. Buy a developer a beer!
