                               Psi4 1.4a3.dev225

  ==> Input File <==

--------------------------------------------------------------------------
#psi4
#
memory 32 gb

molecule  {
0 1
  N        0.1871790    -0.9111820    -0.0000020
  C        2.0846610     0.5733200    -0.0000030
  C        2.9631220    -0.4040200    -0.7474220
  C        2.9631210    -0.4040120     0.7474270
  C        0.6178930     0.3663440    -0.0000030
  C       -0.2752490     1.4465330    -0.0000020
  C       -1.6439530     1.1986260     0.0000010
  C       -2.1086100    -0.1215530     0.0000030
  C       -1.1379910    -1.1285870     0.0000010
  C       -3.5774520    -0.4452540     0.0000000
  H        2.4036780     1.6130560    -0.0000090
  H        3.8277670    -0.0076600    -1.2704010
  H        2.4452750    -1.2187140    -1.2419740
  H        2.4357274    -1.2337241     1.2511072
  H        3.8277650    -0.0076460     1.2704030
  H        0.1039660     2.4659580    -0.0000030
  H       -2.3510000     2.0273860     0.0000010
  H       -1.4419230    -2.1762520     0.0000020
  H       -4.0731050    -0.0303320     0.8832920
  H       -3.7381210    -1.5268000     0.0000420
  H       -4.0730850    -0.0304030    -0.8833370
units angstrom
no_reorient  #important for SAPT in psi4, default
symmetry c1  #important for SAPT in psi4, default
}

set PROPERTIES_ORIGIN ["COM"]
properties('MP2/aug-cc-pvtz', properties = ['dipole'])
--------------------------------------------------------------------------

    Molecular point group: c1
  Charge       = 0
  Multiplicity = 1
  Basis Set: AUG-CC-PVTZ
    Blend: AUG-CC-PVTZ
  Basis Set: (AUG-CC-PVTZ AUX)
    Blend: AUG-CC-PVTZ-JKFIT

    Orbital Energies [Eh]
    ---------------------

    Doubly Occupied:

       1A    -15.555706     2A    -11.276149     3A    -11.267742
       4A    -11.251678     5A    -11.239411     6A    -11.233821
       7A    -11.231517     8A    -11.229264     9A    -11.223430
      10A    -11.221284    11A     -1.251182    12A     -1.140656
      13A     -1.091585    14A     -1.042423    15A     -0.950996
      16A     -0.867272    17A     -0.840016    18A     -0.813225
      19A     -0.780994    20A     -0.700606    21A     -0.666498
      22A     -0.638971    23A     -0.626167    24A     -0.600150
      25A     -0.583722    26A     -0.564667    27A     -0.549369
      28A     -0.535370    29A     -0.527722    30A     -0.502450
      31A     -0.498723    32A     -0.429340    33A     -0.427206
      34A     -0.406414    35A     -0.372435    36A     -0.312741

  @DF-RHF Final Energy:  -401.77309297003717

   => Energetics <=

    Nuclear Repulsion Energy =            488.9382520974074282
    One-Electron Energy =               -1512.5208838729304262
    Two-Electron Energy =                 621.8095388054857722
    Total Energy =                       -401.7730929700371689
  Basis Set: (AUG-CC-PVTZ AUX)
    Blend: AUG-CC-PVTZ-RI
    Molecular point group: c1

    Geometry (in Angstrom), charge = 0, multiplicity = 1:

       Center              X                  Y                   Z               Mass
    ------------   -----------------  -----------------  -----------------  -----------------
         N            0.182598791083    -0.911868042161    -0.000071055841    14.003074004430
         C            2.080080791083     0.572633957839    -0.000072055841    12.000000000000
         C            2.958541791083    -0.404706042161    -0.747491055841    12.000000000000
         C            2.958540791083    -0.404698042161     0.747357944159    12.000000000000
         C            0.613312791083     0.365657957839    -0.000072055841    12.000000000000
         C           -0.279829208917     1.445846957839    -0.000071055841    12.000000000000
         C           -1.648533208917     1.197939957839    -0.000068055841    12.000000000000
         C           -2.113190208917    -0.122239042161    -0.000066055841    12.000000000000
         C           -1.142571208917    -1.129273042161    -0.000068055841    12.000000000000
         C           -3.582032208917    -0.445940042161    -0.000069055841    12.000000000000
         H            2.399097791083     1.612369957839    -0.000078055841     1.007825032230
         H            3.823186791083    -0.008346042161    -1.270470055841     1.007825032230
         H            2.440694791083    -1.219400042161    -1.242043055841     1.007825032230
         H            2.431147191083    -1.234410142161     1.251038144159     1.007825032230
         H            3.823184791083    -0.008332042161     1.270333944159     1.007825032230
         H            0.099385791083     2.465271957839    -0.000072055841     1.007825032230
         H           -2.355580208917     2.026699957839    -0.000068055841     1.007825032230
         H           -1.446503208917    -2.176938042161    -0.000067055841     1.007825032230
         H           -4.077685208917    -0.031018042161     0.883222944159     1.007825032230
         H           -3.742701208917    -1.527486042161    -0.000027055841     1.007825032230
         H           -4.077665208917    -0.031089042161    -0.883406055841     1.007825032230

  Basis Set: AUG-CC-PVTZ
    Blend: AUG-CC-PVTZ
  Basis Set: (AUG-CC-PVTZ AUX)
    Blend: AUG-CC-PVTZ-JKFIT
	 Reference Energy          =    -401.7730929700371689 [Eh]
	 Singles Energy            =      -0.0000000000000000 [Eh]
	 Same-Spin Energy          =      -0.4459888342677031 [Eh]
	 Opposite-Spin Energy      =      -1.4318088666462359 [Eh]
	 Correlation Energy        =      -1.8777977009139390 [Eh]
	 Total Energy              =    -403.6508906709511280 [Eh]

	 ================> DF-SCS-MP2 Energies <==================
	-----------------------------------------------------------
	 SCS Same-Spin Scale       =       0.3333333333333333 [-]
	 SCS Opposite-Spin Scale   =       1.2000000000000000 [-]
	 SCS Same-Spin Energy      =      -0.1486629447559010 [Eh]
	 SCS Opposite-Spin Energy  =      -1.7181706399754830 [Eh]
	 SCS Correlation Energy    =      -1.8668335847313839 [Eh]
	 SCS Total Energy          =    -403.6399265547685786 [Eh]
	-----------------------------------------------------------

  Dipole Moment: [D]
     X:    -1.3149      Y:     1.4573      Z:    -0.0046     Total:     1.9628

*** Psi4 exiting successfully. Buy a developer a beer!
