                               Psi4 1.4a3.dev225

  ==> Input File <==

--------------------------------------------------------------------------
#psi4
#
memory 32 gb

molecule  {
0 1
  N        0.1871790    -0.9111820    -0.0000020
  C        2.0846610     0.5733200    -0.0000030
  C        2.9631220    -0.4040200    -0.7474220
  C        2.9631210    -0.4040120     0.7474270
  C        0.6178930     0.3663440    -0.0000030
  C       -0.2752490     1.4465330    -0.0000020
  C       -1.6439530     1.1986260     0.0000010
  C       -2.1086100    -0.1215530     0.0000030
  C       -1.1379910    -1.1285870     0.0000010
  C       -3.5774520    -0.4452540     0.0000000
  H        2.4036780     1.6130560    -0.0000090
  H        3.8277670    -0.0076600    -1.2704010
  H        2.4452750    -1.2187140    -1.2419740
  H        2.4214046    -1.2562573     1.2647861
  H        3.8277650    -0.0076460     1.2704030
  H        0.1039660     2.4659580    -0.0000030
  H       -2.3510000     2.0273860     0.0000010
  H       -1.4419230    -2.1762520     0.0000020
  H       -4.0731050    -0.0303320     0.8832920
  H       -3.7381210    -1.5268000     0.0000420
  H       -4.0730850    -0.0304030    -0.8833370
units angstrom
no_reorient  #important for SAPT in psi4, default
symmetry c1  #important for SAPT in psi4, default
}

set PROPERTIES_ORIGIN ["COM"]
properties('MP2/aug-cc-pvtz', properties = ['dipole'])
--------------------------------------------------------------------------

    Molecular point group: c1
  Charge       = 0
  Multiplicity = 1
  Basis Set: AUG-CC-PVTZ
    Blend: AUG-CC-PVTZ
  Basis Set: (AUG-CC-PVTZ AUX)
    Blend: AUG-CC-PVTZ-JKFIT

    Orbital Energies [Eh]
    ---------------------

    Doubly Occupied:

       1A    -15.555708     2A    -11.276175     3A    -11.267737
       4A    -11.251678     5A    -11.239431     6A    -11.233860
       7A    -11.231746     8A    -11.229273     9A    -11.226575
      10A    -11.221531    11A     -1.251176    12A     -1.140422
      13A     -1.091586    14A     -1.042400    15A     -0.950965
      16A     -0.867181    17A     -0.839973    18A     -0.810963
      19A     -0.780518    20A     -0.699963    21A     -0.666080
      22A     -0.638743    23A     -0.626189    24A     -0.599041
      25A     -0.583732    26A     -0.564676    27A     -0.549297
      28A     -0.535322    29A     -0.527247    30A     -0.500432
      31A     -0.497786    32A     -0.429206    33A     -0.427073
      34A     -0.406493    35A     -0.372417    36A     -0.312804

  @DF-RHF Final Energy:  -401.77130741881740

   => Energetics <=

    Nuclear Repulsion Energy =            488.8224519855044150
    One-Electron Energy =               -1512.2967197004684294
    Two-Electron Energy =                 621.7029602961466708
    Total Energy =                       -401.7713074188174005
  Basis Set: (AUG-CC-PVTZ AUX)
    Blend: AUG-CC-PVTZ-RI
    Molecular point group: c1

    Geometry (in Angstrom), charge = 0, multiplicity = 1:

       Center              X                  Y                   Z               Mass
    ------------   -----------------  -----------------  -----------------  -----------------
         N            0.182707251288    -0.911697408243    -0.000174640077    14.003074004430
         C            2.080189251288     0.572804591757    -0.000175640077    12.000000000000
         C            2.958650251288    -0.404535408243    -0.747594640077    12.000000000000
         C            2.958649251288    -0.404527408243     0.747254359923    12.000000000000
         C            0.613421251288     0.365828591757    -0.000175640077    12.000000000000
         C           -0.279720748712     1.446017591757    -0.000174640077    12.000000000000
         C           -1.648424748712     1.198110591757    -0.000171640077    12.000000000000
         C           -2.113081748712    -0.122068408243    -0.000169640077    12.000000000000
         C           -1.142462748712    -1.129102408243    -0.000171640077    12.000000000000
         C           -3.581923748712    -0.445769408243    -0.000172640077    12.000000000000
         H            2.399206251288     1.612540591757    -0.000181640077     1.007825032230
         H            3.823295251288    -0.008175408243    -1.270573640077     1.007825032230
         H            2.440803251288    -1.219229408243    -1.242146640077     1.007825032230
         H            2.416932851288    -1.256772708243     1.264613459923     1.007825032230
         H            3.823293251288    -0.008161408243     1.270230359923     1.007825032230
         H            0.099494251288     2.465442591757    -0.000175640077     1.007825032230
         H           -2.355471748712     2.026870591757    -0.000171640077     1.007825032230
         H           -1.446394748712    -2.176767408243    -0.000170640077     1.007825032230
         H           -4.077576748712    -0.030847408243     0.883119359923     1.007825032230
         H           -3.742592748712    -1.527315408243    -0.000130640077     1.007825032230
         H           -4.077556748712    -0.030918408243    -0.883509640077     1.007825032230

  Basis Set: AUG-CC-PVTZ
    Blend: AUG-CC-PVTZ
  Basis Set: (AUG-CC-PVTZ AUX)
    Blend: AUG-CC-PVTZ-JKFIT
	 Reference Energy          =    -401.7713074188174005 [Eh]
	 Singles Energy            =      -0.0000000000000000 [Eh]
	 Same-Spin Energy          =      -0.4460488804206930 [Eh]
	 Opposite-Spin Energy      =      -1.4320583384970698 [Eh]
	 Correlation Energy        =      -1.8781072189177628 [Eh]
	 Total Energy              =    -403.6494146377351626 [Eh]

	 ================> DF-SCS-MP2 Energies <==================
	-----------------------------------------------------------
	 SCS Same-Spin Scale       =       0.3333333333333333 [-]
	 SCS Opposite-Spin Scale   =       1.2000000000000000 [-]
	 SCS Same-Spin Energy      =      -0.1486829601402310 [Eh]
	 SCS Opposite-Spin Energy  =      -1.7184700061964837 [Eh]
	 SCS Correlation Energy    =      -1.8671529663367148 [Eh]
	 SCS Total Energy          =    -403.6384603851541328 [Eh]
	-----------------------------------------------------------

  Dipole Moment: [D]
     X:    -1.3175      Y:     1.4608      Z:    -0.0122     Total:     1.9672

*** Psi4 exiting successfully. Buy a developer a beer!
