                               Psi4 1.4a3.dev225

  ==> Input File <==

--------------------------------------------------------------------------
#psi4
#
memory 32 gb

molecule  {
0 1
  N        0.1871790    -0.9111820    -0.0000020
  C        2.0846610     0.5733200    -0.0000030
  C        2.9631220    -0.4040200    -0.7474220
  C        2.9631210    -0.4040120     0.7474270
  C        0.6498408     0.4611034    -0.0000031
  C       -0.2752490     1.4465330    -0.0000020
  C       -1.6439530     1.1986260     0.0000010
  C       -2.1086100    -0.1215530     0.0000030
  C       -1.1379910    -1.1285870     0.0000010
  C       -3.5774520    -0.4452540     0.0000000
  H        2.4036780     1.6130560    -0.0000090
  H        3.8277670    -0.0076600    -1.2704010
  H        2.4452750    -1.2187140    -1.2419740
  H        2.4452760    -1.2187020     1.2419880
  H        3.8277650    -0.0076460     1.2704030
  H        0.1039660     2.4659580    -0.0000030
  H       -2.3510000     2.0273860     0.0000010
  H       -1.4419230    -2.1762520     0.0000020
  H       -4.0731050    -0.0303320     0.8832920
  H       -3.7381210    -1.5268000     0.0000420
  H       -4.0730850    -0.0304030    -0.8833370
units angstrom
no_reorient  #important for SAPT in psi4, default
symmetry c1  #important for SAPT in psi4, default
}

set PROPERTIES_ORIGIN ["COM"]
properties('MP2/aug-cc-pvtz', properties = ['dipole'])
--------------------------------------------------------------------------

    Molecular point group: c1
  Charge       = 0
  Multiplicity = 1
  Basis Set: AUG-CC-PVTZ
    Blend: AUG-CC-PVTZ
  Basis Set: (AUG-CC-PVTZ AUX)
    Blend: AUG-CC-PVTZ-JKFIT

    Orbital Energies [Eh]
    ---------------------

    Doubly Occupied:

       1A    -15.559808     2A    -11.274799     3A    -11.267946
       4A    -11.251887     5A    -11.239697     6A    -11.231340
       7A    -11.229289     8A    -11.228375     9A    -11.223863
      10A    -11.223177    11A     -1.230878    12A     -1.143480
      13A     -1.084846    14A     -1.050782    15A     -0.953100
      16A     -0.867977    17A     -0.842080    18A     -0.816475
      19A     -0.781105    20A     -0.699053    21A     -0.669540
      22A     -0.631225    23A     -0.623850    24A     -0.608230
      25A     -0.582917    26A     -0.563338    27A     -0.549758
      28A     -0.530086    29A     -0.527106    30A     -0.504504
      31A     -0.495141    32A     -0.433540    33A     -0.428766
      34A     -0.405852    35A     -0.369331    36A     -0.311131

  @DF-RHF Final Energy:  -401.75866421588887

   => Energetics <=

    Nuclear Repulsion Energy =            488.3344672174866901
    One-Electron Energy =               -1511.3177208739778052
    Two-Electron Energy =                 621.2245894406022444
    Total Energy =                       -401.7586642158888708
  Basis Set: (AUG-CC-PVTZ AUX)
    Blend: AUG-CC-PVTZ-RI
    Molecular point group: c1

    Geometry (in Angstrom), charge = 0, multiplicity = 1:

       Center              X                  Y                   Z               Mass
    ------------   -----------------  -----------------  -----------------  -----------------
         N            0.179645906344    -0.920525791151    -0.000001991172    14.003074004430
         C            2.077127906344     0.563976208849    -0.000002991172    12.000000000000
         C            2.955588906344    -0.413363791151    -0.747421991172    12.000000000000
         C            2.955587906344    -0.413355791151     0.747427008828    12.000000000000
         C            0.642307706344     0.451759608849    -0.000003091172    12.000000000000
         C           -0.282782093656     1.437189208849    -0.000001991172    12.000000000000
         C           -1.651486093656     1.189282208849     0.000001008828    12.000000000000
         C           -2.116143093656    -0.130896791151     0.000003008828    12.000000000000
         C           -1.145524093656    -1.137930791151     0.000001008828    12.000000000000
         C           -3.584985093656    -0.454597791151     0.000000008828    12.000000000000
         H            2.396144906344     1.603712208849    -0.000008991172     1.007825032230
         H            3.820233906344    -0.017003791151    -1.270400991172     1.007825032230
         H            2.437741906344    -1.228057791151    -1.241973991172     1.007825032230
         H            2.437742906344    -1.228045791151     1.241988008828     1.007825032230
         H            3.820231906344    -0.016989791151     1.270403008828     1.007825032230
         H            0.096432906344     2.456614208849    -0.000002991172     1.007825032230
         H           -2.358533093656     2.018042208849     0.000001008828     1.007825032230
         H           -1.449456093656    -2.185595791151     0.000002008828     1.007825032230
         H           -4.080638093656    -0.039675791151     0.883292008828     1.007825032230
         H           -3.745654093656    -1.536143791151     0.000042008828     1.007825032230
         H           -4.080618093656    -0.039746791151    -0.883336991172     1.007825032230

  Basis Set: AUG-CC-PVTZ
    Blend: AUG-CC-PVTZ
  Basis Set: (AUG-CC-PVTZ AUX)
    Blend: AUG-CC-PVTZ-JKFIT
	 Reference Energy          =    -401.7586642158888708 [Eh]
	 Singles Energy            =      -0.0000000000000000 [Eh]
	 Same-Spin Energy          =      -0.4470537389752709 [Eh]
	 Opposite-Spin Energy      =      -1.4347251889007118 [Eh]
	 Correlation Energy        =      -1.8817789278759827 [Eh]
	 Total Energy              =    -403.6404431437648554 [Eh]

	 ================> DF-SCS-MP2 Energies <==================
	-----------------------------------------------------------
	 SCS Same-Spin Scale       =       0.3333333333333333 [-]
	 SCS Opposite-Spin Scale   =       1.2000000000000000 [-]
	 SCS Same-Spin Energy      =      -0.1490179129917570 [Eh]
	 SCS Opposite-Spin Energy  =      -1.7216702266808541 [Eh]
	 SCS Correlation Energy    =      -1.8706881396726112 [Eh]
	 SCS Total Energy          =    -403.6293523555614797 [Eh]
	-----------------------------------------------------------

  Dipole Moment: [D]
     X:    -1.1913      Y:     1.4044      Z:    -0.0000     Total:     1.8416

*** Psi4 exiting successfully. Buy a developer a beer!
