                               Psi4 1.4a3.dev225

  ==> Input File <==

--------------------------------------------------------------------------
#psi4
#
memory 32 gb

molecule  {
0 1
  N        0.1871790    -0.9111820    -0.0000020
  C        2.0846610     0.5733200    -0.0000030
  C        2.9631220    -0.4040200    -0.7474220
  C        2.9631210    -0.4040120     0.7474270
  C        0.6178930     0.3663440    -0.0000030
  C       -0.2752490     1.4465330    -0.0000020
  C       -1.6439530     1.1986260     0.0000010
  C       -2.1086100    -0.1215530     0.0000030
  C       -1.1379910    -1.1285870     0.0000010
  C       -3.5774520    -0.4452540     0.0000000
  H        2.4036780     1.6130560    -0.0000090
  H        3.8277670    -0.0076600    -1.2704010
  H        2.4452750    -1.2187140    -1.2419740
  H        2.4452760    -1.2187020     1.2419880
  H        3.8277650    -0.0076460     1.2704030
  H        0.1039660     2.4659580    -0.0000030
  H       -2.3510000     2.0273860     0.0000010
  H       -1.4419230    -2.1762520     0.0000020
  H       -4.0612085    -0.0402898     0.8944387
  H       -3.7381210    -1.5268000     0.0000420
  H       -4.0730850    -0.0304030    -0.8833370
units angstrom
no_reorient  #important for SAPT in psi4, default
symmetry c1  #important for SAPT in psi4, default
}

set PROPERTIES_ORIGIN ["COM"]
properties('MP2/aug-cc-pvtz', properties = ['dipole'])
--------------------------------------------------------------------------

    Molecular point group: c1
  Charge       = 0
  Multiplicity = 1
  Basis Set: AUG-CC-PVTZ
    Blend: AUG-CC-PVTZ
  Basis Set: (AUG-CC-PVTZ AUX)
    Blend: AUG-CC-PVTZ-JKFIT

    Orbital Energies [Eh]
    ---------------------

    Doubly Occupied:

       1A    -15.555664     2A    -11.276085     3A    -11.267664
       4A    -11.251627     5A    -11.239282     6A    -11.233772
       7A    -11.231355     8A    -11.229271     9A    -11.221535
      10A    -11.220842    11A     -1.251144    12A     -1.140825
      13A     -1.091596    14A     -1.042442    15A     -0.951013
      16A     -0.867248    17A     -0.839999    18A     -0.814900
      19A     -0.781230    20A     -0.700980    21A     -0.666772
      22A     -0.638968    23A     -0.626088    24A     -0.600871
      25A     -0.585220    26A     -0.564624    27A     -0.548014
      28A     -0.535703    29A     -0.528038    30A     -0.504155
      31A     -0.498823    32A     -0.429480    33A     -0.427206
      34A     -0.406291    35A     -0.372433    36A     -0.312703

  @DF-RHF Final Energy:  -401.77367148266035

   => Energetics <=

    Nuclear Repulsion Energy =            489.0327916771021819
    One-Electron Energy =               -1512.7051930694112798
    Two-Electron Energy =                 621.8987299096487504
    Total Energy =                       -401.7736714826603475
  Basis Set: (AUG-CC-PVTZ AUX)
    Blend: AUG-CC-PVTZ-RI
    Molecular point group: c1

    Geometry (in Angstrom), charge = 0, multiplicity = 1:

       Center              X                  Y                   Z               Mass
    ------------   -----------------  -----------------  -----------------  -----------------
         N            0.182436396863    -0.911906391856    -0.000086409199    14.003074004430
         C            2.079918396863     0.572595608144    -0.000087409199    12.000000000000
         C            2.958379396863    -0.404744391856    -0.747506409199    12.000000000000
         C            2.958378396863    -0.404736391856     0.747342590801    12.000000000000
         C            0.613150396863     0.365619608144    -0.000087409199    12.000000000000
         C           -0.279991603137     1.445808608144    -0.000086409199    12.000000000000
         C           -1.648695603137     1.197901608144    -0.000083409199    12.000000000000
         C           -2.113352603137    -0.122277391856    -0.000081409199    12.000000000000
         C           -1.142733603137    -1.129311391856    -0.000083409199    12.000000000000
         C           -3.582194603137    -0.445978391856    -0.000084409199    12.000000000000
         H            2.398935396863     1.612331608144    -0.000093409199     1.007825032230
         H            3.823024396863    -0.008384391856    -1.270485409199     1.007825032230
         H            2.440532396863    -1.219438391856    -1.242058409199     1.007825032230
         H            2.440533396863    -1.219426391856     1.241903590801     1.007825032230
         H            3.823022396863    -0.008370391856     1.270318590801     1.007825032230
         H            0.099223396863     2.465233608144    -0.000087409199     1.007825032230
         H           -2.355742603137     2.026661608144    -0.000083409199     1.007825032230
         H           -1.446665603137    -2.176976391856    -0.000082409199     1.007825032230
         H           -4.065951103137    -0.041014191856     0.894354290801     1.007825032230
         H           -3.742863603137    -1.527524391856    -0.000042409199     1.007825032230
         H           -4.077827603137    -0.031127391856    -0.883421409199     1.007825032230

  Basis Set: AUG-CC-PVTZ
    Blend: AUG-CC-PVTZ
  Basis Set: (AUG-CC-PVTZ AUX)
    Blend: AUG-CC-PVTZ-JKFIT
	 Reference Energy          =    -401.7736714826603475 [Eh]
	 Singles Energy            =      -0.0000000000000000 [Eh]
	 Same-Spin Energy          =      -0.4459573722832414 [Eh]
	 Opposite-Spin Energy      =      -1.4316763575940539 [Eh]
	 Correlation Energy        =      -1.8776337298772954 [Eh]
	 Total Energy              =    -403.6513052125376362 [Eh]

	 ================> DF-SCS-MP2 Energies <==================
	-----------------------------------------------------------
	 SCS Same-Spin Scale       =       0.3333333333333333 [-]
	 SCS Opposite-Spin Scale   =       1.2000000000000000 [-]
	 SCS Same-Spin Energy      =      -0.1486524574277471 [Eh]
	 SCS Opposite-Spin Energy  =      -1.7180116291128646 [Eh]
	 SCS Correlation Energy    =      -1.8666640865406117 [Eh]
	 SCS Total Energy          =    -403.6403355692009427 [Eh]
	-----------------------------------------------------------

  Dipole Moment: [D]
     X:    -1.3120      Y:     1.4501      Z:     0.0029     Total:     1.9555

*** Psi4 exiting successfully. Buy a developer a beer!
