                               Psi4 1.4a3.dev225

  ==> Input File <==

--------------------------------------------------------------------------
#psi4
#
memory 32 gb

molecule  {
0 1
  N        0.1871790    -0.9111820    -0.0000020
  C        2.0846610     0.5733200    -0.0000030
  C        2.9631220    -0.4040200    -0.7474220
  C        2.9631210    -0.4040120     0.7474270
  C        0.6178930     0.3663440    -0.0000030
  C       -0.2752490     1.4465330    -0.0000020
  C       -1.6439530     1.1986260     0.0000010
  C       -2.1086100    -0.1215530     0.0000030
  C       -1.1379910    -1.1285870     0.0000010
  C       -3.5774520    -0.4452540     0.0000000
  H        2.4036780     1.6130560    -0.0000090
  H        3.8277670    -0.0076600    -1.2704010
  H        2.4452750    -1.2187140    -1.2419740
  H        2.4452760    -1.2187020     1.2419880
  H        3.8277650    -0.0076460     1.2704030
  H        0.1039660     2.4659580    -0.0000030
  H       -2.3510000     2.0273860     0.0000010
  H       -1.4976463    -2.3683325     0.0000022
  H       -4.0731050    -0.0303320     0.8832920
  H       -3.7381210    -1.5268000     0.0000420
  H       -4.0730850    -0.0304030    -0.8833370
units angstrom
no_reorient  #important for SAPT in psi4, default
symmetry c1  #important for SAPT in psi4, default
}

set PROPERTIES_ORIGIN ["COM"]
properties('MP2/aug-cc-pvtz', properties = ['dipole'])
--------------------------------------------------------------------------

    Molecular point group: c1
  Charge       = 0
  Multiplicity = 1
  Basis Set: AUG-CC-PVTZ
    Blend: AUG-CC-PVTZ
  Basis Set: (AUG-CC-PVTZ AUX)
    Blend: AUG-CC-PVTZ-JKFIT

    Orbital Energies [Eh]
    ---------------------

    Doubly Occupied:

       1A    -15.558668     2A    -11.289593     3A    -11.278534
       4A    -11.253770     5A    -11.242323     6A    -11.235069
       7A    -11.232486     8A    -11.228853     9A    -11.222367
      10A    -11.221673    11A     -1.252912    12A     -1.141569
      13A     -1.093325    14A     -1.040898    15A     -0.950680
      16A     -0.862959    17A     -0.837442    18A     -0.815698
      19A     -0.780340    20A     -0.693797    21A     -0.667356
      22A     -0.640198    23A     -0.619866    24A     -0.592306
      25A     -0.583994    26A     -0.556640    27A     -0.544808
      28A     -0.536839    29A     -0.528807    30A     -0.505043
      31A     -0.492144    32A     -0.430624    33A     -0.427008
      34A     -0.405467    35A     -0.374261    36A     -0.314181

  @DF-RHF Final Energy:  -401.75158135857856

   => Energetics <=

    Nuclear Repulsion Energy =            488.0627282331414563
    One-Electron Energy =               -1510.7236247459620699
    Two-Electron Energy =                 620.9093151542419946
    Total Energy =                       -401.7515813585786191
  Basis Set: (AUG-CC-PVTZ AUX)
    Blend: AUG-CC-PVTZ-RI
    Molecular point group: c1

    Geometry (in Angstrom), charge = 0, multiplicity = 1:

       Center              X                  Y                   Z               Mass
    ------------   -----------------  -----------------  -----------------  -----------------
         N            0.182948451583    -0.910527257517    -0.000002001703    14.003074004430
         C            2.080430451583     0.573974742483    -0.000003001703    12.000000000000
         C            2.958891451583    -0.403365257517    -0.747422001703    12.000000000000
         C            2.958890451583    -0.403357257517     0.747426998297    12.000000000000
         C            0.613662451583     0.366998742483    -0.000003001703    12.000000000000
         C           -0.279479548417     1.447187742483    -0.000002001703    12.000000000000
         C           -1.648183548417     1.199280742483     0.000000998297    12.000000000000
         C           -2.112840548417    -0.120898257517     0.000002998297    12.000000000000
         C           -1.142221548417    -1.127932257517     0.000000998297    12.000000000000
         C           -3.581682548417    -0.444599257517    -0.000000001703    12.000000000000
         H            2.399447451583     1.613710742483    -0.000009001703     1.007825032230
         H            3.823536451583    -0.007005257517    -1.270401001703     1.007825032230
         H            2.441044451583    -1.218059257517    -1.241974001703     1.007825032230
         H            2.441045451583    -1.218047257517     1.241987998297     1.007825032230
         H            3.823534451583    -0.006991257517     1.270402998297     1.007825032230
         H            0.099735451583     2.466612742483    -0.000003001703     1.007825032230
         H           -2.355230548417     2.028040742483     0.000000998297     1.007825032230
         H           -1.501876848417    -2.367677757517     0.000002198297     1.007825032230
         H           -4.077335548417    -0.029677257517     0.883291998297     1.007825032230
         H           -3.742351548417    -1.526145257517     0.000041998297     1.007825032230
         H           -4.077315548417    -0.029748257517    -0.883337001703     1.007825032230

  Basis Set: AUG-CC-PVTZ
    Blend: AUG-CC-PVTZ
  Basis Set: (AUG-CC-PVTZ AUX)
    Blend: AUG-CC-PVTZ-JKFIT
	 Reference Energy          =    -401.7515813585785622 [Eh]
	 Singles Energy            =      -0.0000000000000000 [Eh]
	 Same-Spin Energy          =      -0.4466941553473470 [Eh]
	 Opposite-Spin Energy      =      -1.4340970233242358 [Eh]
	 Correlation Energy        =      -1.8807911786715827 [Eh]
	 Total Energy              =    -403.6323725372501485 [Eh]

	 ================> DF-SCS-MP2 Energies <==================
	-----------------------------------------------------------
	 SCS Same-Spin Scale       =       0.3333333333333333 [-]
	 SCS Opposite-Spin Scale   =       1.2000000000000000 [-]
	 SCS Same-Spin Energy      =      -0.1488980517824490 [Eh]
	 SCS Opposite-Spin Energy  =      -1.7209164279890830 [Eh]
	 SCS Correlation Energy    =      -1.8698144797715319 [Eh]
	 SCS Total Energy          =    -403.6213958383501108 [Eh]
	-----------------------------------------------------------

  Dipole Moment: [D]
     X:    -1.2118      Y:     1.5838      Z:    -0.0000     Total:     1.9942

*** Psi4 exiting successfully. Buy a developer a beer!
