                               Psi4 1.4a3.dev225

  ==> Input File <==

--------------------------------------------------------------------------
#psi4
#
memory 32 gb

molecule  {
0 1
  N        0.1871790    -0.9111820    -0.0000020
  C        2.0846610     0.5733200    -0.0000030
  C        2.9631220    -0.4040200    -0.7474220
  C        3.0105450    -0.3822723     0.7465163
  C        0.6178930     0.3663440    -0.0000030
  C       -0.2752490     1.4465330    -0.0000020
  C       -1.6439530     1.1986260     0.0000010
  C       -2.1086100    -0.1215530     0.0000030
  C       -1.1379910    -1.1285870     0.0000010
  C       -3.5774520    -0.4452540     0.0000000
  H        2.4036780     1.6130560    -0.0000090
  H        3.8277670    -0.0076600    -1.2704010
  H        2.4452750    -1.2187140    -1.2419740
  H        2.4452760    -1.2187020     1.2419880
  H        3.8277650    -0.0076460     1.2704030
  H        0.1039660     2.4659580    -0.0000030
  H       -2.3510000     2.0273860     0.0000010
  H       -1.4419230    -2.1762520     0.0000020
  H       -4.0731050    -0.0303320     0.8832920
  H       -3.7381210    -1.5268000     0.0000420
  H       -4.0730850    -0.0304030    -0.8833370
units angstrom
no_reorient  #important for SAPT in psi4, default
symmetry c1  #important for SAPT in psi4, default
}

set PROPERTIES_ORIGIN ["COM"]
properties('MP2/aug-cc-pvtz', properties = ['dipole'])
--------------------------------------------------------------------------

    Molecular point group: c1
  Charge       = 0
  Multiplicity = 1
  Basis Set: AUG-CC-PVTZ
    Blend: AUG-CC-PVTZ
  Basis Set: (AUG-CC-PVTZ AUX)
    Blend: AUG-CC-PVTZ-JKFIT

    Orbital Energies [Eh]
    ---------------------

    Doubly Occupied:

       1A    -15.555949     2A    -11.276558     3A    -11.267757
       4A    -11.251767     5A    -11.239604     6A    -11.234098
       7A    -11.231673     8A    -11.229351     9A    -11.222263
      10A    -11.221393    11A     -1.251064    12A     -1.138596
      13A     -1.091710    14A     -1.042639    15A     -0.951408
      16A     -0.867357    17A     -0.840651    18A     -0.816355
      19A     -0.781150    20A     -0.699768    21A     -0.667060
      22A     -0.641943    23A     -0.626870    24A     -0.598855
      25A     -0.583841    26A     -0.564907    27A     -0.549560
      28A     -0.536719    29A     -0.527745    30A     -0.502844
      31A     -0.499130    32A     -0.428987    33A     -0.424978
      34A     -0.406766    35A     -0.372555    36A     -0.312539

  @DF-RHF Final Energy:  -401.77032288261393

   => Energetics <=

    Nuclear Repulsion Energy =            488.5088781686109769
    One-Electron Energy =               -1511.6455781550107531
    Two-Electron Energy =                 621.3663771037857941
    Total Energy =                       -401.7703228826139821
  Basis Set: (AUG-CC-PVTZ AUX)
    Blend: AUG-CC-PVTZ-RI
    Molecular point group: c1

    Geometry (in Angstrom), charge = 0, multiplicity = 1:

       Center              X                  Y                   Z               Mass
    ------------   -----------------  -----------------  -----------------  -----------------
         N            0.178250492812    -0.913941960656     0.000080113192    14.003074004430
         C            2.075732492812     0.570560039344     0.000079113192    12.000000000000
         C            2.954193492812    -0.406779960656    -0.747339886808    12.000000000000
         C            3.001616492812    -0.385032260656     0.746598413192    12.000000000000
         C            0.608964492812     0.363584039344     0.000079113192    12.000000000000
         C           -0.284177507188     1.443773039344     0.000080113192    12.000000000000
         C           -1.652881507188     1.195866039344     0.000083113192    12.000000000000
         C           -2.117538507188    -0.124312960656     0.000085113192    12.000000000000
         C           -1.146919507188    -1.131346960656     0.000083113192    12.000000000000
         C           -3.586380507188    -0.448013960656     0.000082113192    12.000000000000
         H            2.394749492812     1.610296039344     0.000073113192     1.007825032230
         H            3.818838492812    -0.010419960656    -1.270318886808     1.007825032230
         H            2.436346492812    -1.221473960656    -1.241891886808     1.007825032230
         H            2.436347492812    -1.221461960656     1.242070113192     1.007825032230
         H            3.818836492812    -0.010405960656     1.270485113192     1.007825032230
         H            0.095037492812     2.463198039344     0.000079113192     1.007825032230
         H           -2.359928507188     2.024626039344     0.000083113192     1.007825032230
         H           -1.450851507188    -2.179011960656     0.000084113192     1.007825032230
         H           -4.082033507188    -0.033091960656     0.883374113192     1.007825032230
         H           -3.747049507188    -1.529559960656     0.000124113192     1.007825032230
         H           -4.082013507188    -0.033162960656    -0.883254886808     1.007825032230

  Basis Set: AUG-CC-PVTZ
    Blend: AUG-CC-PVTZ
  Basis Set: (AUG-CC-PVTZ AUX)
    Blend: AUG-CC-PVTZ-JKFIT
	 Reference Energy          =    -401.7703228826139252 [Eh]
	 Singles Energy            =      -0.0000000000000000 [Eh]
	 Same-Spin Energy          =      -0.4460119210020672 [Eh]
	 Opposite-Spin Energy      =      -1.4319013424437372 [Eh]
	 Correlation Energy        =      -1.8779132634458044 [Eh]
	 Total Energy              =    -403.6482361460597303 [Eh]

	 ================> DF-SCS-MP2 Energies <==================
	-----------------------------------------------------------
	 SCS Same-Spin Scale       =       0.3333333333333333 [-]
	 SCS Opposite-Spin Scale   =       1.2000000000000000 [-]
	 SCS Same-Spin Energy      =      -0.1486706403340224 [Eh]
	 SCS Opposite-Spin Energy  =      -1.7182816109324845 [Eh]
	 SCS Correlation Energy    =      -1.8669522512665069 [Eh]
	 SCS Total Energy          =    -403.6372751338804505 [Eh]
	-----------------------------------------------------------

  Dipole Moment: [D]
     X:    -1.3166      Y:     1.4667      Z:    -0.0028     Total:     1.9710

*** Psi4 exiting successfully. Buy a developer a beer!
