                               Psi4 1.4a3.dev225

  ==> Input File <==

--------------------------------------------------------------------------
#psi4
#
memory 32 gb

molecule  {
0 1
  N        0.1871790    -0.9111820    -0.0000020
  C        2.0846610     0.5733200    -0.0000030
  C        2.9631220    -0.4040200    -0.7474220
  C        2.9631210    -0.4040120     0.7474270
  C        0.6178930     0.3663440    -0.0000030
  C       -0.2115264     1.3694653    -0.0000021
  C       -1.6439530     1.1986260     0.0000010
  C       -2.1086100    -0.1215530     0.0000030
  C       -1.1379910    -1.1285870     0.0000010
  C       -3.5774520    -0.4452540     0.0000000
  H        2.4036780     1.6130560    -0.0000090
  H        3.8277670    -0.0076600    -1.2704010
  H        2.4452750    -1.2187140    -1.2419740
  H        2.4452760    -1.2187020     1.2419880
  H        3.8277650    -0.0076460     1.2704030
  H        0.1039660     2.4659580    -0.0000030
  H       -2.3510000     2.0273860     0.0000010
  H       -1.4419230    -2.1762520     0.0000020
  H       -4.0731050    -0.0303320     0.8832920
  H       -3.7381210    -1.5268000     0.0000420
  H       -4.0730850    -0.0304030    -0.8833370
units angstrom
no_reorient  #important for SAPT in psi4, default
symmetry c1  #important for SAPT in psi4, default
}

set PROPERTIES_ORIGIN ["COM"]
properties('MP2/aug-cc-pvtz', properties = ['dipole'])
--------------------------------------------------------------------------

    Molecular point group: c1
  Charge       = 0
  Multiplicity = 1
  Basis Set: AUG-CC-PVTZ
    Blend: AUG-CC-PVTZ
  Basis Set: (AUG-CC-PVTZ AUX)
    Blend: AUG-CC-PVTZ-JKFIT

    Orbital Energies [Eh]
    ---------------------

    Doubly Occupied:

       1A    -15.556320     2A    -11.270847     3A    -11.259897
       4A    -11.258068     5A    -11.242128     6A    -11.230764
       7A    -11.230561     8A    -11.228143     9A    -11.218742
      10A    -11.218052    11A     -1.256193    12A     -1.138876
      13A     -1.088952    14A     -1.050849    15A     -0.952524
      16A     -0.872412    17A     -0.836400    18A     -0.812646
      19A     -0.783949    20A     -0.700952    21A     -0.670023
      22A     -0.637392    23A     -0.616052    24A     -0.604282
      25A     -0.585820    26A     -0.567536    27A     -0.550440
      28A     -0.540119    29A     -0.526699    30A     -0.503009
      31A     -0.486464    32A     -0.428296    33A     -0.423954
      34A     -0.409574    35A     -0.365507    36A     -0.323589

  @DF-RHF Final Energy:  -401.76011448568846

   => Energetics <=

    Nuclear Repulsion Energy =            490.4459185908426093
    One-Electron Energy =               -1515.5200041639218398
    Two-Electron Energy =                 623.3139710873907688
    Total Energy =                       -401.7601144856884048
  Basis Set: (AUG-CC-PVTZ AUX)
    Blend: AUG-CC-PVTZ-RI
    Molecular point group: c1

    Geometry (in Angstrom), charge = 0, multiplicity = 1:

       Center              X                  Y                   Z               Mass
    ------------   -----------------  -----------------  -----------------  -----------------
         N            0.176780927480    -0.905032978927    -0.000001991172    14.003074004430
         C            2.074262927480     0.579469021073    -0.000002991172    12.000000000000
         C            2.952723927480    -0.397870978927    -0.747421991172    12.000000000000
         C            2.952722927480    -0.397862978927     0.747427008828    12.000000000000
         C            0.607494927480     0.372493021073    -0.000002991172    12.000000000000
         C           -0.221924472520     1.375614321073    -0.000002091172    12.000000000000
         C           -1.654351072520     1.204775021073     0.000001008828    12.000000000000
         C           -2.119008072520    -0.115403978927     0.000003008828    12.000000000000
         C           -1.148389072520    -1.122437978927     0.000001008828    12.000000000000
         C           -3.587850072520    -0.439104978927     0.000000008828    12.000000000000
         H            2.393279927480     1.619205021073    -0.000008991172     1.007825032230
         H            3.817368927480    -0.001510978927    -1.270400991172     1.007825032230
         H            2.434876927480    -1.212564978927    -1.241973991172     1.007825032230
         H            2.434877927480    -1.212552978927     1.241988008828     1.007825032230
         H            3.817366927480    -0.001496978927     1.270403008828     1.007825032230
         H            0.093567927480     2.472107021073    -0.000002991172     1.007825032230
         H           -2.361398072520     2.033535021073     0.000001008828     1.007825032230
         H           -1.452321072520    -2.170102978927     0.000002008828     1.007825032230
         H           -4.083503072520    -0.024182978927     0.883292008828     1.007825032230
         H           -3.748519072520    -1.520650978927     0.000042008828     1.007825032230
         H           -4.083483072520    -0.024253978927    -0.883336991172     1.007825032230

  Basis Set: AUG-CC-PVTZ
    Blend: AUG-CC-PVTZ
  Basis Set: (AUG-CC-PVTZ AUX)
    Blend: AUG-CC-PVTZ-JKFIT
	 Reference Energy          =    -401.7601144856884616 [Eh]
	 Singles Energy            =      -0.0000000000000000 [Eh]
	 Same-Spin Energy          =      -0.4460706938516573 [Eh]
	 Opposite-Spin Energy      =      -1.4323527255819601 [Eh]
	 Correlation Energy        =      -1.8784234194336173 [Eh]
	 Total Energy              =    -403.6385379051220639 [Eh]

	 ================> DF-SCS-MP2 Energies <==================
	-----------------------------------------------------------
	 SCS Same-Spin Scale       =       0.3333333333333333 [-]
	 SCS Opposite-Spin Scale   =       1.2000000000000000 [-]
	 SCS Same-Spin Energy      =      -0.1486902312838858 [Eh]
	 SCS Opposite-Spin Energy  =      -1.7188232706983522 [Eh]
	 SCS Correlation Energy    =      -1.8675135019822380 [Eh]
	 SCS Total Energy          =    -403.6276279876706781 [Eh]
	-----------------------------------------------------------

  Dipole Moment: [D]
     X:    -1.5078      Y:     1.4119      Z:    -0.0000     Total:     2.0656

*** Psi4 exiting successfully. Buy a developer a beer!
