                               Psi4 1.4a3.dev225

  ==> Input File <==

--------------------------------------------------------------------------
#psi4
#
memory 32 gb

molecule  {
0 1
  N        0.2026446    -1.0508910    -0.0000020
  C        2.0846610     0.5733200    -0.0000030
  C        2.9631220    -0.4040200    -0.7474220
  C        2.9631210    -0.4040120     0.7474270
  C        0.6178930     0.3663440    -0.0000030
  C       -0.2752490     1.4465330    -0.0000020
  C       -1.6439530     1.1986260     0.0000010
  C       -2.1086100    -0.1215530     0.0000030
  C       -1.1379910    -1.1285870     0.0000010
  C       -3.5774520    -0.4452540     0.0000000
  H        2.4036780     1.6130560    -0.0000090
  H        3.8277670    -0.0076600    -1.2704010
  H        2.4452750    -1.2187140    -1.2419740
  H        2.4452760    -1.2187020     1.2419880
  H        3.8277650    -0.0076460     1.2704030
  H        0.1039660     2.4659580    -0.0000030
  H       -2.3510000     2.0273860     0.0000010
  H       -1.4419230    -2.1762520     0.0000020
  H       -4.0731050    -0.0303320     0.8832920
  H       -3.7381210    -1.5268000     0.0000420
  H       -4.0730850    -0.0304030    -0.8833370
units angstrom
no_reorient  #important for SAPT in psi4, default
symmetry c1  #important for SAPT in psi4, default
}

set PROPERTIES_ORIGIN ["COM"]
properties('MP2/aug-cc-pvtz', properties = ['dipole'])
--------------------------------------------------------------------------

    Molecular point group: c1
  Charge       = 0
  Multiplicity = 1
  Basis Set: AUG-CC-PVTZ
    Blend: AUG-CC-PVTZ
  Basis Set: (AUG-CC-PVTZ AUX)
    Blend: AUG-CC-PVTZ-JKFIT

    Orbital Energies [Eh]
    ---------------------

    Doubly Occupied:

       1A    -15.572853     2A    -11.289627     3A    -11.269226
       4A    -11.255807     5A    -11.239406     6A    -11.235705
       7A    -11.234063     8A    -11.229730     9A    -11.222737
      10A    -11.222040    11A     -1.227903    12A     -1.142049
      13A     -1.092131    14A     -1.042429    15A     -0.946429
      16A     -0.866734    17A     -0.835271    18A     -0.815931
      19A     -0.779520    20A     -0.695350    21A     -0.665892
      22A     -0.632399    23A     -0.625718    24A     -0.598451
      25A     -0.582867    26A     -0.565306    27A     -0.547910
      28A     -0.526977    29A     -0.526187    30A     -0.502592
      31A     -0.491892    32A     -0.432091    33A     -0.431859
      34A     -0.416863    35A     -0.375474    36A     -0.307328

  @DF-RHF Final Energy:  -401.75187742585524

   => Energetics <=

    Nuclear Repulsion Energy =            486.0798096220954108
    One-Electron Energy =               -1506.7738773556077376
    Two-Electron Energy =                 618.9421903076571425
    Total Energy =                       -401.7518774258552412
  Basis Set: (AUG-CC-PVTZ AUX)
    Blend: AUG-CC-PVTZ-RI
    Molecular point group: c1

    Geometry (in Angstrom), charge = 0, multiplicity = 1:

       Center              X                  Y                   Z               Mass
    ------------   -----------------  -----------------  -----------------  -----------------
         N            0.196364859149    -1.036991211332    -0.000002000189    14.003074004430
         C            2.078381259149     0.587219788668    -0.000003000189    12.000000000000
         C            2.956842259149    -0.390120211332    -0.747422000189    12.000000000000
         C            2.956841259149    -0.390112211332     0.747426999811    12.000000000000
         C            0.611613259149     0.380243788668    -0.000003000189    12.000000000000
         C           -0.281528740851     1.460432788668    -0.000002000189    12.000000000000
         C           -1.650232740851     1.212525788668     0.000000999811    12.000000000000
         C           -2.114889740851    -0.107653211332     0.000002999811    12.000000000000
         C           -1.144270740851    -1.114687211332     0.000000999811    12.000000000000
         C           -3.583731740851    -0.431354211332    -0.000000000189    12.000000000000
         H            2.397398259149     1.626955788668    -0.000009000189     1.007825032230
         H            3.821487259149     0.006239788668    -1.270401000189     1.007825032230
         H            2.438995259149    -1.204814211332    -1.241974000189     1.007825032230
         H            2.438996259149    -1.204802211332     1.241987999811     1.007825032230
         H            3.821485259149     0.006253788668     1.270402999811     1.007825032230
         H            0.097686259149     2.479857788668    -0.000003000189     1.007825032230
         H           -2.357279740851     2.041285788668     0.000000999811     1.007825032230
         H           -1.448202740851    -2.162352211332     0.000001999811     1.007825032230
         H           -4.079384740851    -0.016432211332     0.883291999811     1.007825032230
         H           -3.744400740851    -1.512900211332     0.000041999811     1.007825032230
         H           -4.079364740851    -0.016503211332    -0.883337000189     1.007825032230

  Basis Set: AUG-CC-PVTZ
    Blend: AUG-CC-PVTZ
  Basis Set: (AUG-CC-PVTZ AUX)
    Blend: AUG-CC-PVTZ-JKFIT
	 Reference Energy          =    -401.7518774258552412 [Eh]
	 Singles Energy            =      -0.0000000000000000 [Eh]
	 Same-Spin Energy          =      -0.4472527433357212 [Eh]
	 Opposite-Spin Energy      =      -1.4366093631717121 [Eh]
	 Correlation Energy        =      -1.8838621065074332 [Eh]
	 Total Energy              =    -403.6357395323626633 [Eh]

	 ================> DF-SCS-MP2 Energies <==================
	-----------------------------------------------------------
	 SCS Same-Spin Scale       =       0.3333333333333333 [-]
	 SCS Opposite-Spin Scale   =       1.2000000000000000 [-]
	 SCS Same-Spin Energy      =      -0.1490842477785737 [Eh]
	 SCS Opposite-Spin Energy  =      -1.7239312358060543 [Eh]
	 SCS Correlation Energy    =      -1.8730154835846280 [Eh]
	 SCS Total Energy          =    -403.6248929094398932 [Eh]
	-----------------------------------------------------------

  Dipole Moment: [D]
     X:    -1.2978      Y:     1.6524      Z:    -0.0000     Total:     2.1011

*** Psi4 exiting successfully. Buy a developer a beer!
