                               Psi4 1.4a3.dev225

  ==> Input File <==

--------------------------------------------------------------------------
#psi4
#
memory 32 gb

molecule  {
0 1
  N        0.1871790    -0.9111820    -0.0000020
  C        2.0846610     0.5733200    -0.0000030
  C        2.9631220    -0.4040200    -0.7474220
  C        2.9631210    -0.4040120     0.7474270
  C        0.6178930     0.3663440    -0.0000030
  C       -0.2752490     1.4465330    -0.0000020
  C       -1.6439530     1.1986260     0.0000010
  C       -2.1086100    -0.1215530     0.0000030
  C       -1.1557140    -1.1453733     0.0000009
  C       -3.5774520    -0.4452540     0.0000000
  H        2.4036780     1.6130560    -0.0000090
  H        3.8277670    -0.0076600    -1.2704010
  H        2.4452750    -1.2187140    -1.2419740
  H        2.4452760    -1.2187020     1.2419880
  H        3.8277650    -0.0076460     1.2704030
  H        0.1039660     2.4659580    -0.0000030
  H       -2.3510000     2.0273860     0.0000010
  H       -1.4419230    -2.1762520     0.0000020
  H       -4.0731050    -0.0303320     0.8832920
  H       -3.7381210    -1.5268000     0.0000420
  H       -4.0730850    -0.0304030    -0.8833370
units angstrom
no_reorient  #important for SAPT in psi4, default
symmetry c1  #important for SAPT in psi4, default
}

set PROPERTIES_ORIGIN ["COM"]
properties('MP2/aug-cc-pvtz', properties = ['dipole'])
--------------------------------------------------------------------------

    Molecular point group: c1
  Charge       = 0
  Multiplicity = 1
  Basis Set: AUG-CC-PVTZ
    Blend: AUG-CC-PVTZ
  Basis Set: (AUG-CC-PVTZ AUX)
    Blend: AUG-CC-PVTZ-JKFIT

    Orbital Energies [Eh]
    ---------------------

    Doubly Occupied:

       1A    -15.556485     2A    -11.275902     3A    -11.267772
       4A    -11.251935     5A    -11.240033     6A    -11.234465
       7A    -11.231228     8A    -11.228794     9A    -11.221301
      10A    -11.220608    11A     -1.245693    12A     -1.140201
      13A     -1.090191    14A     -1.042685    15A     -0.950327
      16A     -0.868810    17A     -0.839762    18A     -0.814646
      19A     -0.779949    20A     -0.701441    21A     -0.666207
      22A     -0.638662    23A     -0.628674    24A     -0.602518
      25A     -0.583236    26A     -0.565564    27A     -0.548414
      28A     -0.533504    29A     -0.528133    30A     -0.503478
      31A     -0.499555    32A     -0.428870    33A     -0.426965
      34A     -0.405567    35A     -0.370120    36A     -0.313479

  @DF-RHF Final Energy:  -401.77214319772935

   => Energetics <=

    Nuclear Repulsion Energy =            488.5980739554265142
    One-Electron Energy =               -1511.8500989136809949
    Two-Electron Energy =                 621.4798817605251315
    Total Energy =                       -401.7721431977292923
  Basis Set: (AUG-CC-PVTZ AUX)
    Blend: AUG-CC-PVTZ-RI
    Molecular point group: c1

    Geometry (in Angstrom), charge = 0, multiplicity = 1:

       Center              X                  Y                   Z               Mass
    ------------   -----------------  -----------------  -----------------  -----------------
         N            0.184124480314    -0.910468258989    -0.000001991172    14.003074004430
         C            2.081606480314     0.574033741011    -0.000002991172    12.000000000000
         C            2.960067480314    -0.403306258989    -0.747421991172    12.000000000000
         C            2.960066480314    -0.403298258989     0.747427008828    12.000000000000
         C            0.614838480314     0.367057741011    -0.000002991172    12.000000000000
         C           -0.278303519686     1.447246741011    -0.000001991172    12.000000000000
         C           -1.647007519686     1.199339741011     0.000001008828    12.000000000000
         C           -2.111664519686    -0.120839258989     0.000003008828    12.000000000000
         C           -1.158768519686    -1.144659558989     0.000000908828    12.000000000000
         C           -3.580506519686    -0.444540258989     0.000000008828    12.000000000000
         H            2.400623480314     1.613769741011    -0.000008991172     1.007825032230
         H            3.824712480314    -0.006946258989    -1.270400991172     1.007825032230
         H            2.442220480314    -1.218000258989    -1.241973991172     1.007825032230
         H            2.442221480314    -1.217988258989     1.241988008828     1.007825032230
         H            3.824710480314    -0.006932258989     1.270403008828     1.007825032230
         H            0.100911480314     2.466671741011    -0.000002991172     1.007825032230
         H           -2.354054519686     2.028099741011     0.000001008828     1.007825032230
         H           -1.444977519686    -2.175538258989     0.000002008828     1.007825032230
         H           -4.076159519686    -0.029618258989     0.883292008828     1.007825032230
         H           -3.741175519686    -1.526086258989     0.000042008828     1.007825032230
         H           -4.076139519686    -0.029689258989    -0.883336991172     1.007825032230

  Basis Set: AUG-CC-PVTZ
    Blend: AUG-CC-PVTZ
  Basis Set: (AUG-CC-PVTZ AUX)
    Blend: AUG-CC-PVTZ-JKFIT
	 Reference Energy          =    -401.7721431977293491 [Eh]
	 Singles Energy            =      -0.0000000000000000 [Eh]
	 Same-Spin Energy          =      -0.4460864862508896 [Eh]
	 Opposite-Spin Energy      =      -1.4321612948873181 [Eh]
	 Correlation Energy        =      -1.8782477811382079 [Eh]
	 Total Energy              =    -403.6503909788675628 [Eh]

	 ================> DF-SCS-MP2 Energies <==================
	-----------------------------------------------------------
	 SCS Same-Spin Scale       =       0.3333333333333333 [-]
	 SCS Opposite-Spin Scale   =       1.2000000000000000 [-]
	 SCS Same-Spin Energy      =      -0.1486954954169632 [Eh]
	 SCS Opposite-Spin Energy  =      -1.7185935538647816 [Eh]
	 SCS Correlation Energy    =      -1.8672890492817449 [Eh]
	 SCS Total Energy          =    -403.6394322470110865 [Eh]
	-----------------------------------------------------------

  Dipole Moment: [D]
     X:    -1.3288      Y:     1.4380      Z:    -0.0000     Total:     1.9579

*** Psi4 exiting successfully. Buy a developer a beer!
