                               Psi4 1.4a3.dev225

  ==> Input File <==

--------------------------------------------------------------------------
#psi4
#
memory 32 gb

molecule  {
0 1
  N        0.1871790    -0.9111820    -0.0000020
  C        2.0846610     0.5733200    -0.0000030
  C        2.9631220    -0.4040200    -0.7474220
  C        2.9631210    -0.4040120     0.7474270
  C        0.6145042     0.3919742    -0.0000032
  C       -0.2752490     1.4465330    -0.0000020
  C       -1.6439530     1.1986260     0.0000010
  C       -2.1086100    -0.1215530     0.0000030
  C       -1.1379910    -1.1285870     0.0000010
  C       -3.5774520    -0.4452540     0.0000000
  H        2.4036780     1.6130560    -0.0000090
  H        3.8277670    -0.0076600    -1.2704010
  H        2.4452750    -1.2187140    -1.2419740
  H        2.4452760    -1.2187020     1.2419880
  H        3.8277650    -0.0076460     1.2704030
  H        0.1039660     2.4659580    -0.0000030
  H       -2.3510000     2.0273860     0.0000010
  H       -1.4419230    -2.1762520     0.0000020
  H       -4.0731050    -0.0303320     0.8832920
  H       -3.7381210    -1.5268000     0.0000420
  H       -4.0730850    -0.0304030    -0.8833370
units angstrom
no_reorient  #important for SAPT in psi4, default
symmetry c1  #important for SAPT in psi4, default
}

set PROPERTIES_ORIGIN ["COM"]
properties('MP2/aug-cc-pvtz', properties = ['dipole'])
--------------------------------------------------------------------------

    Molecular point group: c1
  Charge       = 0
  Multiplicity = 1
  Basis Set: AUG-CC-PVTZ
    Blend: AUG-CC-PVTZ
  Basis Set: (AUG-CC-PVTZ AUX)
    Blend: AUG-CC-PVTZ-JKFIT

    Orbital Energies [Eh]
    ---------------------

    Doubly Occupied:

       1A    -15.557334     2A    -11.275061     3A    -11.268224
       4A    -11.252183     5A    -11.239699     6A    -11.231670
       7A    -11.231316     8A    -11.229483     9A    -11.221413
      10A    -11.220721    11A     -1.246432    12A     -1.140265
      13A     -1.090445    14A     -1.045815    15A     -0.950892
      16A     -0.867097    17A     -0.840270    18A     -0.814596
      19A     -0.781658    20A     -0.700046    21A     -0.667554
      22A     -0.636988    23A     -0.626201    24A     -0.602627
      25A     -0.583784    26A     -0.564540    27A     -0.549785
      28A     -0.533975    29A     -0.527548    30A     -0.503882
      31A     -0.496091    32A     -0.429432    33A     -0.426914
      34A     -0.408645    35A     -0.371766    36A     -0.313797

  @DF-RHF Final Energy:  -401.77212134914612

   => Energetics <=

    Nuclear Repulsion Energy =            488.8817495079863420
    One-Electron Energy =               -1512.4114421298829711
    Two-Electron Energy =                 621.7575712727505106
    Total Energy =                       -401.7721213491461185
  Basis Set: (AUG-CC-PVTZ AUX)
    Blend: AUG-CC-PVTZ-RI
    Molecular point group: c1

    Geometry (in Angstrom), charge = 0, multiplicity = 1:

       Center              X                  Y                   Z               Mass
    ------------   -----------------  -----------------  -----------------  -----------------
         N            0.182832035356    -0.914292748081    -0.000001982156    14.003074004430
         C            2.080314035356     0.570209251919    -0.000002982156    12.000000000000
         C            2.958775035356    -0.407130748081    -0.747421982156    12.000000000000
         C            2.958774035356    -0.407122748081     0.747427017844    12.000000000000
         C            0.610157235356     0.388863451919    -0.000003182156    12.000000000000
         C           -0.279595964644     1.443422251919    -0.000001982156    12.000000000000
         C           -1.648299964644     1.195515251919     0.000001017844    12.000000000000
         C           -2.112956964644    -0.124663748081     0.000003017844    12.000000000000
         C           -1.142337964644    -1.131697748081     0.000001017844    12.000000000000
         C           -3.581798964644    -0.448364748081     0.000000017844    12.000000000000
         H            2.399331035356     1.609945251919    -0.000008982156     1.007825032230
         H            3.823420035356    -0.010770748081    -1.270400982156     1.007825032230
         H            2.440928035356    -1.221824748081    -1.241973982156     1.007825032230
         H            2.440929035356    -1.221812748081     1.241988017844     1.007825032230
         H            3.823418035356    -0.010756748081     1.270403017844     1.007825032230
         H            0.099619035356     2.462847251919    -0.000002982156     1.007825032230
         H           -2.355346964644     2.024275251919     0.000001017844     1.007825032230
         H           -1.446269964644    -2.179362748081     0.000002017844     1.007825032230
         H           -4.077451964644    -0.033442748081     0.883292017844     1.007825032230
         H           -3.742467964644    -1.529910748081     0.000042017844     1.007825032230
         H           -4.077431964644    -0.033513748081    -0.883336982156     1.007825032230

  Basis Set: AUG-CC-PVTZ
    Blend: AUG-CC-PVTZ
  Basis Set: (AUG-CC-PVTZ AUX)
    Blend: AUG-CC-PVTZ-JKFIT
	 Reference Energy          =    -401.7721213491461185 [Eh]
	 Singles Energy            =      -0.0000000000000000 [Eh]
	 Same-Spin Energy          =      -0.4461046716943010 [Eh]
	 Opposite-Spin Energy      =      -1.4321429081688501 [Eh]
	 Correlation Energy        =      -1.8782475798631511 [Eh]
	 Total Energy              =    -403.6503689290092893 [Eh]

	 ================> DF-SCS-MP2 Energies <==================
	-----------------------------------------------------------
	 SCS Same-Spin Scale       =       0.3333333333333333 [-]
	 SCS Opposite-Spin Scale   =       1.2000000000000000 [-]
	 SCS Same-Spin Energy      =      -0.1487015572314336 [Eh]
	 SCS Opposite-Spin Energy  =      -1.7185714898026201 [Eh]
	 SCS Correlation Energy    =      -1.8672730470340537 [Eh]
	 SCS Total Energy          =    -403.6393943961801938 [Eh]
	-----------------------------------------------------------

  Dipole Moment: [D]
     X:    -1.3401      Y:     1.4461      Z:    -0.0000     Total:     1.9716

*** Psi4 exiting successfully. Buy a developer a beer!
