                               Psi4 1.4a3.dev225

  ==> Input File <==

--------------------------------------------------------------------------
#psi4
#
memory 32 gb

molecule  {
0 1
  N        0.1871790    -0.9111820    -0.0000020
  C        2.0846610     0.5733200    -0.0000030
  C        2.9631220    -0.4040200    -0.7474220
  C        2.9631210    -0.4040120     0.7474270
  C        0.6178930     0.3663440    -0.0000030
  C       -0.2752490     1.4465330    -0.0000020
  C       -1.8407509     1.1629809     0.0000014
  C       -2.1086100    -0.1215530     0.0000030
  C       -1.1379910    -1.1285870     0.0000010
  C       -3.5774520    -0.4452540     0.0000000
  H        2.4036780     1.6130560    -0.0000090
  H        3.8277670    -0.0076600    -1.2704010
  H        2.4452750    -1.2187140    -1.2419740
  H        2.4452760    -1.2187020     1.2419880
  H        3.8277650    -0.0076460     1.2704030
  H        0.1039660     2.4659580    -0.0000030
  H       -2.3510000     2.0273860     0.0000010
  H       -1.4419230    -2.1762520     0.0000020
  H       -4.0731050    -0.0303320     0.8832920
  H       -3.7381210    -1.5268000     0.0000420
  H       -4.0730850    -0.0304030    -0.8833370
units angstrom
no_reorient  #important for SAPT in psi4, default
symmetry c1  #important for SAPT in psi4, default
}

set PROPERTIES_ORIGIN ["COM"]
properties('MP2/aug-cc-pvtz', properties = ['dipole'])
--------------------------------------------------------------------------

    Molecular point group: c1
  Charge       = 0
  Multiplicity = 1
  Basis Set: AUG-CC-PVTZ
    Blend: AUG-CC-PVTZ
  Basis Set: (AUG-CC-PVTZ AUX)
    Blend: AUG-CC-PVTZ-JKFIT

    Orbital Energies [Eh]
    ---------------------

    Doubly Occupied:

       1A    -15.561997     2A    -11.277606     3A    -11.270852
       4A    -11.253644     5A    -11.245220     6A    -11.236494
       7A    -11.229145     8A    -11.226506     9A    -11.219136
      10A    -11.218445    11A     -1.251436    12A     -1.140572
      13A     -1.103407    14A     -1.022806    15A     -0.946477
      16A     -0.879483    17A     -0.837068    18A     -0.813023
      19A     -0.787447    20A     -0.709141    21A     -0.662942
      22A     -0.646016    23A     -0.625490    24A     -0.601155
      25A     -0.586835    26A     -0.579336    27A     -0.550083
      28A     -0.531958    29A     -0.521317    30A     -0.501773
      31A     -0.473560    32A     -0.430808    33A     -0.428984
      34A     -0.406354    35A     -0.365390    36A     -0.313166

  @DF-RHF Final Energy:  -401.72943136073945

   => Energetics <=

    Nuclear Repulsion Energy =            487.5870297959210689
    One-Electron Energy =               -1509.7227798068188349
    Two-Electron Energy =                 620.4063186501582550
    Total Energy =                       -401.7294313607394542
  Basis Set: (AUG-CC-PVTZ AUX)
    Blend: AUG-CC-PVTZ-RI
    Molecular point group: c1

    Geometry (in Angstrom), charge = 0, multiplicity = 1:

       Center              X                  Y                   Z               Mass
    ------------   -----------------  -----------------  -----------------  -----------------
         N            0.200270791342    -0.908767852900    -0.000002036255    14.003074004430
         C            2.097752791342     0.575734147100    -0.000003036255    12.000000000000
         C            2.976213791342    -0.401605852900    -0.747422036255    12.000000000000
         C            2.976212791342    -0.401597852900     0.747426963745    12.000000000000
         C            0.630984791342     0.368758147100    -0.000003036255    12.000000000000
         C           -0.262157208658     1.448947147100    -0.000002036255    12.000000000000
         C           -1.827659108658     1.165395047100     0.000001363745    12.000000000000
         C           -2.095518208658    -0.119138852900     0.000002963745    12.000000000000
         C           -1.124899208658    -1.126172852900     0.000000963745    12.000000000000
         C           -3.564360208658    -0.442839852900    -0.000000036255    12.000000000000
         H            2.416769791342     1.615470147100    -0.000009036255     1.007825032230
         H            3.840858791342    -0.005245852900    -1.270401036255     1.007825032230
         H            2.458366791342    -1.216299852900    -1.241974036255     1.007825032230
         H            2.458367791342    -1.216287852900     1.241987963745     1.007825032230
         H            3.840856791342    -0.005231852900     1.270402963745     1.007825032230
         H            0.117057791342     2.468372147100    -0.000003036255     1.007825032230
         H           -2.337908208658     2.029800147100     0.000000963745     1.007825032230
         H           -1.428831208658    -2.173837852900     0.000001963745     1.007825032230
         H           -4.060013208658    -0.027917852900     0.883291963745     1.007825032230
         H           -3.725029208658    -1.524385852900     0.000041963745     1.007825032230
         H           -4.059993208658    -0.027988852900    -0.883337036255     1.007825032230

  Basis Set: AUG-CC-PVTZ
    Blend: AUG-CC-PVTZ
  Basis Set: (AUG-CC-PVTZ AUX)
    Blend: AUG-CC-PVTZ-JKFIT
	 Reference Energy          =    -401.7294313607394542 [Eh]
	 Singles Energy            =      -0.0000000000000000 [Eh]
	 Same-Spin Energy          =      -0.4462824157276631 [Eh]
	 Opposite-Spin Energy      =      -1.4348030987103289 [Eh]
	 Correlation Energy        =      -1.8810855144379919 [Eh]
	 Total Energy              =    -403.6105168751774386 [Eh]

	 ================> DF-SCS-MP2 Energies <==================
	-----------------------------------------------------------
	 SCS Same-Spin Scale       =       0.3333333333333333 [-]
	 SCS Opposite-Spin Scale   =       1.2000000000000000 [-]
	 SCS Same-Spin Energy      =      -0.1487608052425544 [Eh]
	 SCS Opposite-Spin Energy  =      -1.7217637184523946 [Eh]
	 SCS Correlation Energy    =      -1.8705245236949490 [Eh]
	 SCS Total Energy          =    -403.5999558844343937 [Eh]
	-----------------------------------------------------------

  Dipole Moment: [D]
     X:    -1.3500      Y:     1.4455      Z:    -0.0000     Total:     1.9779

*** Psi4 exiting successfully. Buy a developer a beer!
