                               Psi4 1.4a3.dev225

  ==> Input File <==

--------------------------------------------------------------------------
#psi4
#
memory 32 gb

molecule  {
0 1
  N        0.1871790    -0.9111820    -0.0000020
  C        2.0846610     0.5733200    -0.0000030
  C        2.9631220    -0.4040200    -0.7474220
  C        2.9631210    -0.4040120     0.7474270
  C        0.6178930     0.3663440    -0.0000030
  C       -0.2752490     1.4465330    -0.0000020
  C       -1.6931525     1.1897147     0.0000011
  C       -2.1086100    -0.1215530     0.0000030
  C       -1.1379910    -1.1285870     0.0000010
  C       -3.5774520    -0.4452540     0.0000000
  H        2.4036780     1.6130560    -0.0000090
  H        3.8277670    -0.0076600    -1.2704010
  H        2.4452750    -1.2187140    -1.2419740
  H        2.4452760    -1.2187020     1.2419880
  H        3.8277650    -0.0076460     1.2704030
  H        0.1039660     2.4659580    -0.0000030
  H       -2.3510000     2.0273860     0.0000010
  H       -1.4419230    -2.1762520     0.0000020
  H       -4.0731050    -0.0303320     0.8832920
  H       -3.7381210    -1.5268000     0.0000420
  H       -4.0730850    -0.0304030    -0.8833370
units angstrom
no_reorient  #important for SAPT in psi4, default
symmetry c1  #important for SAPT in psi4, default
}

set PROPERTIES_ORIGIN ["COM"]
properties('MP2/aug-cc-pvtz', properties = ['dipole'])
--------------------------------------------------------------------------

    Molecular point group: c1
  Charge       = 0
  Multiplicity = 1
  Basis Set: AUG-CC-PVTZ
    Blend: AUG-CC-PVTZ
  Basis Set: (AUG-CC-PVTZ AUX)
    Blend: AUG-CC-PVTZ-JKFIT

    Orbital Energies [Eh]
    ---------------------

    Doubly Occupied:

       1A    -15.557179     2A    -11.274678     3A    -11.270367
       4A    -11.252376     5A    -11.238466     6A    -11.237655
       7A    -11.230747     8A    -11.228558     9A    -11.220868
      10A    -11.220176    11A     -1.251039    12A     -1.140604
      13A     -1.093405    14A     -1.036947    15A     -0.949995
      16A     -0.869571    17A     -0.840389    18A     -0.814373
      19A     -0.782430    20A     -0.702120    21A     -0.663979
      22A     -0.640193    23A     -0.626407    24A     -0.601198
      25A     -0.584335    26A     -0.569049    27A     -0.549557
      28A     -0.534326    29A     -0.528011    30A     -0.503407
      31A     -0.495482    32A     -0.429634    33A     -0.427456
      34A     -0.407190    35A     -0.368400    36A     -0.313807

  @DF-RHF Final Energy:  -401.77015484520774

   => Energetics <=

    Nuclear Repulsion Energy =            488.6178850506102549
    One-Electron Energy =               -1511.8673314422032945
    Two-Electron Energy =                 621.4792915463851841
    Total Energy =                       -401.7701548452077986
  Basis Set: (AUG-CC-PVTZ AUX)
    Blend: AUG-CC-PVTZ-RI
    Molecular point group: c1

    Geometry (in Angstrom), charge = 0, multiplicity = 1:

       Center              X                  Y                   Z               Mass
    ------------   -----------------  -----------------  -----------------  -----------------
         N            0.186962562921    -0.911178309361    -0.000002009205    14.003074004430
         C            2.084444562921     0.573323690639    -0.000003009205    12.000000000000
         C            2.962905562921    -0.404016309361    -0.747422009205    12.000000000000
         C            2.962904562921    -0.404008309361     0.747426990795    12.000000000000
         C            0.617676562921     0.366347690639    -0.000003009205    12.000000000000
         C           -0.275465437079     1.446536690639    -0.000002009205    12.000000000000
         C           -1.693368937079     1.189718390639     0.000001090795    12.000000000000
         C           -2.108826437079    -0.121549309361     0.000002990795    12.000000000000
         C           -1.138207437079    -1.128583309361     0.000000990795    12.000000000000
         C           -3.577668437079    -0.445250309361    -0.000000009205    12.000000000000
         H            2.403461562921     1.613059690639    -0.000009009205     1.007825032230
         H            3.827550562921    -0.007656309361    -1.270401009205     1.007825032230
         H            2.445058562921    -1.218710309361    -1.241974009205     1.007825032230
         H            2.445059562921    -1.218698309361     1.241987990795     1.007825032230
         H            3.827548562921    -0.007642309361     1.270402990795     1.007825032230
         H            0.103749562921     2.465961690639    -0.000003009205     1.007825032230
         H           -2.351216437079     2.027389690639     0.000000990795     1.007825032230
         H           -1.442139437079    -2.176248309361     0.000001990795     1.007825032230
         H           -4.073321437079    -0.030328309361     0.883291990795     1.007825032230
         H           -3.738337437079    -1.526796309361     0.000041990795     1.007825032230
         H           -4.073301437079    -0.030399309361    -0.883337009205     1.007825032230

  Basis Set: AUG-CC-PVTZ
    Blend: AUG-CC-PVTZ
  Basis Set: (AUG-CC-PVTZ AUX)
    Blend: AUG-CC-PVTZ-JKFIT
	 Reference Energy          =    -401.7701548452077418 [Eh]
	 Singles Energy            =      -0.0000000000000000 [Eh]
	 Same-Spin Energy          =      -0.4460252753243512 [Eh]
	 Opposite-Spin Energy      =      -1.4320699023245547 [Eh]
	 Correlation Energy        =      -1.8780951776489059 [Eh]
	 Total Energy              =    -403.6482500228566437 [Eh]

	 ================> DF-SCS-MP2 Energies <==================
	-----------------------------------------------------------
	 SCS Same-Spin Scale       =       0.3333333333333333 [-]
	 SCS Opposite-Spin Scale   =       1.2000000000000000 [-]
	 SCS Same-Spin Energy      =      -0.1486750917747837 [Eh]
	 SCS Opposite-Spin Energy  =      -1.7184838827894655 [Eh]
	 SCS Correlation Energy    =      -1.8671589745642492 [Eh]
	 SCS Total Energy          =    -403.6373138197719754 [Eh]
	-----------------------------------------------------------

  Dipole Moment: [D]
     X:    -1.3240      Y:     1.4578      Z:    -0.0000     Total:     1.9693

*** Psi4 exiting successfully. Buy a developer a beer!
