                               Psi4 1.4a3.dev225

  ==> Input File <==

--------------------------------------------------------------------------
#psi4
#
memory 32 gb

molecule  {
0 1
  N        0.1871790    -0.9111820    -0.0000020
  C        2.1721585     0.6260385     0.0264505
  C        2.9631220    -0.4040200    -0.7474220
  C        2.9631210    -0.4040120     0.7474270
  C        0.6178930     0.3663440    -0.0000030
  C       -0.2752490     1.4465330    -0.0000020
  C       -1.6439530     1.1986260     0.0000010
  C       -2.1086100    -0.1215530     0.0000030
  C       -1.1379910    -1.1285870     0.0000010
  C       -3.5774520    -0.4452540     0.0000000
  H        2.4036780     1.6130560    -0.0000090
  H        3.8277670    -0.0076600    -1.2704010
  H        2.4452750    -1.2187140    -1.2419740
  H        2.4452760    -1.2187020     1.2419880
  H        3.8277650    -0.0076460     1.2704030
  H        0.1039660     2.4659580    -0.0000030
  H       -2.3510000     2.0273860     0.0000010
  H       -1.4419230    -2.1762520     0.0000020
  H       -4.0731050    -0.0303320     0.8832920
  H       -3.7381210    -1.5268000     0.0000420
  H       -4.0730850    -0.0304030    -0.8833370
units angstrom
no_reorient  #important for SAPT in psi4, default
symmetry c1  #important for SAPT in psi4, default
}

set PROPERTIES_ORIGIN ["COM"]
properties('MP2/aug-cc-pvtz', properties = ['dipole'])
--------------------------------------------------------------------------

    Molecular point group: c1
  Charge       = 0
  Multiplicity = 1
  Basis Set: AUG-CC-PVTZ
    Blend: AUG-CC-PVTZ
  Basis Set: (AUG-CC-PVTZ AUX)
    Blend: AUG-CC-PVTZ-JKFIT

    Orbital Energies [Eh]
    ---------------------

    Doubly Occupied:

       1A    -15.556737     2A    -11.279582     3A    -11.267963
       4A    -11.251299     5A    -11.239397     6A    -11.233268
       7A    -11.230866     8A    -11.229223     9A    -11.219941
      10A    -11.219062    11A     -1.248612    12A     -1.142681
      13A     -1.091660    14A     -1.040166    15A     -0.945891
      16A     -0.865506    17A     -0.834804    18A     -0.815152
      19A     -0.789297    20A     -0.700303    21A     -0.664718
      22A     -0.641896    23A     -0.624886    24A     -0.609835
      25A     -0.583419    26A     -0.564980    27A     -0.548649
      28A     -0.531199    29A     -0.527560    30A     -0.505038
      31A     -0.493452    32A     -0.432832    33A     -0.423376
      34A     -0.402190    35A     -0.372146    36A     -0.315853

  @DF-RHF Final Energy:  -401.76328970817889

   => Energetics <=

    Nuclear Repulsion Energy =            487.6882379563223253
    One-Electron Energy =               -1510.0161777219959731
    Two-Electron Energy =                 620.5646500574947595
    Total Energy =                       -401.7632897081788315
  Basis Set: (AUG-CC-PVTZ AUX)
    Blend: AUG-CC-PVTZ-RI
    Molecular point group: c1

    Geometry (in Angstrom), charge = 0, multiplicity = 1:

       Center              X                  Y                   Z               Mass
    ------------   -----------------  -----------------  -----------------  -----------------
         N            0.174637260611    -0.916735168080    -0.002387183365    14.003074004430
         C            2.159616760611     0.620485331920     0.024065316635    12.000000000000
         C            2.950580260611    -0.409573168080    -0.749807183365    12.000000000000
         C            2.950579260611    -0.409565168080     0.745041816635    12.000000000000
         C            0.605351260611     0.360790831920    -0.002388183365    12.000000000000
         C           -0.287790739389     1.440979831920    -0.002387183365    12.000000000000
         C           -1.656494739389     1.193072831920    -0.002384183365    12.000000000000
         C           -2.121151739389    -0.127106168080    -0.002382183365    12.000000000000
         C           -1.150532739389    -1.134140168080    -0.002384183365    12.000000000000
         C           -3.589993739389    -0.450807168080    -0.002385183365    12.000000000000
         H            2.391136260611     1.607502831920    -0.002394183365     1.007825032230
         H            3.815225260611    -0.013213168080    -1.272786183365     1.007825032230
         H            2.432733260611    -1.224267168080    -1.244359183365     1.007825032230
         H            2.432734260611    -1.224255168080     1.239602816635     1.007825032230
         H            3.815223260611    -0.013199168080     1.268017816635     1.007825032230
         H            0.091424260611     2.460404831920    -0.002388183365     1.007825032230
         H           -2.363541739389     2.021832831920    -0.002384183365     1.007825032230
         H           -1.454464739389    -2.181805168080    -0.002383183365     1.007825032230
         H           -4.085646739389    -0.035885168080     0.880906816635     1.007825032230
         H           -3.750662739389    -1.532353168080    -0.002343183365     1.007825032230
         H           -4.085626739389    -0.035956168080    -0.885722183365     1.007825032230

  Basis Set: AUG-CC-PVTZ
    Blend: AUG-CC-PVTZ
  Basis Set: (AUG-CC-PVTZ AUX)
    Blend: AUG-CC-PVTZ-JKFIT
	 Reference Energy          =    -401.7632897081788883 [Eh]
	 Singles Energy            =      -0.0000000000000000 [Eh]
	 Same-Spin Energy          =      -0.4454531714758221 [Eh]
	 Opposite-Spin Energy      =      -1.4313060613615745 [Eh]
	 Correlation Energy        =      -1.8767592328373965 [Eh]
	 Total Energy              =    -403.6400489410162891 [Eh]

	 ================> DF-SCS-MP2 Energies <==================
	-----------------------------------------------------------
	 SCS Same-Spin Scale       =       0.3333333333333333 [-]
	 SCS Opposite-Spin Scale   =       1.2000000000000000 [-]
	 SCS Same-Spin Energy      =      -0.1484843904919407 [Eh]
	 SCS Opposite-Spin Energy  =      -1.7175672736338894 [Eh]
	 SCS Correlation Energy    =      -1.8660516641258300 [Eh]
	 SCS Total Energy          =    -403.6293413723047365 [Eh]
	-----------------------------------------------------------

  Dipole Moment: [D]
     X:    -1.3870      Y:     1.4882      Z:     0.0160     Total:     2.0344

*** Psi4 exiting successfully. Buy a developer a beer!
