                               Psi4 1.4a3.dev225

  ==> Input File <==

--------------------------------------------------------------------------
#psi4
#
memory 32 gb

molecule  {
0 1
  N        0.1871790    -0.9111820    -0.0000020
  C        2.0846610     0.5733200    -0.0000030
  C        2.9631220    -0.4040200    -0.7474220
  C        2.9631210    -0.4040120     0.7474270
  C        0.6178930     0.3663440    -0.0000030
  C       -0.4026941     1.6006684    -0.0000019
  C       -1.6439530     1.1986260     0.0000010
  C       -2.1086100    -0.1215530     0.0000030
  C       -1.1379910    -1.1285870     0.0000010
  C       -3.5774520    -0.4452540     0.0000000
  H        2.4036780     1.6130560    -0.0000090
  H        3.8277670    -0.0076600    -1.2704010
  H        2.4452750    -1.2187140    -1.2419740
  H        2.4452760    -1.2187020     1.2419880
  H        3.8277650    -0.0076460     1.2704030
  H        0.1039660     2.4659580    -0.0000030
  H       -2.3510000     2.0273860     0.0000010
  H       -1.4419230    -2.1762520     0.0000020
  H       -4.0731050    -0.0303320     0.8832920
  H       -3.7381210    -1.5268000     0.0000420
  H       -4.0730850    -0.0304030    -0.8833370
units angstrom
no_reorient  #important for SAPT in psi4, default
symmetry c1  #important for SAPT in psi4, default
}

set PROPERTIES_ORIGIN ["COM"]
properties('MP2/aug-cc-pvtz', properties = ['dipole'])
--------------------------------------------------------------------------

    Molecular point group: c1
  Charge       = 0
  Multiplicity = 1
  Basis Set: AUG-CC-PVTZ
    Blend: AUG-CC-PVTZ
  Basis Set: (AUG-CC-PVTZ AUX)
    Blend: AUG-CC-PVTZ-JKFIT

    Orbital Energies [Eh]
    ---------------------

    Doubly Occupied:

       1A    -15.553864     2A    -11.296966     3A    -11.263909
       4A    -11.240586     5A    -11.237981     6A    -11.236497
       7A    -11.234919     8A    -11.226622     9A    -11.226280
      10A    -11.225585    11A     -1.244361    12A     -1.144363
      13A     -1.098522    14A     -1.036300    15A     -0.947229
      16A     -0.864453    17A     -0.845403    18A     -0.818687
      19A     -0.773701    20A     -0.699351    21A     -0.681267
      22A     -0.646063    23A     -0.639460    24A     -0.586359
      25A     -0.580261    26A     -0.558453    27A     -0.540681
      28A     -0.530370    29A     -0.527308    30A     -0.509535
      31A     -0.505203    32A     -0.433235    33A     -0.431262
      34A     -0.390312    35A     -0.388876    36A     -0.298737

  @DF-RHF Final Energy:  -401.73352222027580

   => Energetics <=

    Nuclear Repulsion Energy =            486.5497323986180618
    One-Electron Energy =               -1507.6405925410977034
    Two-Electron Energy =                 619.3573379222037829
    Total Energy =                       -401.7335222202758587
  Basis Set: (AUG-CC-PVTZ AUX)
    Blend: AUG-CC-PVTZ-RI
    Molecular point group: c1

    Geometry (in Angstrom), charge = 0, multiplicity = 1:

       Center              X                  Y                   Z               Mass
    ------------   -----------------  -----------------  -----------------  -----------------
         N            0.194017587351    -0.925879435707    -0.000002009205    14.003074004430
         C            2.091499587351     0.558622564293    -0.000003009205    12.000000000000
         C            2.969960587351    -0.418717435707    -0.747422009205    12.000000000000
         C            2.969959587351    -0.418709435707     0.747426990795    12.000000000000
         C            0.624731587351     0.351646564293    -0.000003009205    12.000000000000
         C           -0.395855512649     1.585970964293    -0.000001909205    12.000000000000
         C           -1.637114412649     1.183928564293     0.000000990795    12.000000000000
         C           -2.101771412649    -0.136250435707     0.000002990795    12.000000000000
         C           -1.131152412649    -1.143284435707     0.000000990795    12.000000000000
         C           -3.570613412649    -0.459951435707    -0.000000009205    12.000000000000
         H            2.410516587351     1.598358564293    -0.000009009205     1.007825032230
         H            3.834605587351    -0.022357435707    -1.270401009205     1.007825032230
         H            2.452113587351    -1.233411435707    -1.241974009205     1.007825032230
         H            2.452114587351    -1.233399435707     1.241987990795     1.007825032230
         H            3.834603587351    -0.022343435707     1.270402990795     1.007825032230
         H            0.110804587351     2.451260564293    -0.000003009205     1.007825032230
         H           -2.344161412649     2.012688564293     0.000000990795     1.007825032230
         H           -1.435084412649    -2.190949435707     0.000001990795     1.007825032230
         H           -4.066266412649    -0.045029435707     0.883291990795     1.007825032230
         H           -3.731282412649    -1.541497435707     0.000041990795     1.007825032230
         H           -4.066246412649    -0.045100435707    -0.883337009205     1.007825032230

  Basis Set: AUG-CC-PVTZ
    Blend: AUG-CC-PVTZ
  Basis Set: (AUG-CC-PVTZ AUX)
    Blend: AUG-CC-PVTZ-JKFIT
	 Reference Energy          =    -401.7335222202758018 [Eh]
	 Singles Energy            =      -0.0000000000000000 [Eh]
	 Same-Spin Energy          =      -0.4452699559863992 [Eh]
	 Opposite-Spin Energy      =      -1.4330269014723829 [Eh]
	 Correlation Energy        =      -1.8782968574587822 [Eh]
	 Total Energy              =    -403.6118190777345944 [Eh]

	 ================> DF-SCS-MP2 Energies <==================
	-----------------------------------------------------------
	 SCS Same-Spin Scale       =       0.3333333333333333 [-]
	 SCS Opposite-Spin Scale   =       1.2000000000000000 [-]
	 SCS Same-Spin Energy      =      -0.1484233186621331 [Eh]
	 SCS Opposite-Spin Energy  =      -1.7196322817668594 [Eh]
	 SCS Correlation Energy    =      -1.8680556004289925 [Eh]
	 SCS Total Energy          =    -403.6015778207047902 [Eh]
	-----------------------------------------------------------

  Dipole Moment: [D]
     X:    -0.9806      Y:     1.4662      Z:    -0.0000     Total:     1.7639

*** Psi4 exiting successfully. Buy a developer a beer!
