                               Psi4 1.4a3.dev225

  ==> Input File <==

--------------------------------------------------------------------------
#psi4
#
memory 32 gb

molecule  {
0 1
  N        0.1871790    -0.9111820    -0.0000020
  C        2.0846610     0.5733200    -0.0000030
  C        2.9631220    -0.4040200    -0.7474220
  C        2.9631210    -0.4040120     0.7474270
  C        0.6178930     0.3663440    -0.0000030
  C       -0.2752490     1.4465330    -0.0000020
  C       -1.6439530     1.1986260     0.0000010
  C       -2.1019700    -0.1026874     0.0000030
  C       -1.1379910    -1.1285870     0.0000010
  C       -3.5774520    -0.4452540     0.0000000
  H        2.4036780     1.6130560    -0.0000090
  H        3.8277670    -0.0076600    -1.2704010
  H        2.4452750    -1.2187140    -1.2419740
  H        2.4452760    -1.2187020     1.2419880
  H        3.8277650    -0.0076460     1.2704030
  H        0.1039660     2.4659580    -0.0000030
  H       -2.3510000     2.0273860     0.0000010
  H       -1.4419230    -2.1762520     0.0000020
  H       -4.0731050    -0.0303320     0.8832920
  H       -3.7381210    -1.5268000     0.0000420
  H       -4.0730850    -0.0304030    -0.8833370
units angstrom
no_reorient  #important for SAPT in psi4, default
symmetry c1  #important for SAPT in psi4, default
}

set PROPERTIES_ORIGIN ["COM"]
properties('MP2/aug-cc-pvtz', properties = ['dipole'])
--------------------------------------------------------------------------

    Molecular point group: c1
  Charge       = 0
  Multiplicity = 1
  Basis Set: AUG-CC-PVTZ
    Blend: AUG-CC-PVTZ
  Basis Set: (AUG-CC-PVTZ AUX)
    Blend: AUG-CC-PVTZ-JKFIT

    Orbital Energies [Eh]
    ---------------------

    Doubly Occupied:

       1A    -15.556307     2A    -11.275456     3A    -11.269611
       4A    -11.249101     5A    -11.239039     6A    -11.233383
       7A    -11.231113     8A    -11.229674     9A    -11.221286
      10A    -11.220594    11A     -1.251632    12A     -1.140708
      13A     -1.093416    14A     -1.041017    15A     -0.950329
      16A     -0.866106    17A     -0.842305    18A     -0.814714
      19A     -0.780939    20A     -0.701067    21A     -0.667333
      22A     -0.639089    23A     -0.625790    24A     -0.600941
      25A     -0.583121    26A     -0.564469    27A     -0.547210
      28A     -0.535494    29A     -0.529684    30A     -0.504081
      31A     -0.499613    32A     -0.429640    33A     -0.427077
      34A     -0.405818    35A     -0.374081    36A     -0.312177

  @DF-RHF Final Energy:  -401.77342120485241

   => Energetics <=

    Nuclear Repulsion Energy =            489.1290973229667429
    One-Electron Energy =               -1512.8982065194577444
    Two-Electron Energy =                 621.9956879916385333
    Total Energy =                       -401.7734212048524114
  Basis Set: (AUG-CC-PVTZ AUX)
    Blend: AUG-CC-PVTZ-RI
    Molecular point group: c1

    Geometry (in Angstrom), charge = 0, multiplicity = 1:

       Center              X                  Y                   Z               Mass
    ------------   -----------------  -----------------  -----------------  -----------------
         N            0.181927787335    -0.913682817066    -0.000002000189    14.003074004430
         C            2.079409787335     0.570819182934    -0.000003000189    12.000000000000
         C            2.957870787335    -0.406520817066    -0.747422000189    12.000000000000
         C            2.957869787335    -0.406512817066     0.747426999811    12.000000000000
         C            0.612641787335     0.363843182934    -0.000003000189    12.000000000000
         C           -0.280500212665     1.444032182934    -0.000002000189    12.000000000000
         C           -1.649204212665     1.196125182934     0.000000999811    12.000000000000
         C           -2.107221212665    -0.105188217066     0.000002999811    12.000000000000
         C           -1.143242212665    -1.131087817066     0.000000999811    12.000000000000
         C           -3.582703212665    -0.447754817066    -0.000000000189    12.000000000000
         H            2.398426787335     1.610555182934    -0.000009000189     1.007825032230
         H            3.822515787335    -0.010160817066    -1.270401000189     1.007825032230
         H            2.440023787335    -1.221214817066    -1.241974000189     1.007825032230
         H            2.440024787335    -1.221202817066     1.241987999811     1.007825032230
         H            3.822513787335    -0.010146817066     1.270402999811     1.007825032230
         H            0.098714787335     2.463457182934    -0.000003000189     1.007825032230
         H           -2.356251212665     2.024885182934     0.000000999811     1.007825032230
         H           -1.447174212665    -2.178752817066     0.000001999811     1.007825032230
         H           -4.078356212665    -0.032832817066     0.883291999811     1.007825032230
         H           -3.743372212665    -1.529300817066     0.000041999811     1.007825032230
         H           -4.078336212665    -0.032903817066    -0.883337000189     1.007825032230

  Basis Set: AUG-CC-PVTZ
    Blend: AUG-CC-PVTZ
  Basis Set: (AUG-CC-PVTZ AUX)
    Blend: AUG-CC-PVTZ-JKFIT
	 Reference Energy          =    -401.7734212048524114 [Eh]
	 Singles Energy            =      -0.0000000000000000 [Eh]
	 Same-Spin Energy          =      -0.4459089570408760 [Eh]
	 Opposite-Spin Energy      =      -1.4315931127058086 [Eh]
	 Correlation Energy        =      -1.8775020697466847 [Eh]
	 Total Energy              =    -403.6509232745991085 [Eh]

	 ================> DF-SCS-MP2 Energies <==================
	-----------------------------------------------------------
	 SCS Same-Spin Scale       =       0.3333333333333333 [-]
	 SCS Opposite-Spin Scale   =       1.2000000000000000 [-]
	 SCS Same-Spin Energy      =      -0.1486363190136253 [Eh]
	 SCS Opposite-Spin Energy  =      -1.7179117352469702 [Eh]
	 SCS Correlation Energy    =      -1.8665480542605954 [Eh]
	 SCS Total Energy          =    -403.6399692591130020 [Eh]
	-----------------------------------------------------------

  Dipole Moment: [D]
     X:    -1.3113      Y:     1.4396      Z:    -0.0000     Total:     1.9473

*** Psi4 exiting successfully. Buy a developer a beer!
