                               Psi4 1.4a3.dev225

  ==> Input File <==

--------------------------------------------------------------------------
#psi4
#
memory 32 gb

molecule  {
0 1
  N        0.1871790    -0.9111820    -0.0000020
  C        2.0846610     0.5733200    -0.0000030
  C        2.9631220    -0.4040200    -0.7474220
  C        2.9631210    -0.4040120     0.7474270
  C        0.6178930     0.3663440    -0.0000030
  C       -0.2752490     1.4465330    -0.0000020
  C       -1.6670641     1.2065343     0.0000009
  C       -2.1086100    -0.1215530     0.0000030
  C       -1.1379910    -1.1285870     0.0000010
  C       -3.5774520    -0.4452540     0.0000000
  H        2.4036780     1.6130560    -0.0000090
  H        3.8277670    -0.0076600    -1.2704010
  H        2.4452750    -1.2187140    -1.2419740
  H        2.4452760    -1.2187020     1.2419880
  H        3.8277650    -0.0076460     1.2704030
  H        0.1039660     2.4659580    -0.0000030
  H       -2.3510000     2.0273860     0.0000010
  H       -1.4419230    -2.1762520     0.0000020
  H       -4.0731050    -0.0303320     0.8832920
  H       -3.7381210    -1.5268000     0.0000420
  H       -4.0730850    -0.0304030    -0.8833370
units angstrom
no_reorient  #important for SAPT in psi4, default
symmetry c1  #important for SAPT in psi4, default
}

set PROPERTIES_ORIGIN ["COM"]
properties('MP2/aug-cc-pvtz', properties = ['dipole'])
--------------------------------------------------------------------------

    Molecular point group: c1
  Charge       = 0
  Multiplicity = 1
  Basis Set: AUG-CC-PVTZ
    Blend: AUG-CC-PVTZ
  Basis Set: (AUG-CC-PVTZ AUX)
    Blend: AUG-CC-PVTZ-JKFIT

    Orbital Energies [Eh]
    ---------------------

    Doubly Occupied:

       1A    -15.556337     2A    -11.275707     3A    -11.268459
       4A    -11.252488     5A    -11.240098     6A    -11.235883
       7A    -11.231216     8A    -11.228813     9A    -11.221308
      10A    -11.220615    11A     -1.250735    12A     -1.140611
      13A     -1.090988    14A     -1.040169    15A     -0.950413
      16A     -0.868650    17A     -0.839215    18A     -0.814723
      19A     -0.782605    20A     -0.701612    21A     -0.665210
      22A     -0.639588    23A     -0.626140    24A     -0.601355
      25A     -0.583579    26A     -0.569239    27A     -0.549380
      28A     -0.534770    29A     -0.527330    30A     -0.503756
      31A     -0.496874    32A     -0.429267    33A     -0.427283
      34A     -0.407115    35A     -0.370043    36A     -0.312829

  @DF-RHF Final Energy:  -401.77252124758598

   => Energetics <=

    Nuclear Repulsion Energy =            488.6410912541389280
    One-Electron Energy =               -1511.9184231181668565
    Two-Electron Energy =                 621.5048106164420005
    Total Energy =                       -401.7725212475859280
  Basis Set: (AUG-CC-PVTZ AUX)
    Blend: AUG-CC-PVTZ-RI
    Molecular point group: c1

    Geometry (in Angstrom), charge = 0, multiplicity = 1:

       Center              X                  Y                   Z               Mass
    ------------   -----------------  -----------------  -----------------  -----------------
         N            0.184610299033    -0.912694850724    -0.000001991172    14.003074004430
         C            2.082092299033     0.571807149276    -0.000002991172    12.000000000000
         C            2.960553299033    -0.405532850724    -0.747421991172    12.000000000000
         C            2.960552299033    -0.405524850724     0.747427008828    12.000000000000
         C            0.615324299033     0.364831149276    -0.000002991172    12.000000000000
         C           -0.277817700967     1.445020149276    -0.000001991172    12.000000000000
         C           -1.669632800967     1.205021449276     0.000000908828    12.000000000000
         C           -2.111178700967    -0.123065850724     0.000003008828    12.000000000000
         C           -1.140559700967    -1.130099850724     0.000001008828    12.000000000000
         C           -3.580020700967    -0.446766850724     0.000000008828    12.000000000000
         H            2.401109299033     1.611543149276    -0.000008991172     1.007825032230
         H            3.825198299033    -0.009172850724    -1.270400991172     1.007825032230
         H            2.442706299033    -1.220226850724    -1.241973991172     1.007825032230
         H            2.442707299033    -1.220214850724     1.241988008828     1.007825032230
         H            3.825196299033    -0.009158850724     1.270403008828     1.007825032230
         H            0.101397299033     2.464445149276    -0.000002991172     1.007825032230
         H           -2.353568700967     2.025873149276     0.000001008828     1.007825032230
         H           -1.444491700967    -2.177764850724     0.000002008828     1.007825032230
         H           -4.075673700967    -0.031844850724     0.883292008828     1.007825032230
         H           -3.740689700967    -1.528312850724     0.000042008828     1.007825032230
         H           -4.075653700967    -0.031915850724    -0.883336991172     1.007825032230

  Basis Set: AUG-CC-PVTZ
    Blend: AUG-CC-PVTZ
  Basis Set: (AUG-CC-PVTZ AUX)
    Blend: AUG-CC-PVTZ-JKFIT
	 Reference Energy          =    -401.7725212475859848 [Eh]
	 Singles Energy            =      -0.0000000000000000 [Eh]
	 Same-Spin Energy          =      -0.4460098308937970 [Eh]
	 Opposite-Spin Energy      =      -1.4319147429737067 [Eh]
	 Correlation Energy        =      -1.8779245738675037 [Eh]
	 Total Energy              =    -403.6504458214535020 [Eh]

	 ================> DF-SCS-MP2 Energies <==================
	-----------------------------------------------------------
	 SCS Same-Spin Scale       =       0.3333333333333333 [-]
	 SCS Opposite-Spin Scale   =       1.2000000000000000 [-]
	 SCS Same-Spin Energy      =      -0.1486699436312656 [Eh]
	 SCS Opposite-Spin Energy  =      -1.7182976915684480 [Eh]
	 SCS Correlation Energy    =      -1.8669676351997138 [Eh]
	 SCS Total Energy          =    -403.6394888827857130 [Eh]
	-----------------------------------------------------------

  Dipole Moment: [D]
     X:    -1.3215      Y:     1.4627      Z:    -0.0000     Total:     1.9712

*** Psi4 exiting successfully. Buy a developer a beer!
