                               Psi4 1.4a3.dev225

  ==> Input File <==

--------------------------------------------------------------------------
#psi4
#
memory 32 gb

molecule  {
0 1
  N        0.1871790    -0.9111820    -0.0000020
  C        2.0846610     0.5733200    -0.0000030
  C        2.9631220    -0.4040200    -0.7474220
  C        2.9631210    -0.4040120     0.7474270
  C        0.6475630     0.2141588    -0.0000021
  C       -0.2752490     1.4465330    -0.0000020
  C       -1.6439530     1.1986260     0.0000010
  C       -2.1086100    -0.1215530     0.0000030
  C       -1.1379910    -1.1285870     0.0000010
  C       -3.5774520    -0.4452540     0.0000000
  H        2.4036780     1.6130560    -0.0000090
  H        3.8277670    -0.0076600    -1.2704010
  H        2.4452750    -1.2187140    -1.2419740
  H        2.4452760    -1.2187020     1.2419880
  H        3.8277650    -0.0076460     1.2704030
  H        0.1039660     2.4659580    -0.0000030
  H       -2.3510000     2.0273860     0.0000010
  H       -1.4419230    -2.1762520     0.0000020
  H       -4.0731050    -0.0303320     0.8832920
  H       -3.7381210    -1.5268000     0.0000420
  H       -4.0730850    -0.0304030    -0.8833370
units angstrom
no_reorient  #important for SAPT in psi4, default
symmetry c1  #important for SAPT in psi4, default
}

set PROPERTIES_ORIGIN ["COM"]
properties('MP2/aug-cc-pvtz', properties = ['dipole'])
--------------------------------------------------------------------------

    Molecular point group: c1
  Charge       = 0
  Multiplicity = 1
  Basis Set: AUG-CC-PVTZ
    Blend: AUG-CC-PVTZ
  Basis Set: (AUG-CC-PVTZ AUX)
    Blend: AUG-CC-PVTZ-JKFIT

    Orbital Energies [Eh]
    ---------------------

    Doubly Occupied:

       1A    -15.544201     2A    -11.278332     3A    -11.264561
       4A    -11.246926     5A    -11.242385     6A    -11.239424
       7A    -11.232503     8A    -11.228471     9A    -11.222786
      10A    -11.222091    11A     -1.286648    12A     -1.144987
      13A     -1.098565    14A     -1.023874    15A     -0.954180
      16A     -0.868865    17A     -0.839641    18A     -0.817298
      19A     -0.776588    20A     -0.707280    21A     -0.666575
      22A     -0.649388    23A     -0.624726    24A     -0.589587
      25A     -0.584687    26A     -0.566334    27A     -0.548441
      28A     -0.546879    29A     -0.532714    30A     -0.510219
      31A     -0.506514    32A     -0.430334    33A     -0.428542
      34A     -0.383962    35A     -0.381326    36A     -0.305815

  @DF-RHF Final Energy:  -401.74927661090635

   => Energetics <=

    Nuclear Repulsion Energy =            489.9546464203239680
    One-Electron Energy =               -1514.4165484414120328
    Two-Electron Energy =                 622.7126254101816585
    Total Energy =                       -401.7492766109063496
  Basis Set: (AUG-CC-PVTZ AUX)
    Blend: AUG-CC-PVTZ-RI
    Molecular point group: c1

    Geometry (in Angstrom), charge = 0, multiplicity = 1:

       Center              X                  Y                   Z               Mass
    ------------   -----------------  -----------------  -----------------  -----------------
         N            0.179851284469    -0.898260000030    -0.000002081338    14.003074004430
         C            2.077333284469     0.586241999970    -0.000003081338    12.000000000000
         C            2.955794284469    -0.391098000030    -0.747422081338    12.000000000000
         C            2.955793284469    -0.391090000030     0.747426918662    12.000000000000
         C            0.640235284469     0.227080799970    -0.000002181338    12.000000000000
         C           -0.282576715531     1.459454999970    -0.000002081338    12.000000000000
         C           -1.651280715531     1.211547999970     0.000000918662    12.000000000000
         C           -2.115937715531    -0.108631000030     0.000002918662    12.000000000000
         C           -1.145318715531    -1.115665000030     0.000000918662    12.000000000000
         C           -3.584779715531    -0.432332000030    -0.000000081338    12.000000000000
         H            2.396350284469     1.625977999970    -0.000009081338     1.007825032230
         H            3.820439284469     0.005261999970    -1.270401081338     1.007825032230
         H            2.437947284469    -1.205792000030    -1.241974081338     1.007825032230
         H            2.437948284469    -1.205780000030     1.241987918662     1.007825032230
         H            3.820437284469     0.005275999970     1.270402918662     1.007825032230
         H            0.096638284469     2.478879999970    -0.000003081338     1.007825032230
         H           -2.358327715531     2.040307999970     0.000000918662     1.007825032230
         H           -1.449250715531    -2.163330000030     0.000001918662     1.007825032230
         H           -4.080432715531    -0.017410000030     0.883291918662     1.007825032230
         H           -3.745448715531    -1.513878000030     0.000041918662     1.007825032230
         H           -4.080412715531    -0.017481000030    -0.883337081338     1.007825032230

  Basis Set: AUG-CC-PVTZ
    Blend: AUG-CC-PVTZ
  Basis Set: (AUG-CC-PVTZ AUX)
    Blend: AUG-CC-PVTZ-JKFIT
	 Reference Energy          =    -401.7492766109063496 [Eh]
	 Singles Energy            =      -0.0000000000000000 [Eh]
	 Same-Spin Energy          =      -0.4442486862602228 [Eh]
	 Opposite-Spin Energy      =      -1.4302868515258891 [Eh]
	 Correlation Energy        =      -1.8745355377861119 [Eh]
	 Total Energy              =    -403.6238121486924797 [Eh]

	 ================> DF-SCS-MP2 Energies <==================
	-----------------------------------------------------------
	 SCS Same-Spin Scale       =       0.3333333333333333 [-]
	 SCS Opposite-Spin Scale   =       1.2000000000000000 [-]
	 SCS Same-Spin Energy      =      -0.1480828954200743 [Eh]
	 SCS Opposite-Spin Energy  =      -1.7163442218310669 [Eh]
	 SCS Correlation Energy    =      -1.8644271172511413 [Eh]
	 SCS Total Energy          =    -403.6137037281574749 [Eh]
	-----------------------------------------------------------

  Dipole Moment: [D]
     X:    -1.0717      Y:     1.4083      Z:    -0.0000     Total:     1.7697

*** Psi4 exiting successfully. Buy a developer a beer!
