                               Psi4 1.4a3.dev225

  ==> Input File <==

--------------------------------------------------------------------------
#psi4
#
memory 32 gb

molecule  {
0 1
  N        0.1871790    -0.9111820    -0.0000020
  C        2.0846610     0.5733200    -0.0000030
  C        2.9631220    -0.4040200    -0.7474220
  C        2.9631210    -0.4040120     0.7474270
  C        0.6178930     0.3663440    -0.0000030
  C       -0.2752490     1.4465330    -0.0000020
  C       -1.6439530     1.1986260     0.0000010
  C       -2.1086100    -0.1215530     0.0000030
  C       -1.1379910    -1.1285870     0.0000010
  C       -3.5774520    -0.4452540     0.0000000
  H        2.4036780     1.6130560    -0.0000090
  H        3.8277670    -0.0076600    -1.2704010
  H        2.4452750    -1.2187140    -1.2419740
  H        2.4452760    -1.2187020     1.2419880
  H        3.8277650    -0.0076460     1.2704030
  H        0.1039660     2.4659580    -0.0000030
  H       -2.3510000     2.0273860     0.0000010
  H       -1.4419230    -2.1762520     0.0000020
  H       -4.0640482    -0.0379136     0.8671522
  H       -3.7381210    -1.5268000     0.0000420
  H       -4.0730850    -0.0304030    -0.8833370
units angstrom
no_reorient  #important for SAPT in psi4, default
symmetry c1  #important for SAPT in psi4, default
}

set PROPERTIES_ORIGIN ["COM"]
properties('MP2/aug-cc-pvtz', properties = ['dipole'])
--------------------------------------------------------------------------

    Molecular point group: c1
  Charge       = 0
  Multiplicity = 1
  Basis Set: AUG-CC-PVTZ
    Blend: AUG-CC-PVTZ
  Basis Set: (AUG-CC-PVTZ AUX)
    Blend: AUG-CC-PVTZ-JKFIT

    Orbital Energies [Eh]
    ---------------------

    Doubly Occupied:

       1A    -15.555636     2A    -11.276046     3A    -11.267624
       4A    -11.251614     5A    -11.239255     6A    -11.233742
       7A    -11.231328     8A    -11.226832     9A    -11.221509
      10A    -11.220816    11A     -1.251109    12A     -1.140804
      13A     -1.091723    14A     -1.042571    15A     -0.952237
      16A     -0.867542    17A     -0.840311    18A     -0.814874
      19A     -0.781320    20A     -0.701088    21A     -0.666719
      22A     -0.639281    23A     -0.626120    24A     -0.600871
      25A     -0.585992    26A     -0.564583    27A     -0.550389
      28A     -0.535822    29A     -0.527983    30A     -0.504156
      31A     -0.498775    32A     -0.429490    33A     -0.427204
      34A     -0.406305    35A     -0.372421    36A     -0.312708

  @DF-RHF Final Energy:  -401.77372851889453

   => Energetics <=

    Nuclear Repulsion Energy =            489.1056332063622563
    One-Electron Energy =               -1512.8451206331394587
    Two-Electron Energy =                 621.9657589078827868
    Total Energy =                       -401.7737285188944725
  Basis Set: (AUG-CC-PVTZ AUX)
    Blend: AUG-CC-PVTZ-RI
    Molecular point group: c1

    Geometry (in Angstrom), charge = 0, multiplicity = 1:

       Center              X                  Y                   Z               Mass
    ------------   -----------------  -----------------  -----------------  -----------------
         N            0.182457900651    -0.911924385763     0.000120219350    14.003074004430
         C            2.079939900651     0.572577614237     0.000119219350    12.000000000000
         C            2.958400900651    -0.404762385763    -0.747299780650    12.000000000000
         C            2.958399900651    -0.404754385763     0.747549219350    12.000000000000
         C            0.613171900651     0.365601614237     0.000119219350    12.000000000000
         C           -0.279970099349     1.445790614237     0.000120219350    12.000000000000
         C           -1.648674099349     1.197883614237     0.000123219350    12.000000000000
         C           -2.113331099349    -0.122295385763     0.000125219350    12.000000000000
         C           -1.142712099349    -1.129329385763     0.000123219350    12.000000000000
         C           -3.582173099349    -0.445996385763     0.000122219350    12.000000000000
         H            2.398956900651     1.612313614237     0.000113219350     1.007825032230
         H            3.823045900651    -0.008402385763    -1.270278780650     1.007825032230
         H            2.440553900651    -1.219456385763    -1.241851780650     1.007825032230
         H            2.440554900651    -1.219444385763     1.242110219350     1.007825032230
         H            3.823043900651    -0.008388385763     1.270525219350     1.007825032230
         H            0.099244900651     2.465215614237     0.000119219350     1.007825032230
         H           -2.355721099349     2.026643614237     0.000123219350     1.007825032230
         H           -1.446644099349    -2.176994385763     0.000124219350     1.007825032230
         H           -4.068769299349    -0.038655985763     0.867274419350     1.007825032230
         H           -3.742842099349    -1.527542385763     0.000164219350     1.007825032230
         H           -4.077806099349    -0.031145385763    -0.883214780650     1.007825032230

  Basis Set: AUG-CC-PVTZ
    Blend: AUG-CC-PVTZ
  Basis Set: (AUG-CC-PVTZ AUX)
    Blend: AUG-CC-PVTZ-JKFIT
	 Reference Energy          =    -401.7737285188945293 [Eh]
	 Singles Energy            =      -0.0000000000000000 [Eh]
	 Same-Spin Energy          =      -0.4459582740026263 [Eh]
	 Opposite-Spin Energy      =      -1.4315516943406035 [Eh]
	 Correlation Energy        =      -1.8775099683432297 [Eh]
	 Total Energy              =    -403.6512384872377766 [Eh]

	 ================> DF-SCS-MP2 Energies <==================
	-----------------------------------------------------------
	 SCS Same-Spin Scale       =       0.3333333333333333 [-]
	 SCS Opposite-Spin Scale   =       1.2000000000000000 [-]
	 SCS Same-Spin Energy      =      -0.1486527580008754 [Eh]
	 SCS Opposite-Spin Energy  =      -1.7178620332087242 [Eh]
	 SCS Correlation Energy    =      -1.8665147912095996 [Eh]
	 SCS Total Energy          =    -403.6402433101041538 [Eh]
	-----------------------------------------------------------

  Dipole Moment: [D]
     X:    -1.3227      Y:     1.4569      Z:     0.0054     Total:     1.9677

*** Psi4 exiting successfully. Buy a developer a beer!
