                               Psi4 1.4a3.dev225

  ==> Input File <==

--------------------------------------------------------------------------
#psi4
#
memory 32 gb

molecule  {
0 1
  N        0.1871790    -0.9111820    -0.0000020
  C        2.0846610     0.5733200    -0.0000030
  C        2.9631220    -0.4040200    -0.7474220
  C        2.9631210    -0.4040120     0.7474270
  C        0.6178930     0.3663440    -0.0000030
  C       -0.2752490     1.4465330    -0.0000020
  C       -1.6439530     1.1986260     0.0000010
  C       -2.1086100    -0.1215530     0.0000030
  C       -1.1379910    -1.1285870     0.0000010
  C       -3.5774520    -0.4452540     0.0000000
  H        2.4036780     1.6130560    -0.0000090
  H        3.8277670    -0.0076600    -1.2704010
  H        2.4452750    -1.2187140    -1.2419740
  H        2.4452760    -1.2187020     1.2419880
  H        3.8277650    -0.0076460     1.2704030
  H        0.1039660     2.4659580    -0.0000030
  H       -2.3510000     2.0273860     0.0000010
  H       -1.4419230    -2.1762520     0.0000020
  H       -4.0964415    -0.0107985     0.8601949
  H       -3.7381210    -1.5268000     0.0000420
  H       -4.0730850    -0.0304030    -0.8833370
units angstrom
no_reorient  #important for SAPT in psi4, default
symmetry c1  #important for SAPT in psi4, default
}

set PROPERTIES_ORIGIN ["COM"]
properties('MP2/aug-cc-pvtz', properties = ['dipole'])
--------------------------------------------------------------------------

    Molecular point group: c1
  Charge       = 0
  Multiplicity = 1
  Basis Set: AUG-CC-PVTZ
    Blend: AUG-CC-PVTZ
  Basis Set: (AUG-CC-PVTZ AUX)
    Blend: AUG-CC-PVTZ-JKFIT

    Orbital Energies [Eh]
    ---------------------

    Doubly Occupied:

       1A    -15.555787     2A    -11.276228     3A    -11.267903
       4A    -11.251779     5A    -11.239649     6A    -11.233851
       7A    -11.231429     8A    -11.229245     9A    -11.221600
      10A    -11.220907    11A     -1.251271    12A     -1.140895
      13A     -1.091582    14A     -1.042454    15A     -0.951075
      16A     -0.867557    17A     -0.840198    18A     -0.814959
      19A     -0.781441    20A     -0.701233    21A     -0.666853
      22A     -0.639503    23A     -0.626296    24A     -0.600999
      25A     -0.580760    26A     -0.564741    27A     -0.552253
      28A     -0.534734    29A     -0.528185    30A     -0.504073
      31A     -0.498978    32A     -0.429403    33A     -0.427338
      34A     -0.406506    35A     -0.372471    36A     -0.312683

  @DF-RHF Final Energy:  -401.77358339286752

   => Energetics <=

    Nuclear Repulsion Energy =            488.9892147897870700
    One-Electron Energy =               -1512.6119603978413579
    Two-Electron Energy =                 621.8491622151867659
    Total Energy =                       -401.7735833928675220
  Basis Set: (AUG-CC-PVTZ AUX)
    Blend: AUG-CC-PVTZ-RI
    Molecular point group: c1

    Geometry (in Angstrom), charge = 0, multiplicity = 1:

       Center              X                  Y                   Z               Mass
    ------------   -----------------  -----------------  -----------------  -----------------
         N            0.182703200728    -0.912129716376     0.000172903893    14.003074004430
         C            2.080185200728     0.572372283624     0.000171903893    12.000000000000
         C            2.958646200728    -0.404967716376    -0.747247096107    12.000000000000
         C            2.958645200728    -0.404959716376     0.747601903893    12.000000000000
         C            0.613417200728     0.365396283624     0.000171903893    12.000000000000
         C           -0.279724799272     1.445585283624     0.000172903893    12.000000000000
         C           -1.648428799272     1.197678283624     0.000175903893    12.000000000000
         C           -2.113085799272    -0.122500716376     0.000177903893    12.000000000000
         C           -1.142466799272    -1.129534716376     0.000175903893    12.000000000000
         C           -3.581927799272    -0.446201716376     0.000174903893    12.000000000000
         H            2.399202200728     1.612108283624     0.000165903893     1.007825032230
         H            3.823291200728    -0.008607716376    -1.270226096107     1.007825032230
         H            2.440799200728    -1.219661716376    -1.241799096107     1.007825032230
         H            2.440800200728    -1.219649716376     1.242162903893     1.007825032230
         H            3.823289200728    -0.008593716376     1.270577903893     1.007825032230
         H            0.099490200728     2.465010283624     0.000171903893     1.007825032230
         H           -2.355475799272     2.026438283624     0.000175903893     1.007825032230
         H           -1.446398799272    -2.177199716376     0.000176903893     1.007825032230
         H           -4.100917299272    -0.011746216376     0.860369803893     1.007825032230
         H           -3.742596799272    -1.527747716376     0.000216903893     1.007825032230
         H           -4.077560799272    -0.031350716376    -0.883162096107     1.007825032230

  Basis Set: AUG-CC-PVTZ
    Blend: AUG-CC-PVTZ
  Basis Set: (AUG-CC-PVTZ AUX)
    Blend: AUG-CC-PVTZ-JKFIT
	 Reference Energy          =    -401.7735833928675220 [Eh]
	 Singles Energy            =      -0.0000000000000000 [Eh]
	 Same-Spin Energy          =      -0.4459499319363128 [Eh]
	 Opposite-Spin Energy      =      -1.4316414515425486 [Eh]
	 Correlation Energy        =      -1.8775913834788613 [Eh]
	 Total Energy              =    -403.6511747763464086 [Eh]

	 ================> DF-SCS-MP2 Energies <==================
	-----------------------------------------------------------
	 SCS Same-Spin Scale       =       0.3333333333333333 [-]
	 SCS Opposite-Spin Scale   =       1.2000000000000000 [-]
	 SCS Same-Spin Energy      =      -0.1486499773121043 [Eh]
	 SCS Opposite-Spin Energy  =      -1.7179697418510582 [Eh]
	 SCS Correlation Energy    =      -1.8666197191631624 [Eh]
	 SCS Total Energy          =    -403.6402031120306901 [Eh]
	-----------------------------------------------------------

  Dipole Moment: [D]
     X:    -1.3160      Y:     1.4658      Z:    -0.0064     Total:     1.9699

*** Psi4 exiting successfully. Buy a developer a beer!
