                               Psi4 1.4a3.dev225

  ==> Input File <==

--------------------------------------------------------------------------
#psi4
#
memory 32 gb

molecule  {
0 1
  N        0.1871790    -0.9111820    -0.0000020
  C        2.0846610     0.5733200    -0.0000030
  C        2.9631220    -0.4040200    -0.7474220
  C        2.9631210    -0.4040120     0.7474270
  C        0.6178930     0.3663440    -0.0000030
  C       -0.2752490     1.4465330    -0.0000020
  C       -1.6439530     1.1986260     0.0000010
  C       -2.1086100    -0.1215530     0.0000030
  C       -1.1379910    -1.1285870     0.0000010
  C       -3.5774520    -0.4452540     0.0000000
  H        2.4036780     1.6130560    -0.0000090
  H        3.8277670    -0.0076600    -1.2704010
  H        2.4452750    -1.2187140    -1.2419740
  H        2.4452760    -1.2187020     1.2419880
  H        3.8277650    -0.0076460     1.2704030
  H        0.1039660     2.4659580    -0.0000030
  H       -2.3510000     2.0273860     0.0000010
  H       -1.4697847    -2.2722922     0.0000021
  H       -4.0731050    -0.0303320     0.8832920
  H       -3.7381210    -1.5268000     0.0000420
  H       -4.0730850    -0.0304030    -0.8833370
units angstrom
no_reorient  #important for SAPT in psi4, default
symmetry c1  #important for SAPT in psi4, default
}

set PROPERTIES_ORIGIN ["COM"]
properties('MP2/aug-cc-pvtz', properties = ['dipole'])
--------------------------------------------------------------------------

    Molecular point group: c1
  Charge       = 0
  Multiplicity = 1
  Basis Set: AUG-CC-PVTZ
    Blend: AUG-CC-PVTZ
  Basis Set: (AUG-CC-PVTZ AUX)
    Blend: AUG-CC-PVTZ-JKFIT

    Orbital Energies [Eh]
    ---------------------

    Doubly Occupied:

       1A    -15.557012     2A    -11.279136     3A    -11.277219
       4A    -11.252621     5A    -11.240699     6A    -11.234324
       7A    -11.231877     8A    -11.229038     9A    -11.221918
      10A    -11.221225    11A     -1.251859    12A     -1.141115
      13A     -1.092360    14A     -1.041324    15A     -0.950671
      16A     -0.864300    17A     -0.838505    18A     -0.815267
      19A     -0.780564    20A     -0.696567    21A     -0.666960
      22A     -0.639589    23A     -0.621938    24A     -0.596201
      25A     -0.583804    26A     -0.560464    27A     -0.548124
      28A     -0.536047    29A     -0.528400    30A     -0.504538
      31A     -0.496193    32A     -0.429970    33A     -0.427169
      34A     -0.406045    35A     -0.373247    36A     -0.313336

  @DF-RHF Final Energy:  -401.76627215929011

   => Energetics <=

    Nuclear Repulsion Energy =            488.5163094748423305
    One-Electron Energy =               -1511.6659159755738528
    Two-Electron Energy =                 621.3833343414414685
    Total Energy =                       -401.7662721592901107
  Basis Set: (AUG-CC-PVTZ AUX)
    Blend: AUG-CC-PVTZ-RI
    Molecular point group: c1

    Geometry (in Angstrom), charge = 0, multiplicity = 1:

       Center              X                  Y                   Z               Mass
    ------------   -----------------  -----------------  -----------------  -----------------
         N            0.182737468058    -0.911254528064    -0.000002000946    14.003074004430
         C            2.080219468058     0.573247471936    -0.000003000946    12.000000000000
         C            2.958680468058    -0.404092528064    -0.747422000946    12.000000000000
         C            2.958679468058    -0.404084528064     0.747426999054    12.000000000000
         C            0.613451468058     0.366271471936    -0.000003000946    12.000000000000
         C           -0.279690531942     1.446460471936    -0.000002000946    12.000000000000
         C           -1.648394531942     1.198553471936     0.000000999054    12.000000000000
         C           -2.113051531942    -0.121625528064     0.000002999054    12.000000000000
         C           -1.142432531942    -1.128659528064     0.000000999054    12.000000000000
         C           -3.581893531942    -0.445326528064    -0.000000000946    12.000000000000
         H            2.399236468058     1.612983471936    -0.000009000946     1.007825032230
         H            3.823325468058    -0.007732528064    -1.270401000946     1.007825032230
         H            2.440833468058    -1.218786528064    -1.241974000946     1.007825032230
         H            2.440834468058    -1.218774528064     1.241987999054     1.007825032230
         H            3.823323468058    -0.007718528064     1.270402999054     1.007825032230
         H            0.099524468058     2.465885471936    -0.000003000946     1.007825032230
         H           -2.355441531942     2.027313471936     0.000000999054     1.007825032230
         H           -1.474226231942    -2.272364728064     0.000002099054     1.007825032230
         H           -4.077546531942    -0.030404528064     0.883291999054     1.007825032230
         H           -3.742562531942    -1.526872528064     0.000041999054     1.007825032230
         H           -4.077526531942    -0.030475528064    -0.883337000946     1.007825032230

  Basis Set: AUG-CC-PVTZ
    Blend: AUG-CC-PVTZ
  Basis Set: (AUG-CC-PVTZ AUX)
    Blend: AUG-CC-PVTZ-JKFIT
	 Reference Energy          =    -401.7662721592901107 [Eh]
	 Singles Energy            =      -0.0000000000000000 [Eh]
	 Same-Spin Energy          =      -0.4462877736242773 [Eh]
	 Opposite-Spin Energy      =      -1.4327119716725736 [Eh]
	 Correlation Energy        =      -1.8789997452968508 [Eh]
	 Total Energy              =    -403.6452719045869344 [Eh]

	 ================> DF-SCS-MP2 Energies <==================
	-----------------------------------------------------------
	 SCS Same-Spin Scale       =       0.3333333333333333 [-]
	 SCS Opposite-Spin Scale   =       1.2000000000000000 [-]
	 SCS Same-Spin Energy      =      -0.1487625912080924 [Eh]
	 SCS Opposite-Spin Energy  =      -1.7192543660070883 [Eh]
	 SCS Correlation Energy    =      -1.8680169572151806 [Eh]
	 SCS Total Energy          =    -403.6342891165052720 [Eh]
	-----------------------------------------------------------

  Dipole Moment: [D]
     X:    -1.2672      Y:     1.5091      Z:    -0.0000     Total:     1.9705

*** Psi4 exiting successfully. Buy a developer a beer!
