                               Psi4 1.4a3.dev225

  ==> Input File <==

--------------------------------------------------------------------------
#psi4
#
memory 32 gb

molecule  {
0 1
  N        0.1871790    -0.9111820    -0.0000020
  C        2.0846610     0.5733200    -0.0000030
  C        2.9631220    -0.4040200    -0.7474220
  C        2.9631210    -0.4040120     0.7474270
  C        0.6178930     0.3663440    -0.0000030
  C       -0.2752490     1.4465330    -0.0000020
  C       -1.6439530     1.1986260     0.0000010
  C       -2.1086100    -0.1215530     0.0000030
  C       -1.1379910    -1.1285870     0.0000010
  C       -3.5579207    -0.4409497     0.0000000
  H        2.4036780     1.6130560    -0.0000090
  H        3.8277670    -0.0076600    -1.2704010
  H        2.4452750    -1.2187140    -1.2419740
  H        2.4452760    -1.2187020     1.2419880
  H        3.8277650    -0.0076460     1.2704030
  H        0.1039660     2.4659580    -0.0000030
  H       -2.3510000     2.0273860     0.0000010
  H       -1.4419230    -2.1762520     0.0000020
  H       -4.0731050    -0.0303320     0.8832920
  H       -3.7381210    -1.5268000     0.0000420
  H       -4.0730850    -0.0304030    -0.8833370
units angstrom
no_reorient  #important for SAPT in psi4, default
symmetry c1  #important for SAPT in psi4, default
}

set PROPERTIES_ORIGIN ["COM"]
properties('MP2/aug-cc-pvtz', properties = ['dipole'])
--------------------------------------------------------------------------

    Molecular point group: c1
  Charge       = 0
  Multiplicity = 1
  Basis Set: AUG-CC-PVTZ
    Blend: AUG-CC-PVTZ
  Basis Set: (AUG-CC-PVTZ AUX)
    Blend: AUG-CC-PVTZ-JKFIT

    Orbital Energies [Eh]
    ---------------------

    Doubly Occupied:

       1A    -15.555789     2A    -11.276268     3A    -11.267815
       4A    -11.251757     5A    -11.238510     6A    -11.233921
       7A    -11.231461     8A    -11.229876     9A    -11.221629
      10A    -11.220937    11A     -1.251376    12A     -1.141084
      13A     -1.093275    14A     -1.043417    15A     -0.950847
      16A     -0.867405    17A     -0.839752    18A     -0.814988
      19A     -0.781459    20A     -0.701262    21A     -0.667405
      22A     -0.639794    23A     -0.627528    24A     -0.601467
      25A     -0.582094    26A     -0.565449    27A     -0.547984
      28A     -0.534508    29A     -0.527813    30A     -0.504013
      31A     -0.500111    32A     -0.429235    33A     -0.427308
      34A     -0.406565    35A     -0.372445    36A     -0.312406

  @DF-RHF Final Energy:  -401.77302640681870

   => Energetics <=

    Nuclear Repulsion Energy =            489.3598209560656755
    One-Electron Energy =               -1513.3477899408601388
    Two-Electron Energy =                 622.2149425779757621
    Total Energy =                       -401.7730264068186443
  Basis Set: (AUG-CC-PVTZ AUX)
    Blend: AUG-CC-PVTZ-RI
    Molecular point group: c1

    Geometry (in Angstrom), charge = 0, multiplicity = 1:

       Center              X                  Y                   Z               Mass
    ------------   -----------------  -----------------  -----------------  -----------------
         N            0.180765441638    -0.912369895608    -0.000002000189    14.003074004430
         C            2.078247441638     0.572132104392    -0.000003000189    12.000000000000
         C            2.956708441638    -0.405207895608    -0.747422000189    12.000000000000
         C            2.956707441638    -0.405199895608     0.747426999811    12.000000000000
         C            0.611479441638     0.365156104392    -0.000003000189    12.000000000000
         C           -0.281662558362     1.445345104392    -0.000002000189    12.000000000000
         C           -1.650366558362     1.197438104392     0.000000999811    12.000000000000
         C           -2.115023558362    -0.122740895608     0.000002999811    12.000000000000
         C           -1.144404558362    -1.129774895608     0.000000999811    12.000000000000
         C           -3.564334258362    -0.442137595608    -0.000000000189    12.000000000000
         H            2.397264441638     1.611868104392    -0.000009000189     1.007825032230
         H            3.821353441638    -0.008847895608    -1.270401000189     1.007825032230
         H            2.438861441638    -1.219901895608    -1.241974000189     1.007825032230
         H            2.438862441638    -1.219889895608     1.241987999811     1.007825032230
         H            3.821351441638    -0.008833895608     1.270402999811     1.007825032230
         H            0.097552441638     2.464770104392    -0.000003000189     1.007825032230
         H           -2.357413558362     2.026198104392     0.000000999811     1.007825032230
         H           -1.448336558362    -2.177439895608     0.000001999811     1.007825032230
         H           -4.079518558362    -0.031519895608     0.883291999811     1.007825032230
         H           -3.744534558362    -1.527987895608     0.000041999811     1.007825032230
         H           -4.079498558362    -0.031590895608    -0.883337000189     1.007825032230

  Basis Set: AUG-CC-PVTZ
    Blend: AUG-CC-PVTZ
  Basis Set: (AUG-CC-PVTZ AUX)
    Blend: AUG-CC-PVTZ-JKFIT
	 Reference Energy          =    -401.7730264068187012 [Eh]
	 Singles Energy            =      -0.0000000000000000 [Eh]
	 Same-Spin Energy          =      -0.4461360116109343 [Eh]
	 Opposite-Spin Energy      =      -1.4318341793215119 [Eh]
	 Correlation Energy        =      -1.8779701909324462 [Eh]
	 Total Energy              =    -403.6509965977511456 [Eh]

	 ================> DF-SCS-MP2 Energies <==================
	-----------------------------------------------------------
	 SCS Same-Spin Scale       =       0.3333333333333333 [-]
	 SCS Opposite-Spin Scale   =       1.2000000000000000 [-]
	 SCS Same-Spin Energy      =      -0.1487120038703114 [Eh]
	 SCS Opposite-Spin Energy  =      -1.7182010151858143 [Eh]
	 SCS Correlation Energy    =      -1.8669130190561256 [Eh]
	 SCS Total Energy          =    -403.6399394258748430 [Eh]
	-----------------------------------------------------------

  Dipole Moment: [D]
     X:    -1.3119      Y:     1.4563      Z:    -0.0000     Total:     1.9600

*** Psi4 exiting successfully. Buy a developer a beer!
