                               Psi4 1.4a3.dev225

  ==> Input File <==

--------------------------------------------------------------------------
#psi4
#
memory 32 gb

molecule  {
0 1
  N        0.1871790    -0.9111820    -0.0000020
  C        2.0846610     0.5733200    -0.0000030
  C        2.9631220    -0.4040200    -0.7474220
  C        2.9631210    -0.4040120     0.7474270
  C        0.6178930     0.3663440    -0.0000030
  C       -0.1478039     1.2923976    -0.0000021
  C       -1.6439530     1.1986260     0.0000010
  C       -2.1086100    -0.1215530     0.0000030
  C       -1.1379910    -1.1285870     0.0000010
  C       -3.5774520    -0.4452540     0.0000000
  H        2.4036780     1.6130560    -0.0000090
  H        3.8277670    -0.0076600    -1.2704010
  H        2.4452750    -1.2187140    -1.2419740
  H        2.4452760    -1.2187020     1.2419880
  H        3.8277650    -0.0076460     1.2704030
  H        0.1039660     2.4659580    -0.0000030
  H       -2.3510000     2.0273860     0.0000010
  H       -1.4419230    -2.1762520     0.0000020
  H       -4.0731050    -0.0303320     0.8832920
  H       -3.7381210    -1.5268000     0.0000420
  H       -4.0730850    -0.0304030    -0.8833370
units angstrom
no_reorient  #important for SAPT in psi4, default
symmetry c1  #important for SAPT in psi4, default
}

set PROPERTIES_ORIGIN ["COM"]
properties('MP2/aug-cc-pvtz', properties = ['dipole'])
--------------------------------------------------------------------------

    Molecular point group: c1
  Charge       = 0
  Multiplicity = 1
  Basis Set: AUG-CC-PVTZ
    Blend: AUG-CC-PVTZ
  Basis Set: (AUG-CC-PVTZ AUX)
    Blend: AUG-CC-PVTZ-JKFIT

    Orbital Energies [Eh]
    ---------------------

    Doubly Occupied:

       1A    -15.556934     2A    -11.274331     3A    -11.263686
       4A    -11.244887     5A    -11.241064     6A    -11.232211
       7A    -11.225747     8A    -11.225193     9A    -11.216159
      10A    -11.215471    11A     -1.262991    12A     -1.137452
      13A     -1.086978    14A     -1.063703    15A     -0.953063
      16A     -0.878823    17A     -0.832953    18A     -0.810591
      19A     -0.784097    20A     -0.700121    21A     -0.673921
      22A     -0.635848    23A     -0.617204    24A     -0.598238
      25A     -0.588190    26A     -0.569217    27A     -0.550342
      28A     -0.547408    29A     -0.525783    30A     -0.501884
      31A     -0.470017    32A     -0.428243    33A     -0.418719
      34A     -0.410329    35A     -0.360685    36A     -0.336287

  @DF-RHF Final Energy:  -401.71176907361104

   => Energetics <=

    Nuclear Repulsion Energy =            492.0739172851031071
    One-Electron Energy =               -1518.6938326569493256
    Two-Electron Energy =                 624.9081462982352377
    Total Energy =                       -401.7117690736109807
  Basis Set: (AUG-CC-PVTZ AUX)
    Blend: AUG-CC-PVTZ-RI
    Molecular point group: c1

    Geometry (in Angstrom), charge = 0, multiplicity = 1:

       Center              X                  Y                   Z               Mass
    ------------   -----------------  -----------------  -----------------  -----------------
         N            0.171035380200    -0.898084160000    -0.000001991172    14.003074004430
         C            2.068517380200     0.586417840000    -0.000002991172    12.000000000000
         C            2.946978380200    -0.390922160000    -0.747421991172    12.000000000000
         C            2.946977380200    -0.390914160000     0.747427008828    12.000000000000
         C            0.601749380200     0.379441840000    -0.000002991172    12.000000000000
         C           -0.163947519800     1.305495440000    -0.000002091172    12.000000000000
         C           -1.660096619800     1.211723840000     0.000001008828    12.000000000000
         C           -2.124753619800    -0.108455160000     0.000003008828    12.000000000000
         C           -1.154134619800    -1.115489160000     0.000001008828    12.000000000000
         C           -3.593595619800    -0.432156160000     0.000000008828    12.000000000000
         H            2.387534380200     1.626153840000    -0.000008991172     1.007825032230
         H            3.811623380200     0.005437840000    -1.270400991172     1.007825032230
         H            2.429131380200    -1.205616160000    -1.241973991172     1.007825032230
         H            2.429132380200    -1.205604160000     1.241988008828     1.007825032230
         H            3.811621380200     0.005451840000     1.270403008828     1.007825032230
         H            0.087822380200     2.479055840000    -0.000002991172     1.007825032230
         H           -2.367143619800     2.040483840000     0.000001008828     1.007825032230
         H           -1.458066619800    -2.163154160000     0.000002008828     1.007825032230
         H           -4.089248619800    -0.017234160000     0.883292008828     1.007825032230
         H           -3.754264619800    -1.513702160000     0.000042008828     1.007825032230
         H           -4.089228619800    -0.017305160000    -0.883336991172     1.007825032230

  Basis Set: AUG-CC-PVTZ
    Blend: AUG-CC-PVTZ
  Basis Set: (AUG-CC-PVTZ AUX)
    Blend: AUG-CC-PVTZ-JKFIT
	 Reference Energy          =    -401.7117690736110376 [Eh]
	 Singles Energy            =      -0.0000000000000000 [Eh]
	 Same-Spin Energy          =      -0.4459392726848094 [Eh]
	 Opposite-Spin Energy      =      -1.4338912513589279 [Eh]
	 Correlation Energy        =      -1.8798305240437374 [Eh]
	 Total Energy              =    -403.5915995976547492 [Eh]

	 ================> DF-SCS-MP2 Energies <==================
	-----------------------------------------------------------
	 SCS Same-Spin Scale       =       0.3333333333333333 [-]
	 SCS Opposite-Spin Scale   =       1.2000000000000000 [-]
	 SCS Same-Spin Energy      =      -0.1486464242282698 [Eh]
	 SCS Opposite-Spin Energy  =      -1.7206695016307134 [Eh]
	 SCS Correlation Energy    =      -1.8693159258589831 [Eh]
	 SCS Total Energy          =    -403.5810849994700220 [Eh]
	-----------------------------------------------------------

  Dipole Moment: [D]
     X:    -1.7230      Y:     1.3286      Z:    -0.0000     Total:     2.1757

*** Psi4 exiting successfully. Buy a developer a beer!
