                               Psi4 1.4a3.dev225

  ==> Input File <==

--------------------------------------------------------------------------
#psi4
#
memory 32 gb

molecule  {
0 1
  N        0.1871790    -0.9111820    -0.0000020
  C        2.0846610     0.5733200    -0.0000030
  C        2.9631220    -0.4040200    -0.7474220
  C        2.9631210    -0.4040120     0.7474270
  C        0.5188740     0.3523714    -0.0000030
  C       -0.2752490     1.4465330    -0.0000020
  C       -1.6439530     1.1986260     0.0000010
  C       -2.1086100    -0.1215530     0.0000030
  C       -1.1379910    -1.1285870     0.0000010
  C       -3.5774520    -0.4452540     0.0000000
  H        2.4036780     1.6130560    -0.0000090
  H        3.8277670    -0.0076600    -1.2704010
  H        2.4452750    -1.2187140    -1.2419740
  H        2.4452760    -1.2187020     1.2419880
  H        3.8277650    -0.0076460     1.2704030
  H        0.1039660     2.4659580    -0.0000030
  H       -2.3510000     2.0273860     0.0000010
  H       -1.4419230    -2.1762520     0.0000020
  H       -4.0731050    -0.0303320     0.8832920
  H       -3.7381210    -1.5268000     0.0000420
  H       -4.0730850    -0.0304030    -0.8833370
units angstrom
no_reorient  #important for SAPT in psi4, default
symmetry c1  #important for SAPT in psi4, default
}

set PROPERTIES_ORIGIN ["COM"]
properties('MP2/aug-cc-pvtz', properties = ['dipole'])
--------------------------------------------------------------------------

    Molecular point group: c1
  Charge       = 0
  Multiplicity = 1
  Basis Set: AUG-CC-PVTZ
    Blend: AUG-CC-PVTZ
  Basis Set: (AUG-CC-PVTZ AUX)
    Blend: AUG-CC-PVTZ-JKFIT

    Orbital Energies [Eh]
    ---------------------

    Doubly Occupied:

       1A    -15.557206     2A    -11.270846     3A    -11.270760
       4A    -11.254738     5A    -11.241702     6A    -11.231162
       7A    -11.230745     8A    -11.229387     9A    -11.215669
      10A    -11.214973    11A     -1.268687    12A     -1.130809
      13A     -1.099254    14A     -1.049797    15A     -0.948353
      16A     -0.869381    17A     -0.835365    18A     -0.809114
      19A     -0.780845    20A     -0.699903    21A     -0.668662
      22A     -0.641974    23A     -0.628939    24A     -0.595871
      25A     -0.587046    26A     -0.567231    27A     -0.552214
      28A     -0.541438    29A     -0.527688    30A     -0.501052
      31A     -0.482139    32A     -0.429150    33A     -0.420152
      34A     -0.405584    35A     -0.377704    36A     -0.322984

  @DF-RHF Final Energy:  -401.76490596160596

   => Energetics <=

    Nuclear Repulsion Energy =            489.6634951586808597
    One-Electron Energy =               -1513.9397494151980936
    Two-Electron Energy =                 622.5113482949111585
    Total Energy =                       -401.7649059616060185
  Basis Set: (AUG-CC-PVTZ AUX)
    Blend: AUG-CC-PVTZ-RI
    Molecular point group: c1

    Geometry (in Angstrom), charge = 0, multiplicity = 1:

       Center              X                  Y                   Z               Mass
    ------------   -----------------  -----------------  -----------------  -----------------
         N            0.191454544445    -0.910721956606    -0.000002000189    14.003074004430
         C            2.088936544445     0.573780043394    -0.000003000189    12.000000000000
         C            2.967397544445    -0.403559956606    -0.747422000189    12.000000000000
         C            2.967396544445    -0.403551956606     0.747426999811    12.000000000000
         C            0.523149544445     0.352831443394    -0.000003000189    12.000000000000
         C           -0.270973455555     1.446993043394    -0.000002000189    12.000000000000
         C           -1.639677455555     1.199086043394     0.000000999811    12.000000000000
         C           -2.104334455555    -0.121092956606     0.000002999811    12.000000000000
         C           -1.133715455555    -1.128126956606     0.000000999811    12.000000000000
         C           -3.573176455555    -0.444793956606    -0.000000000189    12.000000000000
         H            2.407953544445     1.613516043394    -0.000009000189     1.007825032230
         H            3.832042544445    -0.007199956606    -1.270401000189     1.007825032230
         H            2.449550544445    -1.218253956606    -1.241974000189     1.007825032230
         H            2.449551544445    -1.218241956606     1.241987999811     1.007825032230
         H            3.832040544445    -0.007185956606     1.270402999811     1.007825032230
         H            0.108241544445     2.466418043394    -0.000003000189     1.007825032230
         H           -2.346724455555     2.027846043394     0.000000999811     1.007825032230
         H           -1.437647455555    -2.175791956606     0.000001999811     1.007825032230
         H           -4.068829455555    -0.029871956606     0.883291999811     1.007825032230
         H           -3.733845455555    -1.526339956606     0.000041999811     1.007825032230
         H           -4.068809455555    -0.029942956606    -0.883337000189     1.007825032230

  Basis Set: AUG-CC-PVTZ
    Blend: AUG-CC-PVTZ
  Basis Set: (AUG-CC-PVTZ AUX)
    Blend: AUG-CC-PVTZ-JKFIT
	 Reference Energy          =    -401.7649059616059617 [Eh]
	 Singles Energy            =      -0.0000000000000000 [Eh]
	 Same-Spin Energy          =      -0.4450765494393902 [Eh]
	 Opposite-Spin Energy      =      -1.4305361031564585 [Eh]
	 Correlation Energy        =      -1.8756126525958488 [Eh]
	 Total Energy              =    -403.6405186142018238 [Eh]

	 ================> DF-SCS-MP2 Energies <==================
	-----------------------------------------------------------
	 SCS Same-Spin Scale       =       0.3333333333333333 [-]
	 SCS Opposite-Spin Scale   =       1.2000000000000000 [-]
	 SCS Same-Spin Energy      =      -0.1483588498131301 [Eh]
	 SCS Opposite-Spin Energy  =      -1.7166433237877501 [Eh]
	 SCS Correlation Energy    =      -1.8650021736008802 [Eh]
	 SCS Total Energy          =    -403.6299081352068470 [Eh]
	-----------------------------------------------------------

  Dipole Moment: [D]
     X:    -1.7777      Y:     1.4680      Z:    -0.0000     Total:     2.3054

*** Psi4 exiting successfully. Buy a developer a beer!
