                               Psi4 1.4a3.dev225

  ==> Input File <==

--------------------------------------------------------------------------
#psi4
#
memory 32 gb

molecule  {
0 1
  N        0.1871790    -0.9111820    -0.0000020
  C        2.0846610     0.5733200    -0.0000030
  C        2.9631220    -0.4040200    -0.7474220
  C        2.9631210    -0.4040120     0.7474270
  C        0.6178930     0.3663440    -0.0000030
  C       -0.2752490     1.4465330    -0.0000020
  C       -1.6439530     1.1986260     0.0000010
  C       -2.1086100    -0.1215530     0.0000030
  C       -1.1379910    -1.1285870     0.0000010
  C       -3.5774520    -0.4452540     0.0000000
  H        2.4036780     1.6130560    -0.0000090
  H        3.8277670    -0.0076600    -1.2704010
  H        2.4452750    -1.2187140    -1.2419740
  H        2.4452760    -1.2187020     1.2419880
  H        3.8277650    -0.0076460     1.2704030
  H        0.1039660     2.4659580    -0.0000030
  H       -2.3510000     2.0273860     0.0000010
  H       -1.4419230    -2.1762520     0.0000020
  H       -4.1191456     0.0082057     0.8360498
  H       -3.7381210    -1.5268000     0.0000420
  H       -4.0730850    -0.0304030    -0.8833370
units angstrom
no_reorient  #important for SAPT in psi4, default
symmetry c1  #important for SAPT in psi4, default
}

set PROPERTIES_ORIGIN ["COM"]
properties('MP2/aug-cc-pvtz', properties = ['dipole'])
--------------------------------------------------------------------------

    Molecular point group: c1
  Charge       = 0
  Multiplicity = 1
  Basis Set: AUG-CC-PVTZ
    Blend: AUG-CC-PVTZ
  Basis Set: (AUG-CC-PVTZ AUX)
    Blend: AUG-CC-PVTZ-JKFIT

    Orbital Energies [Eh]
    ---------------------

    Doubly Occupied:

       1A    -15.555871     2A    -11.276308     3A    -11.268053
       4A    -11.251871     5A    -11.239918     6A    -11.233903
       7A    -11.231471     8A    -11.229246     9A    -11.221636
      10A    -11.220943    11A     -1.251352    12A     -1.140936
      13A     -1.091585    14A     -1.042471    15A     -0.951162
      16A     -0.867768    17A     -0.840339    18A     -0.814992
      19A     -0.781580    20A     -0.701403    21A     -0.666908
      22A     -0.639886    23A     -0.626439    24A     -0.601084
      25A     -0.577895    26A     -0.564818    27A     -0.555071
      28A     -0.533907    29A     -0.528273    30A     -0.503989
      31A     -0.499070    32A     -0.429329    33A     -0.427419
      34A     -0.406644    35A     -0.372487    36A     -0.312636

  @DF-RHF Final Energy:  -401.77317549513816

   => Energetics <=

    Nuclear Repulsion Energy =            488.9620917109191964
    One-Electron Energy =               -1512.5532076824217711
    Two-Electron Energy =                 621.8179404763644698
    Total Energy =                       -401.7731754951381618
  Basis Set: (AUG-CC-PVTZ AUX)
    Blend: AUG-CC-PVTZ-RI
    Molecular point group: c1

    Geometry (in Angstrom), charge = 0, multiplicity = 1:

       Center              X                  Y                   Z               Mass
    ------------   -----------------  -----------------  -----------------  -----------------
         N            0.182875128796    -0.912273626744     0.000355744015    14.003074004430
         C            2.080357128796     0.572228373256     0.000354744015    12.000000000000
         C            2.958818128796    -0.405111626744    -0.747064255985    12.000000000000
         C            2.958817128796    -0.405103626744     0.747784744015    12.000000000000
         C            0.613589128796     0.365252373256     0.000354744015    12.000000000000
         C           -0.279552871204     1.445441373256     0.000355744015    12.000000000000
         C           -1.648256871204     1.197534373256     0.000358744015    12.000000000000
         C           -2.112913871204    -0.122644626744     0.000360744015    12.000000000000
         C           -1.142294871204    -1.129678626744     0.000358744015    12.000000000000
         C           -3.581755871204    -0.446345626744     0.000357744015    12.000000000000
         H            2.399374128796     1.611964373256     0.000348744015     1.007825032230
         H            3.823463128796    -0.008751626744    -1.270043255985     1.007825032230
         H            2.440971128796    -1.219805626744    -1.241616255985     1.007825032230
         H            2.440972128796    -1.219793626744     1.242345744015     1.007825032230
         H            3.823461128796    -0.008737626744     1.270760744015     1.007825032230
         H            0.099662128796     2.464866373256     0.000354744015     1.007825032230
         H           -2.355303871204     2.026294373256     0.000358744015     1.007825032230
         H           -1.446226871204    -2.177343626744     0.000359744015     1.007825032230
         H           -4.123449471204     0.007114073256     0.836407544015     1.007825032230
         H           -3.742424871204    -1.527891626744     0.000399744015     1.007825032230
         H           -4.077388871204    -0.031494626744    -0.882979255985     1.007825032230

  Basis Set: AUG-CC-PVTZ
    Blend: AUG-CC-PVTZ
  Basis Set: (AUG-CC-PVTZ AUX)
    Blend: AUG-CC-PVTZ-JKFIT
	 Reference Energy          =    -401.7731754951381618 [Eh]
	 Singles Energy            =      -0.0000000000000000 [Eh]
	 Same-Spin Energy          =      -0.4459635596259544 [Eh]
	 Opposite-Spin Energy      =      -1.4316431175924058 [Eh]
	 Correlation Energy        =      -1.8776066772183602 [Eh]
	 Total Energy              =    -403.6507821723565144 [Eh]

	 ================> DF-SCS-MP2 Energies <==================
	-----------------------------------------------------------
	 SCS Same-Spin Scale       =       0.3333333333333333 [-]
	 SCS Opposite-Spin Scale   =       1.2000000000000000 [-]
	 SCS Same-Spin Energy      =      -0.1486545198753181 [Eh]
	 SCS Opposite-Spin Energy  =      -1.7179717411108870 [Eh]
	 SCS Correlation Energy    =      -1.8666262609862052 [Eh]
	 SCS Total Energy          =    -403.6398017561243705 [Eh]
	-----------------------------------------------------------

  Dipole Moment: [D]
     X:    -1.3199      Y:     1.4761      Z:    -0.0137     Total:     1.9802

*** Psi4 exiting successfully. Buy a developer a beer!
