                               Psi4 1.4a3.dev225

  ==> Input File <==

--------------------------------------------------------------------------
#psi4
#
memory 32 gb

molecule  {
0 1
  N        0.1871790    -0.9111820    -0.0000020
  C        2.0846610     0.5733200    -0.0000030
  C        2.9631220    -0.4040200    -0.7474220
  C        2.9631210    -0.4040120     0.7474270
  C        0.6178930     0.3663440    -0.0000030
  C       -0.2752490     1.4465330    -0.0000020
  C       -1.6439530     1.1986260     0.0000010
  C       -2.1086100    -0.1215530     0.0000030
  C       -1.1379910    -1.1285870     0.0000010
  C       -3.4797953    -0.4237326     0.0000002
  H        2.4036780     1.6130560    -0.0000090
  H        3.8277670    -0.0076600    -1.2704010
  H        2.4452750    -1.2187140    -1.2419740
  H        2.4452760    -1.2187020     1.2419880
  H        3.8277650    -0.0076460     1.2704030
  H        0.1039660     2.4659580    -0.0000030
  H       -2.3510000     2.0273860     0.0000010
  H       -1.4419230    -2.1762520     0.0000020
  H       -4.0731050    -0.0303320     0.8832920
  H       -3.7381210    -1.5268000     0.0000420
  H       -4.0730850    -0.0304030    -0.8833370
units angstrom
no_reorient  #important for SAPT in psi4, default
symmetry c1  #important for SAPT in psi4, default
}

set PROPERTIES_ORIGIN ["COM"]
properties('MP2/aug-cc-pvtz', properties = ['dipole'])
--------------------------------------------------------------------------

    Molecular point group: c1
  Charge       = 0
  Multiplicity = 1
  Basis Set: AUG-CC-PVTZ
    Blend: AUG-CC-PVTZ
  Basis Set: (AUG-CC-PVTZ AUX)
    Blend: AUG-CC-PVTZ-JKFIT

    Orbital Energies [Eh]
    ---------------------

    Doubly Occupied:

       1A    -15.556190     2A    -11.276904     3A    -11.268235
       4A    -11.252180     5A    -11.234518     6A    -11.234462
       7A    -11.233118     8A    -11.231846     9A    -11.221974
      10A    -11.221281    11A     -1.252300    12A     -1.142401
      13A     -1.101689    14A     -1.047390    15A     -0.950733
      16A     -0.867867    17A     -0.837928    18A     -0.815310
      19A     -0.782115    20A     -0.702190    21A     -0.670635
      22A     -0.644667    23A     -0.632620    24A     -0.603661
      25A     -0.577633    26A     -0.569729    27A     -0.549229
      28A     -0.530293    29A     -0.517484    30A     -0.503260
      31A     -0.502556    32A     -0.428039    33A     -0.427445
      34A     -0.407167    35A     -0.372394    36A     -0.310719

  @DF-RHF Final Energy:  -401.76125523947127

   => Energetics <=

    Nuclear Repulsion Energy =            490.7837074235321779
    One-Electron Energy =               -1516.1335963189574159
    Two-Electron Energy =                 623.5886336559539131
    Total Energy =                       -401.7612552394713248
  Basis Set: (AUG-CC-PVTZ AUX)
    Blend: AUG-CC-PVTZ-RI
    Molecular point group: c1

    Geometry (in Angstrom), charge = 0, multiplicity = 1:

       Center              X                  Y                   Z               Mass
    ------------   -----------------  -----------------  -----------------  -----------------
         N            0.173721255057    -0.913922277609    -0.000002018222    14.003074004430
         C            2.071203255057     0.570579722391    -0.000003018222    12.000000000000
         C            2.949664255057    -0.406760277609    -0.747422018222    12.000000000000
         C            2.949663255057    -0.406752277609     0.747426981778    12.000000000000
         C            0.604435255057     0.363603722391    -0.000003018222    12.000000000000
         C           -0.288706744943     1.443792722391    -0.000002018222    12.000000000000
         C           -1.657410744943     1.195885722391     0.000000981778    12.000000000000
         C           -2.122067744943    -0.124293277609     0.000002981778    12.000000000000
         C           -1.151448744943    -1.131327277609     0.000000981778    12.000000000000
         C           -3.493253044943    -0.426472877609     0.000000181778    12.000000000000
         H            2.390220255057     1.610315722391    -0.000009018222     1.007825032230
         H            3.814309255057    -0.010400277609    -1.270401018222     1.007825032230
         H            2.431817255057    -1.221454277609    -1.241974018222     1.007825032230
         H            2.431818255057    -1.221442277609     1.241987981778     1.007825032230
         H            3.814307255057    -0.010386277609     1.270402981778     1.007825032230
         H            0.090508255057     2.463217722391    -0.000003018222     1.007825032230
         H           -2.364457744943     2.024645722391     0.000000981778     1.007825032230
         H           -1.455380744943    -2.178992277609     0.000001981778     1.007825032230
         H           -4.086562744943    -0.033072277609     0.883291981778     1.007825032230
         H           -3.751578744943    -1.529540277609     0.000041981778     1.007825032230
         H           -4.086542744943    -0.033143277609    -0.883337018222     1.007825032230

  Basis Set: AUG-CC-PVTZ
    Blend: AUG-CC-PVTZ
  Basis Set: (AUG-CC-PVTZ AUX)
    Blend: AUG-CC-PVTZ-JKFIT
	 Reference Energy          =    -401.7612552394712679 [Eh]
	 Singles Energy            =      -0.0000000000000000 [Eh]
	 Same-Spin Energy          =      -0.4472276790586470 [Eh]
	 Opposite-Spin Energy      =      -1.4331268869665639 [Eh]
	 Correlation Energy        =      -1.8803545660252108 [Eh]
	 Total Energy              =    -403.6416098054965005 [Eh]

	 ================> DF-SCS-MP2 Energies <==================
	-----------------------------------------------------------
	 SCS Same-Spin Scale       =       0.3333333333333333 [-]
	 SCS Opposite-Spin Scale   =       1.2000000000000000 [-]
	 SCS Same-Spin Energy      =      -0.1490758930195490 [Eh]
	 SCS Opposite-Spin Energy  =      -1.7197522643598766 [Eh]
	 SCS Correlation Energy    =      -1.8688281573794256 [Eh]
	 SCS Total Energy          =    -403.6300833968506936 [Eh]
	-----------------------------------------------------------

  Dipole Moment: [D]
     X:    -1.2970      Y:     1.4623      Z:    -0.0000     Total:     1.9546

*** Psi4 exiting successfully. Buy a developer a beer!
