                               Psi4 1.4a3.dev225

  ==> Input File <==

--------------------------------------------------------------------------
#psi4
#
memory 32 gb

molecule  {
0 1
  N        0.1871790    -0.9111820    -0.0000020
  C        2.0846610     0.5733200    -0.0000030
  C        2.9631220    -0.4040200    -0.7474220
  C        2.9631210    -0.4040120     0.7474270
  C        0.6178930     0.3663440    -0.0000030
  C       -0.2752490     1.4465330    -0.0000020
  C       -1.6439530     1.1986260     0.0000010
  C       -2.1008682    -0.1737078     0.0907859
  C       -1.1379910    -1.1285870     0.0000010
  C       -3.5774520    -0.4452540     0.0000000
  H        2.4036780     1.6130560    -0.0000090
  H        3.8277670    -0.0076600    -1.2704010
  H        2.4452750    -1.2187140    -1.2419740
  H        2.4452760    -1.2187020     1.2419880
  H        3.8277650    -0.0076460     1.2704030
  H        0.1039660     2.4659580    -0.0000030
  H       -2.3510000     2.0273860     0.0000010
  H       -1.4419230    -2.1762520     0.0000020
  H       -4.0731050    -0.0303320     0.8832920
  H       -3.7381210    -1.5268000     0.0000420
  H       -4.0730850    -0.0304030    -0.8833370
units angstrom
no_reorient  #important for SAPT in psi4, default
symmetry c1  #important for SAPT in psi4, default
}

set PROPERTIES_ORIGIN ["COM"]
properties('MP2/aug-cc-pvtz', properties = ['dipole'])
--------------------------------------------------------------------------

    Molecular point group: c1
  Charge       = 0
  Multiplicity = 1
  Basis Set: AUG-CC-PVTZ
    Blend: AUG-CC-PVTZ
  Basis Set: (AUG-CC-PVTZ AUX)
    Blend: AUG-CC-PVTZ-JKFIT

    Orbital Energies [Eh]
    ---------------------

    Doubly Occupied:

       1A    -15.553501     2A    -11.278354     3A    -11.260992
       4A    -11.258159     5A    -11.238775     6A    -11.234921
       7A    -11.232278     8A    -11.228818     9A    -11.222451
      10A    -11.221752    11A     -1.251015    12A     -1.141687
      13A     -1.086427    14A     -1.045676    15A     -0.950643
      16A     -0.873217    17A     -0.833609    18A     -0.815608
      19A     -0.782926    20A     -0.701716    21A     -0.665016
      22A     -0.639408    23A     -0.625876    24A     -0.601425
      25A     -0.583313    26A     -0.568083    27A     -0.552760
      28A     -0.535511    29A     -0.522295    30A     -0.504658
      31A     -0.491244    32A     -0.430590    33A     -0.427573
      34A     -0.407747    35A     -0.368621    36A     -0.316495

  @DF-RHF Final Energy:  -401.76769328861485

   => Energetics <=

    Nuclear Repulsion Energy =            488.9333268624598077
    One-Electron Energy =               -1512.4957632773596288
    Two-Electron Energy =                 621.7947431262849705
    Total Energy =                       -401.7676932886148506
  Basis Set: (AUG-CC-PVTZ AUX)
    Blend: AUG-CC-PVTZ-RI
    Molecular point group: c1

    Geometry (in Angstrom), charge = 0, multiplicity = 1:

       Center              X                  Y                   Z               Mass
    ------------   -----------------  -----------------  -----------------  -----------------
         N            0.181828443398    -0.907279253709    -0.008187451860    14.003074004430
         C            2.079310443398     0.577222746291    -0.008188451860    12.000000000000
         C            2.957771443398    -0.400117253709    -0.755607451860    12.000000000000
         C            2.957770443398    -0.400109253709     0.739241548140    12.000000000000
         C            0.612542443398     0.370246746291    -0.008188451860    12.000000000000
         C           -0.280599556602     1.450435746291    -0.008187451860    12.000000000000
         C           -1.649303556602     1.202528746291    -0.008184451860    12.000000000000
         C           -2.106218756602    -0.169805053709     0.082600448140    12.000000000000
         C           -1.143341556602    -1.124684253709    -0.008184451860    12.000000000000
         C           -3.582802556602    -0.441351253709    -0.008185451860    12.000000000000
         H            2.398327443398     1.616958746291    -0.008194451860     1.007825032230
         H            3.822416443398    -0.003757253709    -1.278586451860     1.007825032230
         H            2.439924443398    -1.214811253709    -1.250159451860     1.007825032230
         H            2.439925443398    -1.214799253709     1.233802548140     1.007825032230
         H            3.822414443398    -0.003743253709     1.262217548140     1.007825032230
         H            0.098615443398     2.469860746291    -0.008188451860     1.007825032230
         H           -2.356350556602     2.031288746291    -0.008184451860     1.007825032230
         H           -1.447273556602    -2.172349253709    -0.008183451860     1.007825032230
         H           -4.078455556602    -0.026429253709     0.875106548140     1.007825032230
         H           -3.743471556602    -1.522897253709    -0.008143451860     1.007825032230
         H           -4.078435556602    -0.026500253709    -0.891522451860     1.007825032230

  Basis Set: AUG-CC-PVTZ
    Blend: AUG-CC-PVTZ
  Basis Set: (AUG-CC-PVTZ AUX)
    Blend: AUG-CC-PVTZ-JKFIT
	 Reference Energy          =    -401.7676932886148506 [Eh]
	 Singles Energy            =      -0.0000000000000000 [Eh]
	 Same-Spin Energy          =      -0.4457818919788203 [Eh]
	 Opposite-Spin Energy      =      -1.4318970778571336 [Eh]
	 Correlation Energy        =      -1.8776789698359539 [Eh]
	 Total Energy              =    -403.6453722584507773 [Eh]

	 ================> DF-SCS-MP2 Energies <==================
	-----------------------------------------------------------
	 SCS Same-Spin Scale       =       0.3333333333333333 [-]
	 SCS Opposite-Spin Scale   =       1.2000000000000000 [-]
	 SCS Same-Spin Energy      =      -0.1485939639929401 [Eh]
	 SCS Opposite-Spin Energy  =      -1.7182764934285604 [Eh]
	 SCS Correlation Energy    =      -1.8668704574215005 [Eh]
	 SCS Total Energy          =    -403.6345637460363491 [Eh]
	-----------------------------------------------------------

  Dipole Moment: [D]
     X:    -1.2541      Y:     1.5138      Z:    -0.0239     Total:     1.9659

*** Psi4 exiting successfully. Buy a developer a beer!
