                               Psi4 1.4a3.dev225

  ==> Input File <==

--------------------------------------------------------------------------
#psi4
#
memory 32 gb

molecule  {
0 1
  N        0.1871790    -0.9111820    -0.0000020
  C        2.0846610     0.5733200    -0.0000030
  C        2.9631220    -0.4040200    -0.7474220
  C        2.9631210    -0.4040120     0.7474270
  C        0.6178930     0.3663440    -0.0000030
  C       -0.2752490     1.4465330    -0.0000020
  C       -1.6439530     1.1986260     0.0000010
  C       -2.1060016    -0.1344537     0.0227160
  C       -1.1379910    -1.1285870     0.0000010
  C       -3.5774520    -0.4452540     0.0000000
  H        2.4036780     1.6130560    -0.0000090
  H        3.8277670    -0.0076600    -1.2704010
  H        2.4452750    -1.2187140    -1.2419740
  H        2.4452760    -1.2187020     1.2419880
  H        3.8277650    -0.0076460     1.2704030
  H        0.1039660     2.4659580    -0.0000030
  H       -2.3510000     2.0273860     0.0000010
  H       -1.4419230    -2.1762520     0.0000020
  H       -4.0731050    -0.0303320     0.8832920
  H       -3.7381210    -1.5268000     0.0000420
  H       -4.0730850    -0.0304030    -0.8833370
units angstrom
no_reorient  #important for SAPT in psi4, default
symmetry c1  #important for SAPT in psi4, default
}

set PROPERTIES_ORIGIN ["COM"]
properties('MP2/aug-cc-pvtz', properties = ['dipole'])
--------------------------------------------------------------------------

    Molecular point group: c1
  Charge       = 0
  Multiplicity = 1
  Basis Set: AUG-CC-PVTZ
    Blend: AUG-CC-PVTZ
  Basis Set: (AUG-CC-PVTZ AUX)
    Blend: AUG-CC-PVTZ-JKFIT

    Orbital Energies [Eh]
    ---------------------

    Doubly Occupied:

       1A    -15.555174     2A    -11.276595     3A    -11.265898
       4A    -11.253255     5A    -11.239152     6A    -11.234122
       7A    -11.231568     8A    -11.229140     9A    -11.221742
      10A    -11.221049    11A     -1.251165    12A     -1.141034
      13A     -1.090318    14A     -1.043265    15A     -0.950917
      16A     -0.868864    17A     -0.838548    18A     -0.815060
      19A     -0.781761    20A     -0.701257    21A     -0.666433
      22A     -0.639234    23A     -0.626016    24A     -0.601022
      25A     -0.583580    26A     -0.565510    27A     -0.550487
      28A     -0.535489    29A     -0.526478    30A     -0.504245
      31A     -0.497413    32A     -0.429663    33A     -0.427398
      34A     -0.406783    35A     -0.371466    36A     -0.313668

  @DF-RHF Final Energy:  -401.77337324363663

   => Energetics <=

    Nuclear Repulsion Energy =            489.0221270913250464
    One-Electron Energy =               -1512.6814618639041328
    Two-Electron Energy =                 621.8859615289424028
    Total Energy =                       -401.7733732436366836
  Basis Set: (AUG-CC-PVTZ AUX)
    Blend: AUG-CC-PVTZ-RI
    Molecular point group: c1

    Geometry (in Angstrom), charge = 0, multiplicity = 1:

       Center              X                  Y                   Z               Mass
    ------------   -----------------  -----------------  -----------------  -----------------
         N            0.182291297059    -0.910818604605    -0.002049920709    14.003074004430
         C            2.079773297059     0.573683395395    -0.002050920709    12.000000000000
         C            2.958234297059    -0.403656604605    -0.749469920709    12.000000000000
         C            2.958233297059    -0.403648604605     0.745379079291    12.000000000000
         C            0.613005297059     0.366707395395    -0.002050920709    12.000000000000
         C           -0.280136702941     1.446896395395    -0.002049920709    12.000000000000
         C           -1.648840702941     1.198989395395    -0.002046920709    12.000000000000
         C           -2.110889302941    -0.134090304605     0.020668079291    12.000000000000
         C           -1.142878702941    -1.128223604605    -0.002046920709    12.000000000000
         C           -3.582339702941    -0.444890604605    -0.002047920709    12.000000000000
         H            2.398790297059     1.613419395395    -0.002056920709     1.007825032230
         H            3.822879297059    -0.007296604605    -1.272448920709     1.007825032230
         H            2.440387297059    -1.218350604605    -1.244021920709     1.007825032230
         H            2.440388297059    -1.218338604605     1.239940079291     1.007825032230
         H            3.822877297059    -0.007282604605     1.268355079291     1.007825032230
         H            0.099078297059     2.466321395395    -0.002050920709     1.007825032230
         H           -2.355887702941     2.027749395395    -0.002046920709     1.007825032230
         H           -1.446810702941    -2.175888604605    -0.002045920709     1.007825032230
         H           -4.077992702941    -0.029968604605     0.881244079291     1.007825032230
         H           -3.743008702941    -1.526436604605    -0.002005920709     1.007825032230
         H           -4.077972702941    -0.030039604605    -0.885384920709     1.007825032230

  Basis Set: AUG-CC-PVTZ
    Blend: AUG-CC-PVTZ
  Basis Set: (AUG-CC-PVTZ AUX)
    Blend: AUG-CC-PVTZ-JKFIT
	 Reference Energy          =    -401.7733732436366267 [Eh]
	 Singles Energy            =      -0.0000000000000000 [Eh]
	 Same-Spin Energy          =      -0.4459079716539323 [Eh]
	 Opposite-Spin Energy      =      -1.4316475171425989 [Eh]
	 Correlation Energy        =      -1.8775554887965311 [Eh]
	 Total Energy              =    -403.6509287324331581 [Eh]

	 ================> DF-SCS-MP2 Energies <==================
	-----------------------------------------------------------
	 SCS Same-Spin Scale       =       0.3333333333333333 [-]
	 SCS Opposite-Spin Scale   =       1.2000000000000000 [-]
	 SCS Same-Spin Energy      =      -0.1486359905513107 [Eh]
	 SCS Opposite-Spin Energy  =      -1.7179770205711187 [Eh]
	 SCS Correlation Energy    =      -1.8666130111224295 [Eh]
	 SCS Total Energy          =    -403.6399862547590374 [Eh]
	-----------------------------------------------------------

  Dipole Moment: [D]
     X:    -1.3026      Y:     1.4702      Z:    -0.0057     Total:     1.9643

*** Psi4 exiting successfully. Buy a developer a beer!
