                               Psi4 1.4a3.dev225

  ==> Input File <==

--------------------------------------------------------------------------
#psi4
#
memory 32 gb

molecule  {
0 1
  N        0.1871790    -0.9111820    -0.0000020
  C        2.0846610     0.5733200    -0.0000030
  C        2.9631220    -0.4040200    -0.7474220
  C        2.9631210    -0.4040120     0.7474270
  C        0.6178930     0.3663440    -0.0000030
  C       -0.2752490     1.4465330    -0.0000020
  C       -1.6439530     1.1986260     0.0000010
  C       -2.1086100    -0.1215530     0.0000030
  C       -1.1032925    -1.1645872     0.0000009
  C       -3.5774520    -0.4452540     0.0000000
  H        2.4036780     1.6130560    -0.0000090
  H        3.8277670    -0.0076600    -1.2704010
  H        2.4452750    -1.2187140    -1.2419740
  H        2.4452760    -1.2187020     1.2419880
  H        3.8277650    -0.0076460     1.2704030
  H        0.1039660     2.4659580    -0.0000030
  H       -2.3510000     2.0273860     0.0000010
  H       -1.4419230    -2.1762520     0.0000020
  H       -4.0731050    -0.0303320     0.8832920
  H       -3.7381210    -1.5268000     0.0000420
  H       -4.0730850    -0.0304030    -0.8833370
units angstrom
no_reorient  #important for SAPT in psi4, default
symmetry c1  #important for SAPT in psi4, default
}

set PROPERTIES_ORIGIN ["COM"]
properties('MP2/aug-cc-pvtz', properties = ['dipole'])
--------------------------------------------------------------------------

    Molecular point group: c1
  Charge       = 0
  Multiplicity = 1
  Basis Set: AUG-CC-PVTZ
    Blend: AUG-CC-PVTZ
  Basis Set: (AUG-CC-PVTZ AUX)
    Blend: AUG-CC-PVTZ-JKFIT

    Orbital Energies [Eh]
    ---------------------

    Doubly Occupied:

       1A    -15.554964     2A    -11.275491     3A    -11.270675
       4A    -11.249419     5A    -11.243735     6A    -11.233098
       7A    -11.231013     8A    -11.229311     9A    -11.221009
      10A    -11.220316    11A     -1.255942    12A     -1.140374
      13A     -1.089913    14A     -1.041093    15A     -0.951261
      16A     -0.863160    17A     -0.840675    18A     -0.814534
      19A     -0.781193    20A     -0.704294    21A     -0.665755
      22A     -0.639333    23A     -0.629035    24A     -0.600629
      25A     -0.582616    26A     -0.566732    27A     -0.549033
      28A     -0.536703    29A     -0.527644    30A     -0.503899
      31A     -0.503056    32A     -0.428399    33A     -0.425496
      34A     -0.401934    35A     -0.376677    36A     -0.306338

  @DF-RHF Final Energy:  -401.77116092260763

   => Energetics <=

    Nuclear Repulsion Energy =            488.6875040559673380
    One-Electron Energy =               -1512.0078354972297348
    Two-Electron Energy =                 621.5491705186548188
    Total Energy =                       -401.7711609226075780
  Basis Set: (AUG-CC-PVTZ AUX)
    Blend: AUG-CC-PVTZ-RI
    Molecular point group: c1

    Geometry (in Angstrom), charge = 0, multiplicity = 1:

       Center              X                  Y                   Z               Mass
    ------------   -----------------  -----------------  -----------------  -----------------
         N            0.179397889130    -0.908735835263    -0.000001991172    14.003074004430
         C            2.076879889130     0.575766164737    -0.000002991172    12.000000000000
         C            2.955340889130    -0.401573835263    -0.747421991172    12.000000000000
         C            2.955339889130    -0.401565835263     0.747427008828    12.000000000000
         C            0.610111889130     0.368790164737    -0.000002991172    12.000000000000
         C           -0.283030110870     1.448979164737    -0.000001991172    12.000000000000
         C           -1.651734110870     1.201072164737     0.000001008828    12.000000000000
         C           -2.116391110870    -0.119106835263     0.000003008828    12.000000000000
         C           -1.111073610870    -1.162141035263     0.000000908828    12.000000000000
         C           -3.585233110870    -0.442807835263     0.000000008828    12.000000000000
         H            2.395896889130     1.615502164737    -0.000008991172     1.007825032230
         H            3.819985889130    -0.005213835263    -1.270400991172     1.007825032230
         H            2.437493889130    -1.216267835263    -1.241973991172     1.007825032230
         H            2.437494889130    -1.216255835263     1.241988008828     1.007825032230
         H            3.819983889130    -0.005199835263     1.270403008828     1.007825032230
         H            0.096184889130     2.468404164737    -0.000002991172     1.007825032230
         H           -2.358781110870     2.029832164737     0.000001008828     1.007825032230
         H           -1.449704110870    -2.173805835263     0.000002008828     1.007825032230
         H           -4.080886110870    -0.027885835263     0.883292008828     1.007825032230
         H           -3.745902110870    -1.524353835263     0.000042008828     1.007825032230
         H           -4.080866110870    -0.027956835263    -0.883336991172     1.007825032230

  Basis Set: AUG-CC-PVTZ
    Blend: AUG-CC-PVTZ
  Basis Set: (AUG-CC-PVTZ AUX)
    Blend: AUG-CC-PVTZ-JKFIT
	 Reference Energy          =    -401.7711609226076348 [Eh]
	 Singles Energy            =      -0.0000000000000000 [Eh]
	 Same-Spin Energy          =      -0.4458630566420634 [Eh]
	 Opposite-Spin Energy      =      -1.4314335090847647 [Eh]
	 Correlation Energy        =      -1.8772965657268281 [Eh]
	 Total Energy              =    -403.6484574883344862 [Eh]

	 ================> DF-SCS-MP2 Energies <==================
	-----------------------------------------------------------
	 SCS Same-Spin Scale       =       0.3333333333333333 [-]
	 SCS Opposite-Spin Scale   =       1.2000000000000000 [-]
	 SCS Same-Spin Energy      =      -0.1486210188806878 [Eh]
	 SCS Opposite-Spin Energy  =      -1.7177202109017176 [Eh]
	 SCS Correlation Energy    =      -1.8663412297824054 [Eh]
	 SCS Total Energy          =    -403.6375021523900273 [Eh]
	-----------------------------------------------------------

  Dipole Moment: [D]
     X:    -1.3295      Y:     1.3811      Z:    -0.0000     Total:     1.9170

*** Psi4 exiting successfully. Buy a developer a beer!
