                               Psi4 1.4a3.dev225

  ==> Input File <==

--------------------------------------------------------------------------
#psi4
#
memory 32 gb

molecule  {
0 1
  N        0.1871790    -0.9111820    -0.0000020
  C        2.0846610     0.5733200    -0.0000030
  C        2.9631220    -0.4040200    -0.7474220
  C        2.9631210    -0.4040120     0.7474270
  C        0.6178930     0.3663440    -0.0000030
  C       -0.2752490     1.4465330    -0.0000020
  C       -1.6439530     1.1986260     0.0000010
  C       -2.1086100    -0.1215530     0.0000030
  C       -1.1379910    -1.1285870     0.0000010
  C       -3.5774520    -0.4452540     0.0000000
  H        2.4036780     1.6130560    -0.0000090
  H        3.8277670    -0.0076600    -1.2704010
  H        2.4452750    -1.2187140    -1.2419740
  H        2.4452760    -1.2187020     1.2419880
  H        3.8277650    -0.0076460     1.2704030
  H        0.1039660     2.4659580    -0.0000030
  H       -2.3510000     2.0273860     0.0000010
  H       -1.4419230    -2.1762520     0.0000020
  H       -4.0821618    -0.0227504     0.8994318
  H       -3.7381210    -1.5268000     0.0000420
  H       -4.0730850    -0.0304030    -0.8833370
units angstrom
no_reorient  #important for SAPT in psi4, default
symmetry c1  #important for SAPT in psi4, default
}

set PROPERTIES_ORIGIN ["COM"]
properties('MP2/aug-cc-pvtz', properties = ['dipole'])
--------------------------------------------------------------------------

    Molecular point group: c1
  Charge       = 0
  Multiplicity = 1
  Basis Set: AUG-CC-PVTZ
    Blend: AUG-CC-PVTZ
  Basis Set: (AUG-CC-PVTZ AUX)
    Blend: AUG-CC-PVTZ-JKFIT

    Orbital Energies [Eh]
    ---------------------

    Doubly Occupied:

       1A    -15.555780     2A    -11.276234     3A    -11.267876
       4A    -11.251753     5A    -11.239552     6A    -11.233859
       7A    -11.231659     8A    -11.231438     9A    -11.221611
      10A    -11.220918    11A     -1.251272    12A     -1.140901
      13A     -1.091479    14A     -1.042343    15A     -0.949906
      16A     -0.867179    17A     -0.839831    18A     -0.814970
      19A     -0.781291    20A     -0.701052    21A     -0.666886
      22A     -0.639034    23A     -0.626207    24A     -0.600971
      25A     -0.581642    26A     -0.564750    27A     -0.548403
      28A     -0.534870    29A     -0.528195    30A     -0.504102
      31A     -0.498986    32A     -0.429428    33A     -0.427301
      34A     -0.406428    35A     -0.372477    36A     -0.312703

  @DF-RHF Final Energy:  -401.77320944187687

   => Energetics <=

    Nuclear Repulsion Energy =            488.9322307860541628
    One-Electron Energy =               -1512.5043037838024702
    Two-Electron Energy =                 621.7988635558715487
    Total Energy =                       -401.7732094418768156
  Basis Set: (AUG-CC-PVTZ AUX)
    Blend: AUG-CC-PVTZ-RI
    Molecular point group: c1

    Geometry (in Angstrom), charge = 0, multiplicity = 1:

       Center              X                  Y                   Z               Mass
    ------------   -----------------  -----------------  -----------------  -----------------
         N            0.182595066900    -0.912039209944    -0.000124219728    14.003074004430
         C            2.080077066900     0.572462790056    -0.000125219728    12.000000000000
         C            2.958538066900    -0.404877209944    -0.747544219728    12.000000000000
         C            2.958537066900    -0.404869209944     0.747304780272    12.000000000000
         C            0.613309066900     0.365486790056    -0.000125219728    12.000000000000
         C           -0.279832933100     1.445675790056    -0.000124219728    12.000000000000
         C           -1.648536933100     1.197768790056    -0.000121219728    12.000000000000
         C           -2.113193933100    -0.122410209944    -0.000119219728    12.000000000000
         C           -1.142574933100    -1.129444209944    -0.000121219728    12.000000000000
         C           -3.582035933100    -0.446111209944    -0.000122219728    12.000000000000
         H            2.399094066900     1.612198790056    -0.000131219728     1.007825032230
         H            3.823183066900    -0.008517209944    -1.270523219728     1.007825032230
         H            2.440691066900    -1.219571209944    -1.242096219728     1.007825032230
         H            2.440692066900    -1.219559209944     1.241865780272     1.007825032230
         H            3.823181066900    -0.008503209944     1.270280780272     1.007825032230
         H            0.099382066900     2.465100790056    -0.000125219728     1.007825032230
         H           -2.355583933100     2.026528790056    -0.000121219728     1.007825032230
         H           -1.446506933100    -2.177109209944    -0.000120219728     1.007825032230
         H           -4.086745733100    -0.023607609944     0.899309580272     1.007825032230
         H           -3.742704933100    -1.527657209944    -0.000080219728     1.007825032230
         H           -4.077668933100    -0.031260209944    -0.883459219728     1.007825032230

  Basis Set: AUG-CC-PVTZ
    Blend: AUG-CC-PVTZ
  Basis Set: (AUG-CC-PVTZ AUX)
    Blend: AUG-CC-PVTZ-JKFIT
	 Reference Energy          =    -401.7732094418768725 [Eh]
	 Singles Energy            =      -0.0000000000000000 [Eh]
	 Same-Spin Energy          =      -0.4459446524222739 [Eh]
	 Opposite-Spin Energy      =      -1.4317758414974957 [Eh]
	 Correlation Energy        =      -1.8777204939197696 [Eh]
	 Total Energy              =    -403.6509299357966256 [Eh]

	 ================> DF-SCS-MP2 Energies <==================
	-----------------------------------------------------------
	 SCS Same-Spin Scale       =       0.3333333333333333 [-]
	 SCS Opposite-Spin Scale   =       1.2000000000000000 [-]
	 SCS Same-Spin Energy      =      -0.1486482174740913 [Eh]
	 SCS Opposite-Spin Energy  =      -1.7181310097969948 [Eh]
	 SCS Correlation Energy    =      -1.8667792272710861 [Eh]
	 SCS Total Energy          =    -403.6399886691479537 [Eh]
	-----------------------------------------------------------

  Dipole Moment: [D]
     X:    -1.3028      Y:     1.4537      Z:    -0.0059     Total:     1.9521

*** Psi4 exiting successfully. Buy a developer a beer!
