                               Psi4 1.4a3.dev225

  ==> Input File <==

--------------------------------------------------------------------------
#psi4
#
memory 32 gb

molecule  {
0 1
  N        0.1871790    -0.9111820    -0.0000020
  C        2.0846610     0.5733200    -0.0000030
  C        2.9631220    -0.4040200    -0.7474220
  C        2.9631210    -0.4040120     0.7474270
  C        0.6178930     0.3663440    -0.0000030
  C       -0.2752490     1.4465330    -0.0000020
  C       -1.6439530     1.1986260     0.0000010
  C       -2.1086100    -0.1215530     0.0000030
  C       -1.1379910    -1.1285870     0.0000010
  C       -3.5774520    -0.4452540     0.0000000
  H        2.4036780     1.6130560    -0.0000090
  H        3.8277670    -0.0076600    -1.2704010
  H        2.4691465    -1.1811585    -1.2191763
  H        2.4452760    -1.2187020     1.2419880
  H        3.8277650    -0.0076460     1.2704030
  H        0.1039660     2.4659580    -0.0000030
  H       -2.3510000     2.0273860     0.0000010
  H       -1.4419230    -2.1762520     0.0000020
  H       -4.0731050    -0.0303320     0.8832920
  H       -3.7381210    -1.5268000     0.0000420
  H       -4.0730850    -0.0304030    -0.8833370
units angstrom
no_reorient  #important for SAPT in psi4, default
symmetry c1  #important for SAPT in psi4, default
}

set PROPERTIES_ORIGIN ["COM"]
properties('MP2/aug-cc-pvtz', properties = ['dipole'])
--------------------------------------------------------------------------

    Molecular point group: c1
  Charge       = 0
  Multiplicity = 1
  Basis Set: AUG-CC-PVTZ
    Blend: AUG-CC-PVTZ
  Basis Set: (AUG-CC-PVTZ AUX)
    Blend: AUG-CC-PVTZ-JKFIT

    Orbital Energies [Eh]
    ---------------------

    Doubly Occupied:

       1A    -15.555708     2A    -11.276114     3A    -11.267755
       4A    -11.251687     5A    -11.239377     6A    -11.233751
       7A    -11.231090     8A    -11.229249     9A    -11.220956
      10A    -11.215660    11A     -1.251209    12A     -1.141473
      13A     -1.091607    14A     -1.042522    15A     -0.951127
      16A     -0.867634    17A     -0.840281    18A     -0.819826
      19A     -0.782016    20A     -0.702303    21A     -0.667620
      22A     -0.639629    23A     -0.626140    24A     -0.602880
      25A     -0.583705    26A     -0.564658    27A     -0.549589
      28A     -0.535609    29A     -0.529184    30A     -0.508098
      31A     -0.498966    32A     -0.429809    33A     -0.427284
      34A     -0.406252    35A     -0.372474    36A     -0.312623

  @DF-RHF Final Energy:  -401.77284106620186

   => Energetics <=

    Nuclear Repulsion Energy =            489.2262458797164868
    One-Electron Energy =               -1513.0664492949147188
    Two-Electron Energy =                 622.0673623489963120
    Total Energy =                       -401.7728410662018632
  Basis Set: (AUG-CC-PVTZ AUX)
    Blend: AUG-CC-PVTZ-RI
    Molecular point group: c1

    Geometry (in Angstrom), charge = 0, multiplicity = 1:

       Center              X                  Y                   Z               Mass
    ------------   -----------------  -----------------  -----------------  -----------------
         N            0.182345715506    -0.912266188979    -0.000174637048    14.003074004430
         C            2.079827715506     0.572235811021    -0.000175637048    12.000000000000
         C            2.958288715506    -0.405104188979    -0.747594637048    12.000000000000
         C            2.958287715506    -0.405096188979     0.747254362952    12.000000000000
         C            0.613059715506     0.365259811021    -0.000175637048    12.000000000000
         C           -0.280082284494     1.445448811021    -0.000174637048    12.000000000000
         C           -1.648786284494     1.197541811021    -0.000171637048    12.000000000000
         C           -2.113443284494    -0.122637188979    -0.000169637048    12.000000000000
         C           -1.142824284494    -1.129671188979    -0.000171637048    12.000000000000
         C           -3.582285284494    -0.446338188979    -0.000172637048    12.000000000000
         H            2.398844715506     1.611971811021    -0.000181637048     1.007825032230
         H            3.822933715506    -0.008744188979    -1.270573637048     1.007825032230
         H            2.464313215506    -1.182242688979    -1.219348937048     1.007825032230
         H            2.440442715506    -1.219786188979     1.241815362952     1.007825032230
         H            3.822931715506    -0.008730188979     1.270230362952     1.007825032230
         H            0.099132715506     2.464873811021    -0.000175637048     1.007825032230
         H           -2.355833284494     2.026301811021    -0.000171637048     1.007825032230
         H           -1.446756284494    -2.177336188979    -0.000170637048     1.007825032230
         H           -4.077938284494    -0.031416188979     0.883119362952     1.007825032230
         H           -3.742954284494    -1.527884188979    -0.000130637048     1.007825032230
         H           -4.077918284494    -0.031487188979    -0.883509637048     1.007825032230

  Basis Set: AUG-CC-PVTZ
    Blend: AUG-CC-PVTZ
  Basis Set: (AUG-CC-PVTZ AUX)
    Blend: AUG-CC-PVTZ-JKFIT
	 Reference Energy          =    -401.7728410662018632 [Eh]
	 Singles Energy            =      -0.0000000000000000 [Eh]
	 Same-Spin Energy          =      -0.4458676670151306 [Eh]
	 Opposite-Spin Energy      =      -1.4313539454076147 [Eh]
	 Correlation Energy        =      -1.8772216124227454 [Eh]
	 Total Energy              =    -403.6500626786246357 [Eh]

	 ================> DF-SCS-MP2 Energies <==================
	-----------------------------------------------------------
	 SCS Same-Spin Scale       =       0.3333333333333333 [-]
	 SCS Opposite-Spin Scale   =       1.2000000000000000 [-]
	 SCS Same-Spin Energy      =      -0.1486225556717102 [Eh]
	 SCS Opposite-Spin Energy  =      -1.7176247344891376 [Eh]
	 SCS Correlation Energy    =      -1.8662472901608478 [Eh]
	 SCS Total Energy          =    -403.6390883563627199 [Eh]
	-----------------------------------------------------------

  Dipole Moment: [D]
     X:    -1.3089      Y:     1.4520      Z:    -0.0097     Total:     1.9550

*** Psi4 exiting successfully. Buy a developer a beer!
