                               Psi4 1.4a3.dev225

  ==> Input File <==

--------------------------------------------------------------------------
#psi4
#
memory 32 gb

molecule  {
0 1
  N        0.1871790    -0.9111820    -0.0000020
  C        2.0846610     0.5733200    -0.0000030
  C        2.9631220    -0.4040200    -0.7474220
  C        2.9631210    -0.4040120     0.7474270
  C        0.5859452     0.2715846    -0.0000029
  C       -0.2752490     1.4465330    -0.0000020
  C       -1.6439530     1.1986260     0.0000010
  C       -2.1086100    -0.1215530     0.0000030
  C       -1.1379910    -1.1285870     0.0000010
  C       -3.5774520    -0.4452540     0.0000000
  H        2.4036780     1.6130560    -0.0000090
  H        3.8277670    -0.0076600    -1.2704010
  H        2.4452750    -1.2187140    -1.2419740
  H        2.4452760    -1.2187020     1.2419880
  H        3.8277650    -0.0076460     1.2704030
  H        0.1039660     2.4659580    -0.0000030
  H       -2.3510000     2.0273860     0.0000010
  H       -1.4419230    -2.1762520     0.0000020
  H       -4.0731050    -0.0303320     0.8832920
  H       -3.7381210    -1.5268000     0.0000420
  H       -4.0730850    -0.0304030    -0.8833370
units angstrom
no_reorient  #important for SAPT in psi4, default
symmetry c1  #important for SAPT in psi4, default
}

set PROPERTIES_ORIGIN ["COM"]
properties('MP2/aug-cc-pvtz', properties = ['dipole'])
--------------------------------------------------------------------------

    Molecular point group: c1
  Charge       = 0
  Multiplicity = 1
  Basis Set: AUG-CC-PVTZ
    Blend: AUG-CC-PVTZ
  Basis Set: (AUG-CC-PVTZ AUX)
    Blend: AUG-CC-PVTZ-JKFIT

    Orbital Energies [Eh]
    ---------------------

    Doubly Occupied:

       1A    -15.549553     2A    -11.275454     3A    -11.267343
       4A    -11.250806     5A    -11.240400     6A    -11.239149
       7A    -11.230704     8A    -11.229723     9A    -11.219123
      10A    -11.218427    11A     -1.280485    12A     -1.137694
      13A     -1.099020    14A     -1.034184    15A     -0.951450
      16A     -0.866831    17A     -0.838997    18A     -0.813134
      19A     -0.779085    20A     -0.703714    21A     -0.666224
      22A     -0.646261    23A     -0.626581    24A     -0.593910
      25A     -0.585778    26A     -0.566998    27A     -0.549647
      28A     -0.545028    29A     -0.528771    30A     -0.503760
      31A     -0.501125    32A     -0.427799    33A     -0.425249
      34A     -0.396011    35A     -0.379700    36A     -0.313310

  @DF-RHF Final Energy:  -401.76497300344084

   => Energetics <=

    Nuclear Repulsion Energy =            489.8317498640405461
    One-Electron Energy =               -1514.2305897426190313
    Two-Electron Energy =                 622.6338668751376417
    Total Energy =                       -401.7649730034407867
  Basis Set: (AUG-CC-PVTZ AUX)
    Blend: AUG-CC-PVTZ-RI
    Molecular point group: c1

    Geometry (in Angstrom), charge = 0, multiplicity = 1:

       Center              X                  Y                   Z               Mass
    ------------   -----------------  -----------------  -----------------  -----------------
         N            0.185407061207    -0.903437804557    -0.000002009205    14.003074004430
         C            2.082889061207     0.581064195443    -0.000003009205    12.000000000000
         C            2.961350061207    -0.396275804557    -0.747422009205    12.000000000000
         C            2.961349061207    -0.396267804557     0.747426990795    12.000000000000
         C            0.584173261207     0.279328795443    -0.000002909205    12.000000000000
         C           -0.277020938793     1.454277195443    -0.000002009205    12.000000000000
         C           -1.645724938793     1.206370195443     0.000000990795    12.000000000000
         C           -2.110381938793    -0.113808804557     0.000002990795    12.000000000000
         C           -1.139762938793    -1.120842804557     0.000000990795    12.000000000000
         C           -3.579223938793    -0.437509804557    -0.000000009205    12.000000000000
         H            2.401906061207     1.620800195443    -0.000009009205     1.007825032230
         H            3.825995061207     0.000084195443    -1.270401009205     1.007825032230
         H            2.443503061207    -1.210969804557    -1.241974009205     1.007825032230
         H            2.443504061207    -1.210957804557     1.241987990795     1.007825032230
         H            3.825993061207     0.000098195443     1.270402990795     1.007825032230
         H            0.102194061207     2.473702195443    -0.000003009205     1.007825032230
         H           -2.352771938793     2.035130195443     0.000000990795     1.007825032230
         H           -1.443694938793    -2.168507804557     0.000001990795     1.007825032230
         H           -4.074876938793    -0.022587804557     0.883291990795     1.007825032230
         H           -3.739892938793    -1.519055804557     0.000041990795     1.007825032230
         H           -4.074856938793    -0.022658804557    -0.883337009205     1.007825032230

  Basis Set: AUG-CC-PVTZ
    Blend: AUG-CC-PVTZ
  Basis Set: (AUG-CC-PVTZ AUX)
    Blend: AUG-CC-PVTZ-JKFIT
	 Reference Energy          =    -401.7649730034408435 [Eh]
	 Singles Energy            =      -0.0000000000000000 [Eh]
	 Same-Spin Energy          =      -0.4444720156060860 [Eh]
	 Opposite-Spin Energy      =      -1.4296962430985827 [Eh]
	 Correlation Energy        =      -1.8741682587046686 [Eh]
	 Total Energy              =    -403.6391412621455288 [Eh]

	 ================> DF-SCS-MP2 Energies <==================
	-----------------------------------------------------------
	 SCS Same-Spin Scale       =       0.3333333333333333 [-]
	 SCS Opposite-Spin Scale   =       1.2000000000000000 [-]
	 SCS Same-Spin Energy      =      -0.1481573385353620 [Eh]
	 SCS Opposite-Spin Energy  =      -1.7156354917182992 [Eh]
	 SCS Correlation Energy    =      -1.8637928302536613 [Eh]
	 SCS Total Energy          =    -403.6287658336945015 [Eh]
	-----------------------------------------------------------

  Dipole Moment: [D]
     X:    -1.4326      Y:     1.4609      Z:    -0.0000     Total:     2.0461

*** Psi4 exiting successfully. Buy a developer a beer!
