                               Psi4 1.4a3.dev225

  ==> Input File <==

--------------------------------------------------------------------------
#psi4
#
memory 32 gb

molecule  {
0 1
  N        0.1871790    -0.9111820    -0.0000020
  C        2.0846610     0.5733200    -0.0000030
  C        2.9631220    -0.4040200    -0.7474220
  C        2.9631210    -0.4040120     0.7474270
  C        0.6178930     0.3663440    -0.0000030
  C       -0.2752490     1.4465330    -0.0000020
  C       -1.6439530     1.1986260     0.0000010
  C       -2.1086100    -0.1215530     0.0000030
  C       -1.1379910    -1.1285870     0.0000010
  C       -3.5774520    -0.4452540     0.0000000
  H        2.4036780     1.6130560    -0.0000090
  H        3.8277670    -0.0076600    -1.2704010
  H        2.4452750    -1.2187140    -1.2419740
  H        2.4548246    -1.2036799     1.2328688
  H        3.8277650    -0.0076460     1.2704030
  H        0.1039660     2.4659580    -0.0000030
  H       -2.3510000     2.0273860     0.0000010
  H       -1.4419230    -2.1762520     0.0000020
  H       -4.0731050    -0.0303320     0.8832920
  H       -3.7381210    -1.5268000     0.0000420
  H       -4.0730850    -0.0304030    -0.8833370
units angstrom
no_reorient  #important for SAPT in psi4, default
symmetry c1  #important for SAPT in psi4, default
}

set PROPERTIES_ORIGIN ["COM"]
properties('MP2/aug-cc-pvtz', properties = ['dipole'])
--------------------------------------------------------------------------

    Molecular point group: c1
  Charge       = 0
  Multiplicity = 1
  Basis Set: AUG-CC-PVTZ
    Blend: AUG-CC-PVTZ
  Basis Set: (AUG-CC-PVTZ AUX)
    Blend: AUG-CC-PVTZ-JKFIT

    Orbital Energies [Eh]
    ---------------------

    Doubly Occupied:

       1A    -15.555706     2A    -11.276125     3A    -11.267749
       4A    -11.251682     5A    -11.239389     6A    -11.233778
       7A    -11.231256     8A    -11.229254     9A    -11.221149
      10A    -11.218963    11A     -1.251195    12A     -1.141074
      13A     -1.091594    14A     -1.042471    15A     -0.951060
      16A     -0.867447    17A     -0.840130    18A     -0.816770
      19A     -0.781596    20A     -0.701544    21A     -0.667116
      22A     -0.639326    23A     -0.626148    24A     -0.601692
      25A     -0.583711    26A     -0.564660    27A     -0.549484
      28A     -0.535479    29A     -0.528498    30A     -0.505791
      31A     -0.498937    32A     -0.429593    33A     -0.427274
      34A     -0.406317    35A     -0.372458    36A     -0.312669

  @DF-RHF Final Energy:  -401.77380956748391

   => Energetics <=

    Nuclear Repulsion Energy =            489.0995747753443084
    One-Electron Energy =               -1512.8285996252816403
    Two-Electron Energy =                 621.9552152824534232
    Total Energy =                       -401.7738095674839087
  Basis Set: (AUG-CC-PVTZ AUX)
    Blend: AUG-CC-PVTZ-RI
    Molecular point group: c1

    Geometry (in Angstrom), charge = 0, multiplicity = 1:

       Center              X                  Y                   Z               Mass
    ------------   -----------------  -----------------  -----------------  -----------------
         N            0.182454176468    -0.912095553547     0.000067055463    14.003074004430
         C            2.079936176468     0.572406446453     0.000066055463    12.000000000000
         C            2.958397176468    -0.404933553547    -0.747352944537    12.000000000000
         C            2.958396176468    -0.404925553547     0.747496055463    12.000000000000
         C            0.613168176468     0.365430446453     0.000066055463    12.000000000000
         C           -0.279973823532     1.445619446453     0.000067055463    12.000000000000
         C           -1.648677823532     1.197712446453     0.000070055463    12.000000000000
         C           -2.113334823532    -0.122466553547     0.000072055463    12.000000000000
         C           -1.142715823532    -1.129500553547     0.000070055463    12.000000000000
         C           -3.582176823532    -0.446167553547     0.000069055463    12.000000000000
         H            2.398953176468     1.612142446453     0.000060055463     1.007825032230
         H            3.823042176468    -0.008573553547    -1.270331944537     1.007825032230
         H            2.440550176468    -1.219627553547    -1.241904944537     1.007825032230
         H            2.450099776468    -1.204593453547     1.232937855463     1.007825032230
         H            3.823040176468    -0.008559553547     1.270472055463     1.007825032230
         H            0.099241176468     2.465044446453     0.000066055463     1.007825032230
         H           -2.355724823532     2.026472446453     0.000070055463     1.007825032230
         H           -1.446647823532    -2.177165553547     0.000071055463     1.007825032230
         H           -4.077829823532    -0.031245553547     0.883361055463     1.007825032230
         H           -3.742845823532    -1.527713553547     0.000111055463     1.007825032230
         H           -4.077809823532    -0.031316553547    -0.883267944537     1.007825032230

  Basis Set: AUG-CC-PVTZ
    Blend: AUG-CC-PVTZ
  Basis Set: (AUG-CC-PVTZ AUX)
    Blend: AUG-CC-PVTZ-JKFIT
	 Reference Energy          =    -401.7738095674839087 [Eh]
	 Singles Energy            =      -0.0000000000000000 [Eh]
	 Same-Spin Energy          =      -0.4459158247610394 [Eh]
	 Opposite-Spin Energy      =      -1.4315256424302305 [Eh]
	 Correlation Energy        =      -1.8774414671912698 [Eh]
	 Total Energy              =    -403.6512510346751696 [Eh]

	 ================> DF-SCS-MP2 Energies <==================
	-----------------------------------------------------------
	 SCS Same-Spin Scale       =       0.3333333333333333 [-]
	 SCS Opposite-Spin Scale   =       1.2000000000000000 [-]
	 SCS Same-Spin Energy      =      -0.1486386082536798 [Eh]
	 SCS Opposite-Spin Energy  =      -1.7178307709162766 [Eh]
	 SCS Correlation Energy    =      -1.8664693791699563 [Eh]
	 SCS Total Energy          =    -403.6402789466538934 [Eh]
	-----------------------------------------------------------

  Dipole Moment: [D]
     X:    -1.3114      Y:     1.4538      Z:     0.0042     Total:     1.9579

*** Psi4 exiting successfully. Buy a developer a beer!
