                               Psi4 1.4a3.dev225

  ==> Input File <==

--------------------------------------------------------------------------
#psi4
#
memory 32 gb

molecule  {
0 1
  N        0.1871790    -0.9111820    -0.0000020
  C        2.0846610     0.5733200    -0.0000030
  C        2.9631220    -0.4040200    -0.7474220
  C        2.9050139    -0.3393648     0.6979871
  C        0.6178930     0.3663440    -0.0000030
  C       -0.2752490     1.4465330    -0.0000020
  C       -1.6439530     1.1986260     0.0000010
  C       -2.1086100    -0.1215530     0.0000030
  C       -1.1379910    -1.1285870     0.0000010
  C       -3.5774520    -0.4452540     0.0000000
  H        2.4036780     1.6130560    -0.0000090
  H        3.8277670    -0.0076600    -1.2704010
  H        2.4452750    -1.2187140    -1.2419740
  H        2.4452760    -1.2187020     1.2419880
  H        3.8277650    -0.0076460     1.2704030
  H        0.1039660     2.4659580    -0.0000030
  H       -2.3510000     2.0273860     0.0000010
  H       -1.4419230    -2.1762520     0.0000020
  H       -4.0731050    -0.0303320     0.8832920
  H       -3.7381210    -1.5268000     0.0000420
  H       -4.0730850    -0.0304030    -0.8833370
units angstrom
no_reorient  #important for SAPT in psi4, default
symmetry c1  #important for SAPT in psi4, default
}

set PROPERTIES_ORIGIN ["COM"]
properties('MP2/aug-cc-pvtz', properties = ['dipole'])
--------------------------------------------------------------------------

    Molecular point group: c1
  Charge       = 0
  Multiplicity = 1
  Basis Set: AUG-CC-PVTZ
    Blend: AUG-CC-PVTZ
  Basis Set: (AUG-CC-PVTZ AUX)
    Blend: AUG-CC-PVTZ-JKFIT

    Orbital Energies [Eh]
    ---------------------

    Doubly Occupied:

       1A    -15.556333     2A    -11.276230     3A    -11.268048
       4A    -11.251934     5A    -11.240003     6A    -11.234334
       7A    -11.229585     8A    -11.227177     9A    -11.220651
      10A    -11.215236    11A     -1.252929    12A     -1.165266
      13A     -1.092708    14A     -1.043920    15A     -0.951828
      16A     -0.867829    17A     -0.840868    18A     -0.808220
      19A     -0.780164    20A     -0.703840    21A     -0.670939
      22A     -0.640633    23A     -0.627879    24A     -0.605232
      25A     -0.584039    26A     -0.565224    27A     -0.549257
      28A     -0.535243    29A     -0.526077    30A     -0.500483
      31A     -0.479016    32A     -0.453076    33A     -0.421453
      34A     -0.406396    35A     -0.372569    36A     -0.315039

  @DF-RHF Final Energy:  -401.76269360884794

   => Energetics <=

    Nuclear Repulsion Energy =            490.9409326797235735
    One-Electron Energy =               -1516.4479415620025975
    Two-Electron Energy =                 623.7443152734310843
    Total Energy =                       -401.7626936088479397
  Basis Set: (AUG-CC-PVTZ AUX)
    Blend: AUG-CC-PVTZ-RI
    Molecular point group: c1

    Geometry (in Angstrom), charge = 0, multiplicity = 1:

       Center              X                  Y                   Z               Mass
    ------------   -----------------  -----------------  -----------------  -----------------
         N            0.187765717803    -0.917810720826     0.004455754653    14.003074004430
         C            2.085247717803     0.566691279174     0.004454754653    12.000000000000
         C            2.963708717803    -0.410648720826    -0.742964245347    12.000000000000
         C            2.905600617803    -0.345993520826     0.702444854653    12.000000000000
         C            0.618479717803     0.359715279174     0.004454754653    12.000000000000
         C           -0.274662282197     1.439904279174     0.004455754653    12.000000000000
         C           -1.643366282197     1.191997279174     0.004458754653    12.000000000000
         C           -2.108023282197    -0.128181720826     0.004460754653    12.000000000000
         C           -1.137404282197    -1.135215720826     0.004458754653    12.000000000000
         C           -3.576865282197    -0.451882720826     0.004457754653    12.000000000000
         H            2.404264717803     1.606427279174     0.004448754653     1.007825032230
         H            3.828353717803    -0.014288720826    -1.265943245347     1.007825032230
         H            2.445861717803    -1.225342720826    -1.237516245347     1.007825032230
         H            2.445862717803    -1.225330720826     1.246445754653     1.007825032230
         H            3.828351717803    -0.014274720826     1.274860754653     1.007825032230
         H            0.104552717803     2.459329279174     0.004454754653     1.007825032230
         H           -2.350413282197     2.020757279174     0.004458754653     1.007825032230
         H           -1.441336282197    -2.182880720826     0.004459754653     1.007825032230
         H           -4.072518282197    -0.036960720826     0.887749754653     1.007825032230
         H           -3.737534282197    -1.533428720826     0.004499754653     1.007825032230
         H           -4.072498282197    -0.037031720826    -0.878879245347     1.007825032230

  Basis Set: AUG-CC-PVTZ
    Blend: AUG-CC-PVTZ
  Basis Set: (AUG-CC-PVTZ AUX)
    Blend: AUG-CC-PVTZ-JKFIT
	 Reference Energy          =    -401.7626936088479397 [Eh]
	 Singles Energy            =      -0.0000000000000000 [Eh]
	 Same-Spin Energy          =      -0.4465893324926130 [Eh]
	 Opposite-Spin Energy      =      -1.4318225981730837 [Eh]
	 Correlation Energy        =      -1.8784119306656966 [Eh]
	 Total Energy              =    -403.6411055395136600 [Eh]

	 ================> DF-SCS-MP2 Energies <==================
	-----------------------------------------------------------
	 SCS Same-Spin Scale       =       0.3333333333333333 [-]
	 SCS Opposite-Spin Scale   =       1.2000000000000000 [-]
	 SCS Same-Spin Energy      =      -0.1488631108308710 [Eh]
	 SCS Opposite-Spin Energy  =      -1.7181871178077004 [Eh]
	 SCS Correlation Energy    =      -1.8670502286385713 [Eh]
	 SCS Total Energy          =    -403.6297438374865010 [Eh]
	-----------------------------------------------------------

  Dipole Moment: [D]
     X:    -1.3536      Y:     1.4422      Z:     0.0416     Total:     1.9783

*** Psi4 exiting successfully. Buy a developer a beer!
