                               Psi4 1.4a3.dev225

  ==> Input File <==

--------------------------------------------------------------------------
#psi4
#
memory 32 gb

molecule  {
0 1
  N        0.1871790    -0.9111820    -0.0000020
  C        2.0846610     0.5733200    -0.0000030
  C        2.9631220    -0.4040200    -0.7474220
  C        2.9631210    -0.4040120     0.7474270
  C        0.6178930     0.3663440    -0.0000030
  C       -0.2752490     1.4465330    -0.0000020
  C       -1.6439530     1.1986260     0.0000010
  C       -2.1086100    -0.1215530     0.0000030
  C       -1.1379910    -1.1285870     0.0000010
  C       -3.5774520    -0.4452540     0.0000000
  H        2.4036780     1.6130560    -0.0000090
  H        3.9870813     0.0653709    -1.3667620
  H        2.4452750    -1.2187140    -1.2419740
  H        2.4452760    -1.2187020     1.2419880
  H        3.8277650    -0.0076460     1.2704030
  H        0.1039660     2.4659580    -0.0000030
  H       -2.3510000     2.0273860     0.0000010
  H       -1.4419230    -2.1762520     0.0000020
  H       -4.0731050    -0.0303320     0.8832920
  H       -3.7381210    -1.5268000     0.0000420
  H       -4.0730850    -0.0304030    -0.8833370
units angstrom
no_reorient  #important for SAPT in psi4, default
symmetry c1  #important for SAPT in psi4, default
}

set PROPERTIES_ORIGIN ["COM"]
properties('MP2/aug-cc-pvtz', properties = ['dipole'])
--------------------------------------------------------------------------

    Molecular point group: c1
  Charge       = 0
  Multiplicity = 1
  Basis Set: AUG-CC-PVTZ
    Blend: AUG-CC-PVTZ
  Basis Set: (AUG-CC-PVTZ AUX)
    Blend: AUG-CC-PVTZ-JKFIT

    Orbital Energies [Eh]
    ---------------------

    Doubly Occupied:

       1A    -15.557085     2A    -11.277269     3A    -11.268724
       4A    -11.252609     5A    -11.243048     6A    -11.240518
       7A    -11.234939     8A    -11.233296     9A    -11.229989
      10A    -11.223364    11A     -1.252435    12A     -1.140936
      13A     -1.092495    14A     -1.043170    15A     -0.951436
      16A     -0.868058    17A     -0.840380    18A     -0.803222
      19A     -0.780368    20A     -0.700727    21A     -0.666147
      22A     -0.632377    23A     -0.621568    24A     -0.602146
      25A     -0.584357    26A     -0.565422    27A     -0.549800
      28A     -0.533528    29A     -0.526713    30A     -0.500959
      31A     -0.485422    32A     -0.430423    33A     -0.427013
      34A     -0.407672    35A     -0.373361    36A     -0.313670

  @DF-RHF Final Energy:  -401.75234979462118

   => Energetics <=

    Nuclear Repulsion Energy =            488.1356166572730331
    One-Electron Energy =               -1510.8666396798842015
    Two-Electron Energy =                 620.9786732279900434
    Total Energy =                       -401.7523497946211819
  Basis Set: (AUG-CC-PVTZ AUX)
    Blend: AUG-CC-PVTZ-RI
    Molecular point group: c1

    Geometry (in Angstrom), charge = 0, multiplicity = 1:

       Center              X                  Y                   Z               Mass
    ------------   -----------------  -----------------  -----------------  -----------------
         N            0.181320067322    -0.912534828431     0.000727698877    14.003074004430
         C            2.078802067322     0.571967171569     0.000726698877    12.000000000000
         C            2.957263067322    -0.405372828431    -0.746692301123    12.000000000000
         C            2.957262067322    -0.405364828431     0.748156698877    12.000000000000
         C            0.612034067322     0.364991171569     0.000726698877    12.000000000000
         C           -0.281107932678     1.445180171569     0.000727698877    12.000000000000
         C           -1.649811932678     1.197273171569     0.000730698877    12.000000000000
         C           -2.114468932678    -0.122905828431     0.000732698877    12.000000000000
         C           -1.143849932678    -1.129939828431     0.000730698877    12.000000000000
         C           -3.583310932678    -0.446606828431     0.000729698877    12.000000000000
         H            2.397819067322     1.611703171569     0.000720698877     1.007825032230
         H            3.981222367322     0.064018071569    -1.366032301123     1.007825032230
         H            2.439416067322    -1.220066828431    -1.241244301123     1.007825032230
         H            2.439417067322    -1.220054828431     1.242717698877     1.007825032230
         H            3.821906067322    -0.008998828431     1.271132698877     1.007825032230
         H            0.098107067322     2.464605171569     0.000726698877     1.007825032230
         H           -2.356858932678     2.026033171569     0.000730698877     1.007825032230
         H           -1.447781932678    -2.177604828431     0.000731698877     1.007825032230
         H           -4.078963932678    -0.031684828431     0.884021698877     1.007825032230
         H           -3.743979932678    -1.528152828431     0.000771698877     1.007825032230
         H           -4.078943932678    -0.031755828431    -0.882607301123     1.007825032230

  Basis Set: AUG-CC-PVTZ
    Blend: AUG-CC-PVTZ
  Basis Set: (AUG-CC-PVTZ AUX)
    Blend: AUG-CC-PVTZ-JKFIT
	 Reference Energy          =    -401.7523497946211819 [Eh]
	 Singles Energy            =      -0.0000000000000000 [Eh]
	 Same-Spin Energy          =      -0.4460453750002781 [Eh]
	 Opposite-Spin Energy      =      -1.4333517560216242 [Eh]
	 Correlation Energy        =      -1.8793971310219022 [Eh]
	 Total Energy              =    -403.6317469256430854 [Eh]

	 ================> DF-SCS-MP2 Energies <==================
	-----------------------------------------------------------
	 SCS Same-Spin Scale       =       0.3333333333333333 [-]
	 SCS Opposite-Spin Scale   =       1.2000000000000000 [-]
	 SCS Same-Spin Energy      =      -0.1486817916667593 [Eh]
	 SCS Opposite-Spin Energy  =      -1.7200221072259489 [Eh]
	 SCS Correlation Energy    =      -1.8687038988927083 [Eh]
	 SCS Total Energy          =    -403.6210536935138862 [Eh]
	-----------------------------------------------------------

  Dipole Moment: [D]
     X:    -1.4460      Y:     1.4495      Z:     0.0924     Total:     2.0495

*** Psi4 exiting successfully. Buy a developer a beer!
