                               Psi4 1.4a3.dev225

  ==> Input File <==

--------------------------------------------------------------------------
#psi4
#
memory 32 gb

molecule  {
0 1
  N        0.1871790    -0.9111820    -0.0000020
  C        2.0846610     0.5733200    -0.0000030
  C        2.9631220    -0.4040200    -0.7474220
  C        2.9631210    -0.4040120     0.7474270
  C        0.6115632     0.4176595    -0.0000033
  C       -0.2752490     1.4465330    -0.0000020
  C       -1.6439530     1.1986260     0.0000010
  C       -2.1086100    -0.1215530     0.0000030
  C       -1.1379910    -1.1285870     0.0000010
  C       -3.5774520    -0.4452540     0.0000000
  H        2.4036780     1.6130560    -0.0000090
  H        3.8277670    -0.0076600    -1.2704010
  H        2.4452750    -1.2187140    -1.2419740
  H        2.4452760    -1.2187020     1.2419880
  H        3.8277650    -0.0076460     1.2704030
  H        0.1039660     2.4659580    -0.0000030
  H       -2.3510000     2.0273860     0.0000010
  H       -1.4419230    -2.1762520     0.0000020
  H       -4.0731050    -0.0303320     0.8832920
  H       -3.7381210    -1.5268000     0.0000420
  H       -4.0730850    -0.0304030    -0.8833370
units angstrom
no_reorient  #important for SAPT in psi4, default
symmetry c1  #important for SAPT in psi4, default
}

set PROPERTIES_ORIGIN ["COM"]
properties('MP2/aug-cc-pvtz', properties = ['dipole'])
--------------------------------------------------------------------------

    Molecular point group: c1
  Charge       = 0
  Multiplicity = 1
  Basis Set: AUG-CC-PVTZ
    Blend: AUG-CC-PVTZ
  Basis Set: (AUG-CC-PVTZ AUX)
    Blend: AUG-CC-PVTZ-JKFIT

    Orbital Energies [Eh]
    ---------------------

    Doubly Occupied:

       1A    -15.558822     2A    -11.273794     3A    -11.268657
       4A    -11.252605     5A    -11.240073     6A    -11.231290
       7A    -11.229725     8A    -11.229421     9A    -11.221291
      10A    -11.220599    11A     -1.242025    12A     -1.139711
      13A     -1.089359    14A     -1.049213    15A     -0.950861
      16A     -0.866865    17A     -0.840561    18A     -0.814296
      19A     -0.781847    20A     -0.699004    21A     -0.668398
      22A     -0.634975    23A     -0.626182    24A     -0.604176
      25A     -0.583887    26A     -0.564449    27A     -0.550095
      28A     -0.532727    29A     -0.527075    30A     -0.503679
      31A     -0.493153    32A     -0.429448    33A     -0.426560
      34A     -0.410415    35A     -0.371401    36A     -0.314823

  @DF-RHF Final Energy:  -401.76899304846478

   => Energetics <=

    Nuclear Repulsion Energy =            488.7512968778032132
    One-Electron Energy =               -1512.1576627720230590
    Two-Electron Energy =                 621.6373728457549532
    Total Energy =                       -401.7689930484648357
  Basis Set: (AUG-CC-PVTZ AUX)
    Blend: AUG-CC-PVTZ-RI
    Molecular point group: c1

    Geometry (in Angstrom), charge = 0, multiplicity = 1:

       Center              X                  Y                   Z               Mass
    ------------   -----------------  -----------------  -----------------  -----------------
         N            0.183097210994    -0.916608666407    -0.000001973139    14.003074004430
         C            2.080579210994     0.567893333593    -0.000002973139    12.000000000000
         C            2.959040210994    -0.409446666407    -0.747421973139    12.000000000000
         C            2.959039210994    -0.409438666407     0.747427026861    12.000000000000
         C            0.607481410994     0.412232833593    -0.000003273139    12.000000000000
         C           -0.279330789006     1.441106333593    -0.000001973139    12.000000000000
         C           -1.648034789006     1.193199333593     0.000001026861    12.000000000000
         C           -2.112691789006    -0.126979666407     0.000003026861    12.000000000000
         C           -1.142072789006    -1.134013666407     0.000001026861    12.000000000000
         C           -3.581533789006    -0.450680666407     0.000000026861    12.000000000000
         H            2.399596210994     1.607629333593    -0.000008973139     1.007825032230
         H            3.823685210994    -0.013086666407    -1.270400973139     1.007825032230
         H            2.441193210994    -1.224140666407    -1.241973973139     1.007825032230
         H            2.441194210994    -1.224128666407     1.241988026861     1.007825032230
         H            3.823683210994    -0.013072666407     1.270403026861     1.007825032230
         H            0.099884210994     2.460531333593    -0.000002973139     1.007825032230
         H           -2.355081789006     2.021959333593     0.000001026861     1.007825032230
         H           -1.446004789006    -2.181678666407     0.000002026861     1.007825032230
         H           -4.077186789006    -0.035758666407     0.883292026861     1.007825032230
         H           -3.742202789006    -1.532226666407     0.000042026861     1.007825032230
         H           -4.077166789006    -0.035829666407    -0.883336973139     1.007825032230

  Basis Set: AUG-CC-PVTZ
    Blend: AUG-CC-PVTZ
  Basis Set: (AUG-CC-PVTZ AUX)
    Blend: AUG-CC-PVTZ-JKFIT
	 Reference Energy          =    -401.7689930484647789 [Eh]
	 Singles Energy            =      -0.0000000000000000 [Eh]
	 Same-Spin Energy          =      -0.4462070115220599 [Eh]
	 Opposite-Spin Energy      =      -1.4326872047658670 [Eh]
	 Correlation Energy        =      -1.8788942162879270 [Eh]
	 Total Energy              =    -403.6478872647526828 [Eh]

	 ================> DF-SCS-MP2 Energies <==================
	-----------------------------------------------------------
	 SCS Same-Spin Scale       =       0.3333333333333333 [-]
	 SCS Opposite-Spin Scale   =       1.2000000000000000 [-]
	 SCS Same-Spin Energy      =      -0.1487356705073533 [Eh]
	 SCS Opposite-Spin Energy  =      -1.7192246457190403 [Eh]
	 SCS Correlation Energy    =      -1.8679603162263936 [Eh]
	 SCS Total Energy          =    -403.6369533646911805 [Eh]
	-----------------------------------------------------------

  Dipole Moment: [D]
     X:    -1.3636      Y:     1.4339      Z:    -0.0000     Total:     1.9788

*** Psi4 exiting successfully. Buy a developer a beer!
