                               Psi4 1.4a3.dev225

  ==> Input File <==

--------------------------------------------------------------------------
#psi4
#
memory 32 gb

molecule  {
0 1
  N        0.1871790    -0.9111820    -0.0000020
  C        2.0846610     0.5733200    -0.0000030
  C        2.9631220    -0.4040200    -0.7474220
  C        2.9631210    -0.4040120     0.7474270
  C        0.6178930     0.3663440    -0.0000030
  C       -0.2752490     1.4465330    -0.0000020
  C       -1.6439530     1.1986260     0.0000010
  C       -2.1086100    -0.1215530     0.0000030
  C       -1.1379910    -1.1285870     0.0000010
  C       -3.5774520    -0.4452540     0.0000000
  H        2.4036780     1.6130560    -0.0000090
  H        3.8277670    -0.0076600    -1.2704010
  H        2.4452750    -1.2187140    -1.2419740
  H        2.4452760    -1.2187020     1.2419880
  H        3.8277650    -0.0076460     1.2704030
  H        0.1039660     2.4659580    -0.0000030
  H       -2.3510000     2.0273860     0.0000010
  H       -1.4419230    -2.1762520     0.0000020
  H       -4.0731050    -0.0303320     0.8832920
  H       -3.7381210    -1.5268000     0.0000420
  H       -4.0640286    -0.0379833    -0.8671963
units angstrom
no_reorient  #important for SAPT in psi4, default
symmetry c1  #important for SAPT in psi4, default
}

set PROPERTIES_ORIGIN ["COM"]
properties('MP2/aug-cc-pvtz', properties = ['dipole'])
--------------------------------------------------------------------------

    Molecular point group: c1
  Charge       = 0
  Multiplicity = 1
  Basis Set: AUG-CC-PVTZ
    Blend: AUG-CC-PVTZ
  Basis Set: (AUG-CC-PVTZ AUX)
    Blend: AUG-CC-PVTZ-JKFIT

    Orbital Energies [Eh]
    ---------------------

    Doubly Occupied:

       1A    -15.555636     2A    -11.276046     3A    -11.267624
       4A    -11.251614     5A    -11.239255     6A    -11.233742
       7A    -11.231328     8A    -11.226832     9A    -11.221509
      10A    -11.220816    11A     -1.251109    12A     -1.140804
      13A     -1.091723    14A     -1.042571    15A     -0.952237
      16A     -0.867542    17A     -0.840311    18A     -0.814874
      19A     -0.781320    20A     -0.701088    21A     -0.666719
      22A     -0.639281    23A     -0.626120    24A     -0.600871
      25A     -0.585992    26A     -0.564583    27A     -0.550389
      28A     -0.535822    29A     -0.527983    30A     -0.504156
      31A     -0.498775    32A     -0.429490    33A     -0.427204
      34A     -0.406305    35A     -0.372421    36A     -0.312708

  @DF-RHF Final Energy:  -401.77372853542721

   => Energetics <=

    Nuclear Repulsion Energy =            489.1056333501055065
    One-Electron Energy =               -1512.8451209153067794
    Two-Electron Energy =                 621.9657590297740626
    Total Energy =                       -401.7737285354271535
  Basis Set: (AUG-CC-PVTZ AUX)
    Blend: AUG-CC-PVTZ-RI
    Molecular point group: c1

    Geometry (in Angstrom), charge = 0, multiplicity = 1:

       Center              X                  Y                   Z               Mass
    ------------   -----------------  -----------------  -----------------  -----------------
         N            0.182457903680    -0.911924395608    -0.000124226543    14.003074004430
         C            2.079939903680     0.572577604392    -0.000125226543    12.000000000000
         C            2.958400903680    -0.404762395608    -0.747544226543    12.000000000000
         C            2.958399903680    -0.404754395608     0.747304773457    12.000000000000
         C            0.613171903680     0.365601604392    -0.000125226543    12.000000000000
         C           -0.279970096320     1.445790604392    -0.000124226543    12.000000000000
         C           -1.648674096320     1.197883604392    -0.000121226543    12.000000000000
         C           -2.113331096320    -0.122295395608    -0.000119226543    12.000000000000
         C           -1.142712096320    -1.129329395608    -0.000121226543    12.000000000000
         C           -3.582173096320    -0.445996395608    -0.000122226543    12.000000000000
         H            2.398956903680     1.612313604392    -0.000131226543     1.007825032230
         H            3.823045903680    -0.008402395608    -1.270523226543     1.007825032230
         H            2.440553903680    -1.219456395608    -1.242096226543     1.007825032230
         H            2.440554903680    -1.219444395608     1.241865773457     1.007825032230
         H            3.823043903680    -0.008388395608     1.270280773457     1.007825032230
         H            0.099244903680     2.465215604392    -0.000125226543     1.007825032230
         H           -2.355721096320     2.026643604392    -0.000121226543     1.007825032230
         H           -1.446644096320    -2.176994395608    -0.000120226543     1.007825032230
         H           -4.077826096320    -0.031074395608     0.883169773457     1.007825032230
         H           -3.742842096320    -1.527542395608    -0.000080226543     1.007825032230
         H           -4.068749696320    -0.038725695608    -0.867318526543     1.007825032230

  Basis Set: AUG-CC-PVTZ
    Blend: AUG-CC-PVTZ
  Basis Set: (AUG-CC-PVTZ AUX)
    Blend: AUG-CC-PVTZ-JKFIT
	 Reference Energy          =    -401.7737285354272103 [Eh]
	 Singles Energy            =      -0.0000000000000000 [Eh]
	 Same-Spin Energy          =      -0.4459582746286379 [Eh]
	 Opposite-Spin Energy      =      -1.4315516957360794 [Eh]
	 Correlation Energy        =      -1.8775099703647173 [Eh]
	 Total Energy              =    -403.6512385057919232 [Eh]

	 ================> DF-SCS-MP2 Energies <==================
	-----------------------------------------------------------
	 SCS Same-Spin Scale       =       0.3333333333333333 [-]
	 SCS Opposite-Spin Scale   =       1.2000000000000000 [-]
	 SCS Same-Spin Energy      =      -0.1486527582095460 [Eh]
	 SCS Opposite-Spin Energy  =      -1.7178620348832954 [Eh]
	 SCS Correlation Energy    =      -1.8665147930928414 [Eh]
	 SCS Total Energy          =    -403.6402433285200573 [Eh]
	-----------------------------------------------------------

  Dipole Moment: [D]
     X:    -1.3227      Y:     1.4569      Z:    -0.0054     Total:     1.9677

*** Psi4 exiting successfully. Buy a developer a beer!
