                               Psi4 1.4a3.dev225

  ==> Input File <==

--------------------------------------------------------------------------
#psi4
#
memory 32 gb

molecule  {
0 1
  N        0.1871790    -0.9111820    -0.0000020
  C        2.0846610     0.5733200    -0.0000030
  C        2.9631220    -0.4040200    -0.7474220
  C        2.9631210    -0.4040120     0.7474270
  C        0.6178930     0.3663440    -0.0000030
  C       -0.2752490     1.4465330    -0.0000020
  C       -1.6439530     1.1986260     0.0000010
  C       -2.1235079    -0.0709752    -0.0907799
  C       -1.1379910    -1.1285870     0.0000010
  C       -3.5774520    -0.4452540     0.0000000
  H        2.4036780     1.6130560    -0.0000090
  H        3.8277670    -0.0076600    -1.2704010
  H        2.4452750    -1.2187140    -1.2419740
  H        2.4452760    -1.2187020     1.2419880
  H        3.8277650    -0.0076460     1.2704030
  H        0.1039660     2.4659580    -0.0000030
  H       -2.3510000     2.0273860     0.0000010
  H       -1.4419230    -2.1762520     0.0000020
  H       -4.0731050    -0.0303320     0.8832920
  H       -3.7381210    -1.5268000     0.0000420
  H       -4.0730850    -0.0304030    -0.8833370
units angstrom
no_reorient  #important for SAPT in psi4, default
symmetry c1  #important for SAPT in psi4, default
}

set PROPERTIES_ORIGIN ["COM"]
properties('MP2/aug-cc-pvtz', properties = ['dipole'])
--------------------------------------------------------------------------

    Molecular point group: c1
  Charge       = 0
  Multiplicity = 1
  Basis Set: AUG-CC-PVTZ
    Blend: AUG-CC-PVTZ
  Basis Set: (AUG-CC-PVTZ AUX)
    Blend: AUG-CC-PVTZ-JKFIT

    Orbital Energies [Eh]
    ---------------------

    Doubly Occupied:

       1A    -15.557599     2A    -11.275744     3A    -11.274995
       4A    -11.246103     5A    -11.240908     6A    -11.232266
       7A    -11.230901     8A    -11.229763     9A    -11.221100
      10A    -11.220401    11A     -1.251117    12A     -1.140286
      13A     -1.096317    14A     -1.039204    15A     -0.951528
      16A     -0.861499    17A     -0.845024    18A     -0.814595
      19A     -0.779018    20A     -0.700148    21A     -0.667693
      22A     -0.638568    23A     -0.627171    24A     -0.600567
      25A     -0.584170    26A     -0.561910    27A     -0.544092
      28A     -0.537720    29A     -0.531326    30A     -0.504208
      31A     -0.502183    32A     -0.429112    33A     -0.426262
      34A     -0.404082    35A     -0.376349    36A     -0.308901

  @DF-RHF Final Energy:  -401.76726300610653

   => Energetics <=

    Nuclear Repulsion Energy =            488.8322623817023214
    One-Electron Energy =               -1512.2933905665011025
    Two-Electron Energy =                 621.6938651786922492
    Total Energy =                       -401.7672630061065320
  Basis Set: (AUG-CC-PVTZ AUX)
    Blend: AUG-CC-PVTZ-RI
    Molecular point group: c1

    Geometry (in Angstrom), charge = 0, multiplicity = 1:

       Center              X                  Y                   Z               Mass
    ------------   -----------------  -----------------  -----------------  -----------------
         N            0.183869754815    -0.916542151594     0.008183451482    14.003074004430
         C            2.081351754815     0.567959848406     0.008182451482    12.000000000000
         C            2.959812754815    -0.409380151594    -0.739236548518    12.000000000000
         C            2.959811754815    -0.409372151594     0.755612451482    12.000000000000
         C            0.614583754815     0.360983848406     0.008182451482    12.000000000000
         C           -0.278558245185     1.441172848406     0.008183451482    12.000000000000
         C           -1.647262245185     1.193265848406     0.008186451482    12.000000000000
         C           -2.126817145185    -0.076335351594    -0.082594448518    12.000000000000
         C           -1.141300245185    -1.133947151594     0.008186451482    12.000000000000
         C           -3.580761245185    -0.450614151594     0.008185451482    12.000000000000
         H            2.400368754815     1.607695848406     0.008176451482     1.007825032230
         H            3.824457754815    -0.013020151594    -1.262215548518     1.007825032230
         H            2.441965754815    -1.224074151594    -1.233788548518     1.007825032230
         H            2.441966754815    -1.224062151594     1.250173451482     1.007825032230
         H            3.824455754815    -0.013006151594     1.278588451482     1.007825032230
         H            0.100656754815     2.460597848406     0.008182451482     1.007825032230
         H           -2.354309245185     2.022025848406     0.008186451482     1.007825032230
         H           -1.445232245185    -2.181612151594     0.008187451482     1.007825032230
         H           -4.076414245185    -0.035692151594     0.891477451482     1.007825032230
         H           -3.741430245185    -1.532160151594     0.008227451482     1.007825032230
         H           -4.076394245185    -0.035763151594    -0.875151548518     1.007825032230

  Basis Set: AUG-CC-PVTZ
    Blend: AUG-CC-PVTZ
  Basis Set: (AUG-CC-PVTZ AUX)
    Blend: AUG-CC-PVTZ-JKFIT
	 Reference Energy          =    -401.7672630061065320 [Eh]
	 Singles Energy            =      -0.0000000000000000 [Eh]
	 Same-Spin Energy          =      -0.4461233474381739 [Eh]
	 Opposite-Spin Energy      =      -1.4321877819239748 [Eh]
	 Correlation Energy        =      -1.8783111293621486 [Eh]
	 Total Energy              =    -403.6455741354686779 [Eh]

	 ================> DF-SCS-MP2 Energies <==================
	-----------------------------------------------------------
	 SCS Same-Spin Scale       =       0.3333333333333333 [-]
	 SCS Opposite-Spin Scale   =       1.2000000000000000 [-]
	 SCS Same-Spin Energy      =      -0.1487077824793913 [Eh]
	 SCS Opposite-Spin Energy  =      -1.7186253383087697 [Eh]
	 SCS Correlation Energy    =      -1.8673331207881609 [Eh]
	 SCS Total Energy          =    -403.6345961268946780 [Eh]
	-----------------------------------------------------------

  Dipole Moment: [D]
     X:    -1.3269      Y:     1.3950      Z:     0.0209     Total:     1.9254

*** Psi4 exiting successfully. Buy a developer a beer!
