                               Psi4 1.4a3.dev225

  ==> Input File <==

--------------------------------------------------------------------------
#psi4
#
memory 32 gb

molecule  {
0 1
  N        0.1871790    -0.9111820    -0.0000020
  C        2.0846610     0.5733200    -0.0000030
  C        2.9631220    -0.4040200    -0.7474220
  C        2.9631210    -0.4040120     0.7474270
  C        0.5539973     0.1768253    -0.0000029
  C       -0.2752490     1.4465330    -0.0000020
  C       -1.6439530     1.1986260     0.0000010
  C       -2.1086100    -0.1215530     0.0000030
  C       -1.1379910    -1.1285870     0.0000010
  C       -3.5774520    -0.4452540     0.0000000
  H        2.4036780     1.6130560    -0.0000090
  H        3.8277670    -0.0076600    -1.2704010
  H        2.4452750    -1.2187140    -1.2419740
  H        2.4452760    -1.2187020     1.2419880
  H        3.8277650    -0.0076460     1.2704030
  H        0.1039660     2.4659580    -0.0000030
  H       -2.3510000     2.0273860     0.0000010
  H       -1.4419230    -2.1762520     0.0000020
  H       -4.0731050    -0.0303320     0.8832920
  H       -3.7381210    -1.5268000     0.0000420
  H       -4.0730850    -0.0304030    -0.8833370
units angstrom
no_reorient  #important for SAPT in psi4, default
symmetry c1  #important for SAPT in psi4, default
}

set PROPERTIES_ORIGIN ["COM"]
properties('MP2/aug-cc-pvtz', properties = ['dipole'])
--------------------------------------------------------------------------

    Molecular point group: c1
  Charge       = 0
  Multiplicity = 1
  Basis Set: AUG-CC-PVTZ
    Blend: AUG-CC-PVTZ
  Basis Set: (AUG-CC-PVTZ AUX)
    Blend: AUG-CC-PVTZ-JKFIT

    Orbital Energies [Eh]
    ---------------------

    Doubly Occupied:

       1A    -15.542184     2A    -11.272255     3A    -11.267559
       4A    -11.249296     5A    -11.243549     6A    -11.243030
       7A    -11.230900     8A    -11.228291     9A    -11.216382
      10A    -11.215687    11A     -1.320146    12A     -1.133920
      13A     -1.106293    14A     -1.026577    15A     -0.955310
      16A     -0.865008    17A     -0.836974    18A     -0.810934
      19A     -0.775614    20A     -0.708068    21A     -0.669251
      22A     -0.647804    23A     -0.625716    24A     -0.591495
      25A     -0.588187    26A     -0.571118    27A     -0.559643
      28A     -0.550876    29A     -0.529610    30A     -0.502976
      31A     -0.502969    32A     -0.427549    33A     -0.420959
      34A     -0.389932    35A     -0.377394    36A     -0.313186

  @DF-RHF Final Energy:  -401.72094367464229

   => Energetics <=

    Nuclear Repulsion Energy =            490.8449667011089446
    One-Electron Energy =               -1516.0985397193276185
    Two-Electron Energy =                 623.5326293435764455
    Total Energy =                       -401.7209436746422853
  Basis Set: (AUG-CC-PVTZ AUX)
    Blend: AUG-CC-PVTZ-RI
    Molecular point group: c1

    Geometry (in Angstrom), charge = 0, multiplicity = 1:

       Center              X                  Y                   Z               Mass
    ------------   -----------------  -----------------  -----------------  -----------------
         N            0.188287647655    -0.894893820277    -0.000002009205    14.003074004430
         C            2.085769647655     0.589608179723    -0.000003009205    12.000000000000
         C            2.964230647655    -0.387731820277    -0.747422009205    12.000000000000
         C            2.964229647655    -0.387723820277     0.747426990795    12.000000000000
         C            0.555105947655     0.193113479723    -0.000002909205    12.000000000000
         C           -0.274140352345     1.462821179723    -0.000002009205    12.000000000000
         C           -1.642844352345     1.214914179723     0.000000990795    12.000000000000
         C           -2.107501352345    -0.105264820277     0.000002990795    12.000000000000
         C           -1.136882352345    -1.112298820277     0.000000990795    12.000000000000
         C           -3.576343352345    -0.428965820277    -0.000000009205    12.000000000000
         H            2.404786647655     1.629344179723    -0.000009009205     1.007825032230
         H            3.828875647655     0.008628179723    -1.270401009205     1.007825032230
         H            2.446383647655    -1.202425820277    -1.241974009205     1.007825032230
         H            2.446384647655    -1.202413820277     1.241987990795     1.007825032230
         H            3.828873647655     0.008642179723     1.270402990795     1.007825032230
         H            0.105074647655     2.482246179723    -0.000003009205     1.007825032230
         H           -2.349891352345     2.043674179723     0.000000990795     1.007825032230
         H           -1.440814352345    -2.159963820277     0.000001990795     1.007825032230
         H           -4.071996352345    -0.014043820277     0.883291990795     1.007825032230
         H           -3.737012352345    -1.510511820277     0.000041990795     1.007825032230
         H           -4.071976352345    -0.014114820277    -0.883337009205     1.007825032230

  Basis Set: AUG-CC-PVTZ
    Blend: AUG-CC-PVTZ
  Basis Set: (AUG-CC-PVTZ AUX)
    Blend: AUG-CC-PVTZ-JKFIT
	 Reference Energy          =    -401.7209436746422853 [Eh]
	 Singles Energy            =      -0.0000000000000000 [Eh]
	 Same-Spin Energy          =      -0.4428567424081528 [Eh]
	 Opposite-Spin Energy      =      -1.4289253342264776 [Eh]
	 Correlation Energy        =      -1.8717820766346303 [Eh]
	 Total Energy              =    -403.5927257512769302 [Eh]

	 ================> DF-SCS-MP2 Energies <==================
	-----------------------------------------------------------
	 SCS Same-Spin Scale       =       0.3333333333333333 [-]
	 SCS Opposite-Spin Scale   =       1.2000000000000000 [-]
	 SCS Same-Spin Energy      =      -0.1476189141360509 [Eh]
	 SCS Opposite-Spin Energy  =      -1.7147104010717731 [Eh]
	 SCS Correlation Energy    =      -1.8623293152078240 [Eh]
	 SCS Total Energy          =    -403.5832729898501157 [Eh]
	-----------------------------------------------------------

  Dipole Moment: [D]
     X:    -1.5774      Y:     1.3898      Z:    -0.0000     Total:     2.1023

*** Psi4 exiting successfully. Buy a developer a beer!
