                               Psi4 1.4a3.dev225

  ==> Input File <==

--------------------------------------------------------------------------
#psi4
#
memory 32 gb

molecule  {
0 1
  N        0.1871790    -0.9111820    -0.0000020
  C        2.0846610     0.5733200    -0.0000030
  C        2.9631220    -0.4040200    -0.7474220
  C        2.9631210    -0.4040120     0.7474270
  C        0.6178930     0.3663440    -0.0000030
  C       -0.2752490     1.4465330    -0.0000020
  C       -1.6439530     1.1986260     0.0000010
  C       -2.1086100    -0.1215530     0.0000030
  C       -1.1379910    -1.1285870     0.0000010
  C       -3.5774520    -0.4452540     0.0000000
  H        2.4036780     1.6130560    -0.0000090
  H        3.8277670    -0.0076600    -1.2704010
  H        2.4452750    -1.2187140    -1.2419740
  H        2.4452760    -1.2187020     1.2419880
  H        3.8277650    -0.0076460     1.2704030
  H        0.1039660     2.4659580    -0.0000030
  H       -2.3510000     2.0273860     0.0000010
  H       -1.4419230    -2.1762520     0.0000020
  H       -3.9825374    -0.1061481     0.7218936
  H       -3.7381210    -1.5268000     0.0000420
  H       -4.0730850    -0.0304030    -0.8833370
units angstrom
no_reorient  #important for SAPT in psi4, default
symmetry c1  #important for SAPT in psi4, default
}

set PROPERTIES_ORIGIN ["COM"]
properties('MP2/aug-cc-pvtz', properties = ['dipole'])
--------------------------------------------------------------------------

    Molecular point group: c1
  Charge       = 0
  Multiplicity = 1
  Basis Set: AUG-CC-PVTZ
    Blend: AUG-CC-PVTZ
  Basis Set: (AUG-CC-PVTZ AUX)
    Blend: AUG-CC-PVTZ-JKFIT

    Orbital Energies [Eh]
    ---------------------

    Doubly Occupied:

       1A    -15.555231     2A    -11.275582     3A    -11.266943
       4A    -11.251329     5A    -11.238301     6A    -11.233413
       7A    -11.231044     8A    -11.221247     9A    -11.220554
      10A    -11.204638    11A     -1.250693    12A     -1.140659
      13A     -1.094474    14A     -1.045164    15A     -0.967739
      16A     -0.870132    17A     -0.843034    18A     -0.814626
      19A     -0.781838    20A     -0.701952    21A     -0.666278
      22A     -0.643319    23A     -0.626817    24A     -0.610479
      25A     -0.599926    26A     -0.564163    27A     -0.555527
      28A     -0.536974    29A     -0.527308    30A     -0.504260
      31A     -0.498156    32A     -0.429802    33A     -0.426940
      34A     -0.405983    35A     -0.372359    36A     -0.312941

  @DF-RHF Final Energy:  -401.73984326071906

   => Energetics <=

    Nuclear Repulsion Energy =            490.0111806331344724
    One-Electron Energy =               -1514.5223956138590893
    Two-Electron Energy =                 622.7713717200055044
    Total Energy =                       -401.7398432607191125
  Basis Set: (AUG-CC-PVTZ AUX)
    Blend: AUG-CC-PVTZ-RI
    Molecular point group: c1

    Geometry (in Angstrom), charge = 0, multiplicity = 1:

       Center              X                  Y                   Z               Mass
    ------------   -----------------  -----------------  -----------------  -----------------
         N            0.181840655556    -0.911407676193     0.001220198228    14.003074004430
         C            2.079322655556     0.573094323807     0.001219198228    12.000000000000
         C            2.957783655556    -0.404245676193    -0.746199801772    12.000000000000
         C            2.957782655556    -0.404237676193     0.748649198228    12.000000000000
         C            0.612554655556     0.366118323807     0.001219198228    12.000000000000
         C           -0.280587344444     1.446307323807     0.001220198228    12.000000000000
         C           -1.649291344444     1.198400323807     0.001223198228    12.000000000000
         C           -2.113948344444    -0.121778676193     0.001225198228    12.000000000000
         C           -1.143329344444    -1.128812676193     0.001223198228    12.000000000000
         C           -3.582790344444    -0.445479676193     0.001222198228    12.000000000000
         H            2.398339655556     1.612830323807     0.001213198228     1.007825032230
         H            3.822428655556    -0.007885676193    -1.269178801772     1.007825032230
         H            2.439936655556    -1.218939676193    -1.240751801772     1.007825032230
         H            2.439937655556    -1.218927676193     1.243210198228     1.007825032230
         H            3.822426655556    -0.007871676193     1.271625198228     1.007825032230
         H            0.098627655556     2.465732323807     0.001219198228     1.007825032230
         H           -2.356338344444     2.027160323807     0.001223198228     1.007825032230
         H           -1.447261344444    -2.176477676193     0.001224198228     1.007825032230
         H           -3.987875744444    -0.106373776193     0.723115798228     1.007825032230
         H           -3.743459344444    -1.527025676193     0.001264198228     1.007825032230
         H           -4.078423344444    -0.030628676193    -0.882114801772     1.007825032230

  Basis Set: AUG-CC-PVTZ
    Blend: AUG-CC-PVTZ
  Basis Set: (AUG-CC-PVTZ AUX)
    Blend: AUG-CC-PVTZ-JKFIT
	 Reference Energy          =    -401.7398432607190557 [Eh]
	 Singles Energy            =      -0.0000000000000000 [Eh]
	 Same-Spin Energy          =      -0.4460922538365443 [Eh]
	 Opposite-Spin Energy      =      -1.4310761231819709 [Eh]
	 Correlation Energy        =      -1.8771683770185152 [Eh]
	 Total Energy              =    -403.6170116377375621 [Eh]

	 ================> DF-SCS-MP2 Energies <==================
	-----------------------------------------------------------
	 SCS Same-Spin Scale       =       0.3333333333333333 [-]
	 SCS Opposite-Spin Scale   =       1.2000000000000000 [-]
	 SCS Same-Spin Energy      =      -0.1486974179455147 [Eh]
	 SCS Opposite-Spin Energy  =      -1.7172913478183649 [Eh]
	 SCS Correlation Energy    =      -1.8659887657638796 [Eh]
	 SCS Total Energy          =    -403.6058320264829149 [Eh]
	-----------------------------------------------------------

  Dipole Moment: [D]
     X:    -1.3765      Y:     1.4655      Z:     0.0341     Total:     2.0109

*** Psi4 exiting successfully. Buy a developer a beer!
