                               Psi4 1.4a3.dev225

  ==> Input File <==

--------------------------------------------------------------------------
#psi4
#
memory 32 gb

molecule  {
0 1
  N        0.1871790    -0.9111820    -0.0000020
  C        2.0846610     0.5733200    -0.0000030
  C        2.9631220    -0.4040200    -0.7474220
  C        2.9631210    -0.4040120     0.7474270
  C        0.6178930     0.3663440    -0.0000030
  C       -0.2612900     1.3504531    -0.0000020
  C       -1.6439530     1.1986260     0.0000010
  C       -2.1086100    -0.1215530     0.0000030
  C       -1.1379910    -1.1285870     0.0000010
  C       -3.5774520    -0.4452540     0.0000000
  H        2.4036780     1.6130560    -0.0000090
  H        3.8277670    -0.0076600    -1.2704010
  H        2.4452750    -1.2187140    -1.2419740
  H        2.4452760    -1.2187020     1.2419880
  H        3.8277650    -0.0076460     1.2704030
  H        0.1039660     2.4659580    -0.0000030
  H       -2.3510000     2.0273860     0.0000010
  H       -1.4419230    -2.1762520     0.0000020
  H       -4.0731050    -0.0303320     0.8832920
  H       -3.7381210    -1.5268000     0.0000420
  H       -4.0730850    -0.0304030    -0.8833370
units angstrom
no_reorient  #important for SAPT in psi4, default
symmetry c1  #important for SAPT in psi4, default
}

set PROPERTIES_ORIGIN ["COM"]
properties('MP2/aug-cc-pvtz', properties = ['dipole'])
--------------------------------------------------------------------------

    Molecular point group: c1
  Charge       = 0
  Multiplicity = 1
  Basis Set: AUG-CC-PVTZ
    Blend: AUG-CC-PVTZ
  Basis Set: (AUG-CC-PVTZ AUX)
    Blend: AUG-CC-PVTZ-JKFIT

    Orbital Energies [Eh]
    ---------------------

    Doubly Occupied:

       1A    -15.556009     2A    -11.267939     3A    -11.263776
       4A    -11.252669     5A    -11.241281     6A    -11.231421
       7A    -11.230636     8A    -11.230083     9A    -11.220477
      10A    -11.219784    11A     -1.257036    12A     -1.140372
      13A     -1.092707    14A     -1.049634    15A     -0.954376
      16A     -0.870620    17A     -0.836082    18A     -0.814099
      19A     -0.785701    20A     -0.701734    21A     -0.673491
      22A     -0.638201    23A     -0.608461    24A     -0.604985
      25A     -0.585762    26A     -0.570387    27A     -0.549161
      28A     -0.540522    29A     -0.525794    30A     -0.504445
      31A     -0.488133    32A     -0.429372    33A     -0.424142
      34A     -0.408655    35A     -0.371246    36A     -0.320249

  @DF-RHF Final Energy:  -401.76152814804607

   => Energetics <=

    Nuclear Repulsion Energy =            490.8267488441634896
    One-Electron Energy =               -1516.2576655758414290
    Two-Electron Energy =                 623.6693885836317577
    Total Energy =                       -401.7615281480460681
  Basis Set: (AUG-CC-PVTZ AUX)
    Blend: AUG-CC-PVTZ-RI
    Molecular point group: c1

    Geometry (in Angstrom), charge = 0, multiplicity = 1:

       Center              X                  Y                   Z               Mass
    ------------   -----------------  -----------------  -----------------  -----------------
         N            0.181267868773    -0.903318741507    -0.000002000189    14.003074004430
         C            2.078749868773     0.581183258493    -0.000003000189    12.000000000000
         C            2.957210868773    -0.396156741507    -0.747422000189    12.000000000000
         C            2.957209868773    -0.396148741507     0.747426999811    12.000000000000
         C            0.611981868773     0.374207258493    -0.000003000189    12.000000000000
         C           -0.267201131227     1.358316358493    -0.000002000189    12.000000000000
         C           -1.649864131227     1.206489258493     0.000000999811    12.000000000000
         C           -2.114521131227    -0.113689741507     0.000002999811    12.000000000000
         C           -1.143902131227    -1.120723741507     0.000000999811    12.000000000000
         C           -3.583363131227    -0.437390741507    -0.000000000189    12.000000000000
         H            2.397766868773     1.620919258493    -0.000009000189     1.007825032230
         H            3.821855868773     0.000203258493    -1.270401000189     1.007825032230
         H            2.439363868773    -1.210850741507    -1.241974000189     1.007825032230
         H            2.439364868773    -1.210838741507     1.241987999811     1.007825032230
         H            3.821853868773     0.000217258493     1.270402999811     1.007825032230
         H            0.098054868773     2.473821258493    -0.000003000189     1.007825032230
         H           -2.356911131227     2.035249258493     0.000000999811     1.007825032230
         H           -1.447834131227    -2.168388741507     0.000001999811     1.007825032230
         H           -4.079016131227    -0.022468741507     0.883291999811     1.007825032230
         H           -3.744032131227    -1.518936741507     0.000041999811     1.007825032230
         H           -4.078996131227    -0.022539741507    -0.883337000189     1.007825032230

  Basis Set: AUG-CC-PVTZ
    Blend: AUG-CC-PVTZ
  Basis Set: (AUG-CC-PVTZ AUX)
    Blend: AUG-CC-PVTZ-JKFIT
	 Reference Energy          =    -401.7615281480460681 [Eh]
	 Singles Energy            =      -0.0000000000000000 [Eh]
	 Same-Spin Energy          =      -0.4463914466963925 [Eh]
	 Opposite-Spin Energy      =      -1.4323315548080076 [Eh]
	 Correlation Energy        =      -1.8787230015044001 [Eh]
	 Total Energy              =    -403.6402511495504655 [Eh]

	 ================> DF-SCS-MP2 Energies <==================
	-----------------------------------------------------------
	 SCS Same-Spin Scale       =       0.3333333333333333 [-]
	 SCS Opposite-Spin Scale   =       1.2000000000000000 [-]
	 SCS Same-Spin Energy      =      -0.1487971488987975 [Eh]
	 SCS Opposite-Spin Energy  =      -1.7187978657696090 [Eh]
	 SCS Correlation Energy    =      -1.8675950146684066 [Eh]
	 SCS Total Energy          =    -403.6291231627144498 [Eh]
	-----------------------------------------------------------

  Dipole Moment: [D]
     X:    -1.4335      Y:     1.3904      Z:    -0.0000     Total:     1.9970

*** Psi4 exiting successfully. Buy a developer a beer!
