                               Psi4 1.4a3.dev225

  ==> Input File <==

--------------------------------------------------------------------------
#psi4
#
memory 32 gb

molecule  {
0 1
  N        0.1871790    -0.9111820    -0.0000020
  C        2.0846610     0.5733200    -0.0000030
  C        2.9631220    -0.4040200    -0.7474220
  C        2.9631210    -0.4040120     0.7474270
  C        0.6817887     0.5558627    -0.0000031
  C       -0.2752490     1.4465330    -0.0000020
  C       -1.6439530     1.1986260     0.0000010
  C       -2.1086100    -0.1215530     0.0000030
  C       -1.1379910    -1.1285870     0.0000010
  C       -3.5774520    -0.4452540     0.0000000
  H        2.4036780     1.6130560    -0.0000090
  H        3.8277670    -0.0076600    -1.2704010
  H        2.4452750    -1.2187140    -1.2419740
  H        2.4452760    -1.2187020     1.2419880
  H        3.8277650    -0.0076460     1.2704030
  H        0.1039660     2.4659580    -0.0000030
  H       -2.3510000     2.0273860     0.0000010
  H       -1.4419230    -2.1762520     0.0000020
  H       -4.0731050    -0.0303320     0.8832920
  H       -3.7381210    -1.5268000     0.0000420
  H       -4.0730850    -0.0304030    -0.8833370
units angstrom
no_reorient  #important for SAPT in psi4, default
symmetry c1  #important for SAPT in psi4, default
}

set PROPERTIES_ORIGIN ["COM"]
properties('MP2/aug-cc-pvtz', properties = ['dipole'])
--------------------------------------------------------------------------

    Molecular point group: c1
  Charge       = 0
  Multiplicity = 1
  Basis Set: AUG-CC-PVTZ
    Blend: AUG-CC-PVTZ
  Basis Set: (AUG-CC-PVTZ AUX)
    Blend: AUG-CC-PVTZ-JKFIT

    Orbital Energies [Eh]
    ---------------------

    Doubly Occupied:

       1A    -15.561225     2A    -11.273106     3A    -11.267167
       4A    -11.251372     5A    -11.240969     6A    -11.231566
       7A    -11.229597     8A    -11.226202     9A    -11.225528
      10A    -11.223988    11A     -1.217144    12A     -1.145743
      13A     -1.079677    14A     -1.058526    15A     -0.956523
      16A     -0.870378    17A     -0.846020    18A     -0.817985
      19A     -0.778248    20A     -0.697193    21A     -0.672857
      22A     -0.631888    23A     -0.617218    24A     -0.611846
      25A     -0.582665    26A     -0.562452    27A     -0.549962
      28A     -0.527683    29A     -0.525662    30A     -0.505352
      31A     -0.490304    32A     -0.437356    33A     -0.432553
      34A     -0.394570    35A     -0.369347    36A     -0.309091

  @DF-RHF Final Energy:  -401.72662217579932

   => Energetics <=

    Nuclear Repulsion Energy =            487.7213514804159331
    One-Electron Energy =               -1510.0580215276143008
    Two-Electron Energy =                 620.6100478713990469
    Total Energy =                       -401.7266221757993208
  Basis Set: (AUG-CC-PVTZ AUX)
    Blend: AUG-CC-PVTZ-RI
    Molecular point group: c1

    Geometry (in Angstrom), charge = 0, multiplicity = 1:

       Center              X                  Y                   Z               Mass
    ------------   -----------------  -----------------  -----------------  -----------------
         N            0.176765319896    -0.929069775431    -0.000001991172    14.003074004430
         C            2.074247319896     0.555432224569    -0.000002991172    12.000000000000
         C            2.952708319896    -0.421907775431    -0.747421991172    12.000000000000
         C            2.952707319896    -0.421899775431     0.747427008828    12.000000000000
         C            0.671375019896     0.537974924569    -0.000003091172    12.000000000000
         C           -0.285662680104     1.428645224569    -0.000001991172    12.000000000000
         C           -1.654366680104     1.180738224569     0.000001008828    12.000000000000
         C           -2.119023680104    -0.139440775431     0.000003008828    12.000000000000
         C           -1.148404680104    -1.146474775431     0.000001008828    12.000000000000
         C           -3.587865680104    -0.463141775431     0.000000008828    12.000000000000
         H            2.393264319896     1.595168224569    -0.000008991172     1.007825032230
         H            3.817353319896    -0.025547775431    -1.270400991172     1.007825032230
         H            2.434861319896    -1.236601775431    -1.241973991172     1.007825032230
         H            2.434862319896    -1.236589775431     1.241988008828     1.007825032230
         H            3.817351319896    -0.025533775431     1.270403008828     1.007825032230
         H            0.093552319896     2.448070224569    -0.000002991172     1.007825032230
         H           -2.361413680104     2.009498224569     0.000001008828     1.007825032230
         H           -1.452336680104    -2.194139775431     0.000002008828     1.007825032230
         H           -4.083518680104    -0.048219775431     0.883292008828     1.007825032230
         H           -3.748534680104    -1.544687775431     0.000042008828     1.007825032230
         H           -4.083498680104    -0.048290775431    -0.883336991172     1.007825032230

  Basis Set: AUG-CC-PVTZ
    Blend: AUG-CC-PVTZ
  Basis Set: (AUG-CC-PVTZ AUX)
    Blend: AUG-CC-PVTZ-JKFIT
	 Reference Energy          =    -401.7266221757993208 [Eh]
	 Singles Energy            =      -0.0000000000000000 [Eh]
	 Same-Spin Energy          =      -0.4480140485453428 [Eh]
	 Opposite-Spin Energy      =      -1.4387044702757643 [Eh]
	 Correlation Energy        =      -1.8867185188211071 [Eh]
	 Total Energy              =    -403.6133406946204332 [Eh]

	 ================> DF-SCS-MP2 Energies <==================
	-----------------------------------------------------------
	 SCS Same-Spin Scale       =       0.3333333333333333 [-]
	 SCS Opposite-Spin Scale   =       1.2000000000000000 [-]
	 SCS Same-Spin Energy      =      -0.1493380161817809 [Eh]
	 SCS Opposite-Spin Energy  =      -1.7264453643309172 [Eh]
	 SCS Correlation Energy    =      -1.8757833805126982 [Eh]
	 SCS Total Energy          =    -403.6024055563120214 [Eh]
	-----------------------------------------------------------

  Dipole Moment: [D]
     X:    -1.0589      Y:     1.3398      Z:    -0.0000     Total:     1.7077

*** Psi4 exiting successfully. Buy a developer a beer!
