                               Psi4 1.4a3.dev225

  ==> Input File <==

--------------------------------------------------------------------------
#psi4
#
memory 32 gb

molecule  {
0 1
  N        0.1871790    -0.9111820    -0.0000020
  C        2.0846610     0.5733200    -0.0000030
  C        2.9631220    -0.4040200    -0.7474220
  C        2.9631210    -0.4040120     0.7474270
  C        0.6178930     0.3663440    -0.0000030
  C       -0.2752490     1.4465330    -0.0000020
  C       -1.6439530     1.1986260     0.0000010
  C       -2.1086100    -0.1215530     0.0000030
  C       -1.1379910    -1.1285870     0.0000010
  C       -3.5774520    -0.4452540     0.0000000
  H        2.4036780     1.6130560    -0.0000090
  H        3.8277670    -0.0076600    -1.2704010
  H        2.4452750    -1.2187140    -1.2419740
  H        2.4452760    -1.2187020     1.2419880
  H        3.8277650    -0.0076460     1.2704030
  H        0.1039660     2.4659580    -0.0000030
  H       -2.3510000     2.0273860     0.0000010
  H       -1.4419230    -2.1762520     0.0000020
  H       -4.0731050    -0.0303320     0.8832920
  H       -3.7381210    -1.5268000     0.0000420
  H       -4.0278031    -0.0683045    -0.8026337
units angstrom
no_reorient  #important for SAPT in psi4, default
symmetry c1  #important for SAPT in psi4, default
}

set PROPERTIES_ORIGIN ["COM"]
properties('MP2/aug-cc-pvtz', properties = ['dipole'])
--------------------------------------------------------------------------

    Molecular point group: c1
  Charge       = 0
  Multiplicity = 1
  Basis Set: AUG-CC-PVTZ
    Blend: AUG-CC-PVTZ
  Basis Set: (AUG-CC-PVTZ AUX)
    Blend: AUG-CC-PVTZ-JKFIT

    Orbital Energies [Eh]
    ---------------------

    Doubly Occupied:

       1A    -15.555410     2A    -11.275767     3A    -11.267234
       4A    -11.251423     5A    -11.238755     6A    -11.233558
       7A    -11.231162     8A    -11.221355     9A    -11.220662
      10A    -11.216932    11A     -1.250863    12A     -1.140679
      13A     -1.092556    14A     -1.043364    15A     -0.958085
      16A     -0.868510    17A     -0.841437    18A     -0.814729
      19A     -0.781477    20A     -0.701320    21A     -0.666464
      22A     -0.640284    23A     -0.626155    24A     -0.601175
      25A     -0.596107    26A     -0.564333    27A     -0.553382
      28A     -0.536639    29A     -0.527607    30A     -0.504211
      31A     -0.498432    32A     -0.429620    33A     -0.427051
      34A     -0.406116    35A     -0.372356    36A     -0.312769

  @DF-RHF Final Energy:  -401.76766661429576

   => Energetics <=

    Nuclear Repulsion Energy =            489.4799834232404692
    One-Electron Energy =               -1513.5593514660129131
    Two-Electron Energy =                 622.3117014284765673
    Total Energy =                       -401.7676666142957629
  Basis Set: (AUG-CC-PVTZ AUX)
    Blend: AUG-CC-PVTZ-RI
    Molecular point group: c1

    Geometry (in Angstrom), charge = 0, multiplicity = 1:

       Center              X                  Y                   Z               Mass
    ------------   -----------------  -----------------  -----------------  -----------------
         N            0.182183584053    -0.911694786624    -0.000613130445    14.003074004430
         C            2.079665584053     0.572807213376    -0.000614130445    12.000000000000
         C            2.958126584053    -0.404532786624    -0.748033130445    12.000000000000
         C            2.958125584053    -0.404524786624     0.746815869555    12.000000000000
         C            0.612897584053     0.365831213376    -0.000614130445    12.000000000000
         C           -0.280244415947     1.446020213376    -0.000613130445    12.000000000000
         C           -1.648948415947     1.198113213376    -0.000610130445    12.000000000000
         C           -2.113605415947    -0.122065786624    -0.000608130445    12.000000000000
         C           -1.142986415947    -1.129099786624    -0.000610130445    12.000000000000
         C           -3.582447415947    -0.445766786624    -0.000611130445    12.000000000000
         H            2.398682584053     1.612543213376    -0.000620130445     1.007825032230
         H            3.822771584053    -0.008172786624    -1.271012130445     1.007825032230
         H            2.440279584053    -1.219226786624    -1.242585130445     1.007825032230
         H            2.440280584053    -1.219214786624     1.241376869555     1.007825032230
         H            3.822769584053    -0.008158786624     1.269791869555     1.007825032230
         H            0.098970584053     2.465445213376    -0.000614130445     1.007825032230
         H           -2.355995415947     2.026873213376    -0.000610130445     1.007825032230
         H           -1.446918415947    -2.176764786624    -0.000609130445     1.007825032230
         H           -4.078100415947    -0.030844786624     0.882680869555     1.007825032230
         H           -3.743116415947    -1.527312786624    -0.000569130445     1.007825032230
         H           -4.032798515947    -0.068817286624    -0.803244830445     1.007825032230

  Basis Set: AUG-CC-PVTZ
    Blend: AUG-CC-PVTZ
  Basis Set: (AUG-CC-PVTZ AUX)
    Blend: AUG-CC-PVTZ-JKFIT
	 Reference Energy          =    -401.7676666142957629 [Eh]
	 Singles Energy            =      -0.0000000000000000 [Eh]
	 Same-Spin Energy          =      -0.4459977626547048 [Eh]
	 Opposite-Spin Energy      =      -1.4312160824465470 [Eh]
	 Correlation Energy        =      -1.8772138451012519 [Eh]
	 Total Energy              =    -403.6448804593970294 [Eh]

	 ================> DF-SCS-MP2 Energies <==================
	-----------------------------------------------------------
	 SCS Same-Spin Scale       =       0.3333333333333333 [-]
	 SCS Opposite-Spin Scale   =       1.2000000000000000 [-]
	 SCS Same-Spin Energy      =      -0.1486659208849016 [Eh]
	 SCS Opposite-Spin Energy  =      -1.7174592989358564 [Eh]
	 SCS Correlation Energy    =      -1.8661252198207579 [Eh]
	 SCS Total Energy          =    -403.6337918341164936 [Eh]
	-----------------------------------------------------------

  Dipole Moment: [D]
     X:    -1.3535      Y:     1.4619      Z:    -0.0227     Total:     1.9924

*** Psi4 exiting successfully. Buy a developer a beer!
