                               Psi4 1.4a3.dev225

  ==> Input File <==

--------------------------------------------------------------------------
#psi4
#
memory 32 gb

molecule  {
0 1
  N        0.1871790    -0.9111820    -0.0000020
  C        2.0846610     0.5733200    -0.0000030
  C        2.9631220    -0.4040200    -0.7474220
  C        3.1051621    -0.3388988     0.7392378
  C        0.6178930     0.3663440    -0.0000030
  C       -0.2752490     1.4465330    -0.0000020
  C       -1.6439530     1.1986260     0.0000010
  C       -2.1086100    -0.1215530     0.0000030
  C       -1.1379910    -1.1285870     0.0000010
  C       -3.5774520    -0.4452540     0.0000000
  H        2.4036780     1.6130560    -0.0000090
  H        3.8277670    -0.0076600    -1.2704010
  H        2.4452750    -1.2187140    -1.2419740
  H        2.4452760    -1.2187020     1.2419880
  H        3.8277650    -0.0076460     1.2704030
  H        0.1039660     2.4659580    -0.0000030
  H       -2.3510000     2.0273860     0.0000010
  H       -1.4419230    -2.1762520     0.0000020
  H       -4.0731050    -0.0303320     0.8832920
  H       -3.7381210    -1.5268000     0.0000420
  H       -4.0730850    -0.0304030    -0.8833370
units angstrom
no_reorient  #important for SAPT in psi4, default
symmetry c1  #important for SAPT in psi4, default
}

set PROPERTIES_ORIGIN ["COM"]
properties('MP2/aug-cc-pvtz', properties = ['dipole'])
--------------------------------------------------------------------------

    Molecular point group: c1
  Charge       = 0
  Multiplicity = 1
  Basis Set: AUG-CC-PVTZ
    Blend: AUG-CC-PVTZ
  Basis Set: (AUG-CC-PVTZ AUX)
    Blend: AUG-CC-PVTZ-JKFIT

    Orbital Energies [Eh]
    ---------------------

    Doubly Occupied:

       1A    -15.556693     2A    -11.277725     3A    -11.268009
       4A    -11.252142     5A    -11.240204     6A    -11.234918
       7A    -11.233369     8A    -11.229667     9A    -11.225436
      10A    -11.224054    11A     -1.251194    12A     -1.134813
      13A     -1.092158    14A     -1.043288    15A     -0.952503
      16A     -0.868011    17A     -0.843438    18A     -0.824643
      19A     -0.781970    20A     -0.696883    21A     -0.671637
      22A     -0.645036    23A     -0.628213    24A     -0.599840
      25A     -0.584174    26A     -0.565589    27A     -0.549736
      28A     -0.538070    29A     -0.527764    30A     -0.499909
      31A     -0.496231    32A     -0.428299    33A     -0.416680
      34A     -0.407074    35A     -0.372925    36A     -0.312001

  @DF-RHF Final Energy:  -401.74299697525083

   => Energetics <=

    Nuclear Repulsion Energy =            487.5449188296357761
    One-Electron Energy =               -1509.6272424102517107
    Two-Electron Energy =                 620.3393266053650450
    Total Energy =                       -401.7429969752508896
  Basis Set: (AUG-CC-PVTZ AUX)
    Blend: AUG-CC-PVTZ-RI
    Molecular point group: c1

    Geometry (in Angstrom), charge = 0, multiplicity = 1:

       Center              X                  Y                   Z               Mass
    ------------   -----------------  -----------------  -----------------  -----------------
         N            0.169719330013    -0.917852737775     0.000736380066    14.003074004430
         C            2.067201330013     0.566649262225     0.000735380066    12.000000000000
         C            2.945662330013    -0.410690737775    -0.746683619934    12.000000000000
         C            3.087702430013    -0.345569537775     0.739976180066    12.000000000000
         C            0.600433330013     0.359673262225     0.000735380066    12.000000000000
         C           -0.292708669987     1.439862262225     0.000736380066    12.000000000000
         C           -1.661412669987     1.191955262225     0.000739380066    12.000000000000
         C           -2.126069669987    -0.128223737775     0.000741380066    12.000000000000
         C           -1.155450669987    -1.135257737775     0.000739380066    12.000000000000
         C           -3.594911669987    -0.451924737775     0.000738380066    12.000000000000
         H            2.386218330013     1.606385262225     0.000729380066     1.007825032230
         H            3.810307330013    -0.014330737775    -1.269662619934     1.007825032230
         H            2.427815330013    -1.225384737775    -1.241235619934     1.007825032230
         H            2.427816330013    -1.225372737775     1.242726380066     1.007825032230
         H            3.810305330013    -0.014316737775     1.271141380066     1.007825032230
         H            0.086506330013     2.459287262225     0.000735380066     1.007825032230
         H           -2.368459669987     2.020715262225     0.000739380066     1.007825032230
         H           -1.459382669987    -2.182922737775     0.000740380066     1.007825032230
         H           -4.090564669987    -0.037002737775     0.884030380066     1.007825032230
         H           -3.755580669987    -1.533470737775     0.000780380066     1.007825032230
         H           -4.090544669987    -0.037073737775    -0.882598619934     1.007825032230

  Basis Set: AUG-CC-PVTZ
    Blend: AUG-CC-PVTZ
  Basis Set: (AUG-CC-PVTZ AUX)
    Blend: AUG-CC-PVTZ-JKFIT
	 Reference Energy          =    -401.7429969752508327 [Eh]
	 Singles Energy            =      -0.0000000000000000 [Eh]
	 Same-Spin Energy          =      -0.4464414607432465 [Eh]
	 Opposite-Spin Energy      =      -1.4334171770978297 [Eh]
	 Correlation Energy        =      -1.8798586378410762 [Eh]
	 Total Energy              =    -403.6228556130919287 [Eh]

	 ================> DF-SCS-MP2 Energies <==================
	-----------------------------------------------------------
	 SCS Same-Spin Scale       =       0.3333333333333333 [-]
	 SCS Opposite-Spin Scale   =       1.2000000000000000 [-]
	 SCS Same-Spin Energy      =      -0.1488138202477488 [Eh]
	 SCS Opposite-Spin Energy  =      -1.7201006125173957 [Eh]
	 SCS Correlation Energy    =      -1.8689144327651446 [Eh]
	 SCS Total Energy          =    -403.6119114080159989 [Eh]
	-----------------------------------------------------------

  Dipole Moment: [D]
     X:    -1.3504      Y:     1.4989      Z:    -0.0446     Total:     2.0180

*** Psi4 exiting successfully. Buy a developer a beer!
