                               Psi4 1.4a3.dev225

  ==> Input File <==

--------------------------------------------------------------------------
#psi4
#
memory 32 gb

molecule  {
0 1
  N        0.1871790    -0.9111820    -0.0000020
  C        2.0846610     0.5733200    -0.0000030
  C        2.9631220    -0.4040200    -0.7474220
  C        2.9631210    -0.4040120     0.7474270
  C        0.6178930     0.3663440    -0.0000030
  C       -0.2752490     1.4465330    -0.0000020
  C       -1.7371759     1.2278229     0.0000007
  C       -2.1086100    -0.1215530     0.0000030
  C       -1.1379910    -1.1285870     0.0000010
  C       -3.5774520    -0.4452540     0.0000000
  H        2.4036780     1.6130560    -0.0000090
  H        3.8277670    -0.0076600    -1.2704010
  H        2.4452750    -1.2187140    -1.2419740
  H        2.4452760    -1.2187020     1.2419880
  H        3.8277650    -0.0076460     1.2704030
  H        0.1039660     2.4659580    -0.0000030
  H       -2.3510000     2.0273860     0.0000010
  H       -1.4419230    -2.1762520     0.0000020
  H       -4.0731050    -0.0303320     0.8832920
  H       -3.7381210    -1.5268000     0.0000420
  H       -4.0730850    -0.0304030    -0.8833370
units angstrom
no_reorient  #important for SAPT in psi4, default
symmetry c1  #important for SAPT in psi4, default
}

set PROPERTIES_ORIGIN ["COM"]
properties('MP2/aug-cc-pvtz', properties = ['dipole'])
--------------------------------------------------------------------------

    Molecular point group: c1
  Charge       = 0
  Multiplicity = 1
  Basis Set: AUG-CC-PVTZ
    Blend: AUG-CC-PVTZ
  Basis Set: (AUG-CC-PVTZ AUX)
    Blend: AUG-CC-PVTZ-JKFIT

    Orbital Energies [Eh]
    ---------------------

    Doubly Occupied:

       1A    -15.558405     2A    -11.274564     3A    -11.270808
       4A    -11.255046     5A    -11.242736     6A    -11.241786
       7A    -11.230801     8A    -11.227540     9A    -11.220645
      10A    -11.219952    11A     -1.249876    12A     -1.140042
      13A     -1.090265    14A     -1.033756    15A     -0.948606
      16A     -0.874048    17A     -0.836289    18A     -0.814215
      19A     -0.787117    20A     -0.704407    21A     -0.660617
      22A     -0.643866    23A     -0.626125    24A     -0.601742
      25A     -0.583365    26A     -0.580491    27A     -0.549351
      28A     -0.533198    29A     -0.524145    30A     -0.502788
      31A     -0.488877    32A     -0.428906    33A     -0.427601
      34A     -0.408819    35A     -0.363627    36A     -0.313181

  @DF-RHF Final Energy:  -401.75931188358902

   => Energetics <=

    Nuclear Repulsion Energy =            487.5743766050720751
    One-Electron Energy =               -1509.7521687087962619
    Two-Electron Energy =                 620.4184802201351658
    Total Energy =                       -401.7593118835890209
  Basis Set: (AUG-CC-PVTZ AUX)
    Blend: AUG-CC-PVTZ-RI
    Molecular point group: c1

    Geometry (in Angstrom), charge = 0, multiplicity = 1:

       Center              X                  Y                   Z               Mass
    ------------   -----------------  -----------------  -----------------  -----------------
         N            0.190931938355    -0.914614340038    -0.000001973139    14.003074004430
         C            2.088413938355     0.569887659962    -0.000002973139    12.000000000000
         C            2.966874938355    -0.407452340038    -0.747421973139    12.000000000000
         C            2.966873938355    -0.407444340038     0.747427026861    12.000000000000
         C            0.621645938355     0.362911659962    -0.000002973139    12.000000000000
         C           -0.271496061645     1.443100659962    -0.000001973139    12.000000000000
         C           -1.733422961645     1.224390559962     0.000000726861    12.000000000000
         C           -2.104857061645    -0.124985340038     0.000003026861    12.000000000000
         C           -1.134238061645    -1.132019340038     0.000001026861    12.000000000000
         C           -3.573699061645    -0.448686340038     0.000000026861    12.000000000000
         H            2.407430938355     1.609623659962    -0.000008973139     1.007825032230
         H            3.831519938355    -0.011092340038    -1.270400973139     1.007825032230
         H            2.449027938355    -1.222146340038    -1.241973973139     1.007825032230
         H            2.449028938355    -1.222134340038     1.241988026861     1.007825032230
         H            3.831517938355    -0.011078340038     1.270403026861     1.007825032230
         H            0.107718938355     2.462525659962    -0.000002973139     1.007825032230
         H           -2.347247061645     2.023953659962     0.000001026861     1.007825032230
         H           -1.438170061645    -2.179684340038     0.000002026861     1.007825032230
         H           -4.069352061645    -0.033764340038     0.883292026861     1.007825032230
         H           -3.734368061645    -1.530232340038     0.000042026861     1.007825032230
         H           -4.069332061645    -0.033835340038    -0.883336973139     1.007825032230

  Basis Set: AUG-CC-PVTZ
    Blend: AUG-CC-PVTZ
  Basis Set: (AUG-CC-PVTZ AUX)
    Blend: AUG-CC-PVTZ-JKFIT
	 Reference Energy          =    -401.7593118835890209 [Eh]
	 Singles Energy            =      -0.0000000000000000 [Eh]
	 Same-Spin Energy          =      -0.4463174508039252 [Eh]
	 Opposite-Spin Energy      =      -1.4331832860740046 [Eh]
	 Correlation Energy        =      -1.8795007368779297 [Eh]
	 Total Energy              =    -403.6388126204669788 [Eh]

	 ================> DF-SCS-MP2 Energies <==================
	-----------------------------------------------------------
	 SCS Same-Spin Scale       =       0.3333333333333333 [-]
	 SCS Opposite-Spin Scale   =       1.2000000000000000 [-]
	 SCS Same-Spin Energy      =      -0.1487724836013084 [Eh]
	 SCS Opposite-Spin Energy  =      -1.7198199432888055 [Eh]
	 SCS Correlation Energy    =      -1.8685924268901140 [Eh]
	 SCS Total Energy          =    -403.6279043104791526 [Eh]
	-----------------------------------------------------------

  Dipole Moment: [D]
     X:    -1.3330      Y:     1.4706      Z:    -0.0000     Total:     1.9849

*** Psi4 exiting successfully. Buy a developer a beer!
