                               Psi4 1.4a3.dev225

  ==> Input File <==

--------------------------------------------------------------------------
#psi4
#
memory 32 gb

molecule  {
0 1
  N        0.1871790    -0.9111820    -0.0000020
  C        2.0846610     0.5733200    -0.0000030
  C        2.9631220    -0.4040200    -0.7474220
  C        2.9631210    -0.4040120     0.7474270
  C        0.7169120     0.3803166    -0.0000030
  C       -0.2752490     1.4465330    -0.0000020
  C       -1.6439530     1.1986260     0.0000010
  C       -2.1086100    -0.1215530     0.0000030
  C       -1.1379910    -1.1285870     0.0000010
  C       -3.5774520    -0.4452540     0.0000000
  H        2.4036780     1.6130560    -0.0000090
  H        3.8277670    -0.0076600    -1.2704010
  H        2.4452750    -1.2187140    -1.2419740
  H        2.4452760    -1.2187020     1.2419880
  H        3.8277650    -0.0076460     1.2704030
  H        0.1039660     2.4659580    -0.0000030
  H       -2.3510000     2.0273860     0.0000010
  H       -1.4419230    -2.1762520     0.0000020
  H       -4.0731050    -0.0303320     0.8832920
  H       -3.7381210    -1.5268000     0.0000420
  H       -4.0730850    -0.0304030    -0.8833370
units angstrom
no_reorient  #important for SAPT in psi4, default
symmetry c1  #important for SAPT in psi4, default
}

set PROPERTIES_ORIGIN ["COM"]
properties('MP2/aug-cc-pvtz', properties = ['dipole'])
--------------------------------------------------------------------------

    Molecular point group: c1
  Charge       = 0
  Multiplicity = 1
  Basis Set: AUG-CC-PVTZ
    Blend: AUG-CC-PVTZ
  Basis Set: (AUG-CC-PVTZ AUX)
    Blend: AUG-CC-PVTZ-JKFIT

    Orbital Energies [Eh]
    ---------------------

    Doubly Occupied:

       1A    -15.554055     2A    -11.282902     3A    -11.264883
       4A    -11.248645     5A    -11.237303     6A    -11.236105
       7A    -11.231623     8A    -11.228752     9A    -11.228111
      10A    -11.226920    11A     -1.236281    12A     -1.152787
      13A     -1.084533    14A     -1.035923    15A     -0.956425
      16A     -0.874371    17A     -0.837225    18A     -0.821830
      19A     -0.779317    20A     -0.705461    21A     -0.667448
      22A     -0.635658    23A     -0.625196    24A     -0.599945
      25A     -0.580500    26A     -0.561581    27A     -0.548058
      28A     -0.533649    29A     -0.533629    30A     -0.506876
      31A     -0.506690    32A     -0.439218    33A     -0.432373
      34A     -0.394259    35A     -0.367389    36A     -0.300584

  @DF-RHF Final Energy:  -401.75555715815261

   => Energetics <=

    Nuclear Repulsion Energy =            488.5331718067268980
    One-Electron Energy =               -1511.6644494118945659
    Two-Electron Energy =                 621.3757204470151692
    Total Energy =                       -401.7555571581525555
  Basis Set: (AUG-CC-PVTZ AUX)
    Blend: AUG-CC-PVTZ-RI
    Molecular point group: c1

    Geometry (in Angstrom), charge = 0, multiplicity = 1:

       Center              X                  Y                   Z               Mass
    ------------   -----------------  -----------------  -----------------  -----------------
         N            0.173598423105    -0.913241639102    -0.000002000189    14.003074004430
         C            2.071080423105     0.571260360898    -0.000003000189    12.000000000000
         C            2.949541423105    -0.406079639102    -0.747422000189    12.000000000000
         C            2.949540423105    -0.406071639102     0.747426999811    12.000000000000
         C            0.703331423105     0.378256960898    -0.000003000189    12.000000000000
         C           -0.288829576895     1.444473360898    -0.000002000189    12.000000000000
         C           -1.657533576895     1.196566360898     0.000000999811    12.000000000000
         C           -2.122190576895    -0.123612639102     0.000002999811    12.000000000000
         C           -1.151571576895    -1.130646639102     0.000000999811    12.000000000000
         C           -3.591032576895    -0.447313639102    -0.000000000189    12.000000000000
         H            2.390097423105     1.610996360898    -0.000009000189     1.007825032230
         H            3.814186423105    -0.009719639102    -1.270401000189     1.007825032230
         H            2.431694423105    -1.220773639102    -1.241974000189     1.007825032230
         H            2.431695423105    -1.220761639102     1.241987999811     1.007825032230
         H            3.814184423105    -0.009705639102     1.270402999811     1.007825032230
         H            0.090385423105     2.463898360898    -0.000003000189     1.007825032230
         H           -2.364580576895     2.025326360898     0.000000999811     1.007825032230
         H           -1.455503576895    -2.178311639102     0.000001999811     1.007825032230
         H           -4.086685576895    -0.032391639102     0.883291999811     1.007825032230
         H           -3.751701576895    -1.528859639102     0.000041999811     1.007825032230
         H           -4.086665576895    -0.032462639102    -0.883337000189     1.007825032230

  Basis Set: AUG-CC-PVTZ
    Blend: AUG-CC-PVTZ
  Basis Set: (AUG-CC-PVTZ AUX)
    Blend: AUG-CC-PVTZ-JKFIT
	 Reference Energy          =    -401.7555571581526124 [Eh]
	 Singles Energy            =      -0.0000000000000000 [Eh]
	 Same-Spin Energy          =      -0.4480487701201867 [Eh]
	 Opposite-Spin Energy      =      -1.4349717992937945 [Eh]
	 Correlation Energy        =      -1.8830205694139812 [Eh]
	 Total Energy              =    -403.6385777275665987 [Eh]

	 ================> DF-SCS-MP2 Energies <==================
	-----------------------------------------------------------
	 SCS Same-Spin Scale       =       0.3333333333333333 [-]
	 SCS Opposite-Spin Scale   =       1.2000000000000000 [-]
	 SCS Same-Spin Energy      =      -0.1493495900400622 [Eh]
	 SCS Opposite-Spin Energy  =      -1.7219661591525532 [Eh]
	 SCS Correlation Energy    =      -1.8713157491926156 [Eh]
	 SCS Total Energy          =    -403.6268729073452164 [Eh]
	-----------------------------------------------------------

  Dipole Moment: [D]
     X:    -0.7955      Y:     1.4348      Z:    -0.0000     Total:     1.6406

*** Psi4 exiting successfully. Buy a developer a beer!
