                               Psi4 1.4a3.dev225

  ==> Input File <==

--------------------------------------------------------------------------
#psi4
#
memory 32 gb

molecule  {
0 1
  N        0.1871790    -0.9111820    -0.0000020
  C        2.0846610     0.5733200    -0.0000030
  C        2.9631220    -0.4040200    -0.7474220
  C        2.9631210    -0.4040120     0.7474270
  C        0.6178930     0.3663440    -0.0000030
  C       -0.2752490     1.4465330    -0.0000020
  C       -1.6439530     1.1986260     0.0000010
  C       -2.1152500    -0.1404186     0.0000030
  C       -1.1379910    -1.1285870     0.0000010
  C       -3.5774520    -0.4452540     0.0000000
  H        2.4036780     1.6130560    -0.0000090
  H        3.8277670    -0.0076600    -1.2704010
  H        2.4452750    -1.2187140    -1.2419740
  H        2.4452760    -1.2187020     1.2419880
  H        3.8277650    -0.0076460     1.2704030
  H        0.1039660     2.4659580    -0.0000030
  H       -2.3510000     2.0273860     0.0000010
  H       -1.4419230    -2.1762520     0.0000020
  H       -4.0731050    -0.0303320     0.8832920
  H       -3.7381210    -1.5268000     0.0000420
  H       -4.0730850    -0.0304030    -0.8833370
units angstrom
no_reorient  #important for SAPT in psi4, default
symmetry c1  #important for SAPT in psi4, default
}

set PROPERTIES_ORIGIN ["COM"]
properties('MP2/aug-cc-pvtz', properties = ['dipole'])
--------------------------------------------------------------------------

    Molecular point group: c1
  Charge       = 0
  Multiplicity = 1
  Basis Set: AUG-CC-PVTZ
    Blend: AUG-CC-PVTZ
  Basis Set: (AUG-CC-PVTZ AUX)
    Blend: AUG-CC-PVTZ-JKFIT

    Orbital Energies [Eh]
    ---------------------

    Doubly Occupied:

       1A    -15.555103     2A    -11.276827     3A    -11.265903
       4A    -11.254106     5A    -11.239705     6A    -11.234193
       7A    -11.231653     8A    -11.228858     9A    -11.221834
      10A    -11.221141    11A     -1.250751    12A     -1.141012
      13A     -1.090011    14A     -1.043806    15A     -0.951744
      16A     -0.868716    17A     -0.837720    18A     -0.815130
      19A     -0.781629    20A     -0.701051    21A     -0.666274
      22A     -0.639210    23A     -0.626565    24A     -0.600896
      25A     -0.584353    26A     -0.565253    27A     -0.551685
      28A     -0.535346    29A     -0.526180    30A     -0.504192
      31A     -0.497715    32A     -0.429327    33A     -0.427386
      34A     -0.406818    35A     -0.370974    36A     -0.313215

  @DF-RHF Final Energy:  -401.77302729161647

   => Energetics <=

    Nuclear Repulsion Energy =            488.9108673380006849
    One-Electron Energy =               -1512.4552259422318912
    Two-Electron Energy =                 621.7713313126147341
    Total Energy =                       -401.7730272916164722
  Basis Set: (AUG-CC-PVTZ AUX)
    Blend: AUG-CC-PVTZ-RI
    Molecular point group: c1

    Geometry (in Angstrom), charge = 0, multiplicity = 1:

       Center              X                  Y                   Z               Mass
    ------------   -----------------  -----------------  -----------------  -----------------
         N            0.183125180216    -0.910280778642    -0.000002000189    14.003074004430
         C            2.080607180216     0.574221221358    -0.000003000189    12.000000000000
         C            2.959068180216    -0.403118778642    -0.747422000189    12.000000000000
         C            2.959067180216    -0.403110778642     0.747426999811    12.000000000000
         C            0.613839180216     0.367245221358    -0.000003000189    12.000000000000
         C           -0.279302819784     1.447434221358    -0.000002000189    12.000000000000
         C           -1.648006819784     1.199527221358     0.000000999811    12.000000000000
         C           -2.119303819784    -0.139517378642     0.000002999811    12.000000000000
         C           -1.142044819784    -1.127685778642     0.000000999811    12.000000000000
         C           -3.581505819784    -0.444352778642    -0.000000000189    12.000000000000
         H            2.399624180216     1.613957221358    -0.000009000189     1.007825032230
         H            3.823713180216    -0.006758778642    -1.270401000189     1.007825032230
         H            2.441221180216    -1.217812778642    -1.241974000189     1.007825032230
         H            2.441222180216    -1.217800778642     1.241987999811     1.007825032230
         H            3.823711180216    -0.006744778642     1.270402999811     1.007825032230
         H            0.099912180216     2.466859221358    -0.000003000189     1.007825032230
         H           -2.355053819784     2.028287221358     0.000000999811     1.007825032230
         H           -1.445976819784    -2.175350778642     0.000001999811     1.007825032230
         H           -4.077158819784    -0.029430778642     0.883291999811     1.007825032230
         H           -3.742174819784    -1.525898778642     0.000041999811     1.007825032230
         H           -4.077138819784    -0.029501778642    -0.883337000189     1.007825032230

  Basis Set: AUG-CC-PVTZ
    Blend: AUG-CC-PVTZ
  Basis Set: (AUG-CC-PVTZ AUX)
    Blend: AUG-CC-PVTZ-JKFIT
	 Reference Energy          =    -401.7730272916164722 [Eh]
	 Singles Energy            =      -0.0000000000000000 [Eh]
	 Same-Spin Energy          =      -0.4459795111664949 [Eh]
	 Opposite-Spin Energy      =      -1.4317607358797568 [Eh]
	 Correlation Energy        =      -1.8777402470462516 [Eh]
	 Total Energy              =    -403.6507675386627056 [Eh]

	 ================> DF-SCS-MP2 Energies <==================
	-----------------------------------------------------------
	 SCS Same-Spin Scale       =       0.3333333333333333 [-]
	 SCS Opposite-Spin Scale   =       1.2000000000000000 [-]
	 SCS Same-Spin Energy      =      -0.1486598370554983 [Eh]
	 SCS Opposite-Spin Energy  =      -1.7181128830557082 [Eh]
	 SCS Correlation Energy    =      -1.8667727201112065 [Eh]
	 SCS Total Energy          =    -403.6398000117276865 [Eh]
	-----------------------------------------------------------

  Dipole Moment: [D]
     X:    -1.3143      Y:     1.4709      Z:    -0.0000     Total:     1.9725

*** Psi4 exiting successfully. Buy a developer a beer!
