                               Psi4 1.4a3.dev225

  ==> Input File <==

--------------------------------------------------------------------------
#psi4
#
memory 32 gb

molecule  {
0 1
  N        0.1831829    -0.8880877    -0.0000020
  C        2.0846610     0.5733200    -0.0000030
  C        2.9631220    -0.4040200    -0.7474220
  C        2.9631210    -0.4040120     0.7474270
  C        0.6178930     0.3663440    -0.0000030
  C       -0.2752490     1.4465330    -0.0000020
  C       -1.6439530     1.1986260     0.0000010
  C       -2.1086100    -0.1215530     0.0000030
  C       -1.1379910    -1.1285870     0.0000010
  C       -3.5774520    -0.4452540     0.0000000
  H        2.4036780     1.6130560    -0.0000090
  H        3.8277670    -0.0076600    -1.2704010
  H        2.4452750    -1.2187140    -1.2419740
  H        2.4452760    -1.2187020     1.2419880
  H        3.8277650    -0.0076460     1.2704030
  H        0.1039660     2.4659580    -0.0000030
  H       -2.3510000     2.0273860     0.0000010
  H       -1.4419230    -2.1762520     0.0000020
  H       -4.0731050    -0.0303320     0.8832920
  H       -3.7381210    -1.5268000     0.0000420
  H       -4.0730850    -0.0304030    -0.8833370
units angstrom
no_reorient  #important for SAPT in psi4, default
symmetry c1  #important for SAPT in psi4, default
}

set PROPERTIES_ORIGIN ["COM"]
properties('MP2/aug-cc-pvtz', properties = ['dipole'])
--------------------------------------------------------------------------

    Molecular point group: c1
  Charge       = 0
  Multiplicity = 1
  Basis Set: AUG-CC-PVTZ
    Blend: AUG-CC-PVTZ
  Basis Set: (AUG-CC-PVTZ AUX)
    Blend: AUG-CC-PVTZ-JKFIT

    Orbital Energies [Eh]
    ---------------------

    Doubly Occupied:

       1A    -15.552633     2A    -11.273570     3A    -11.267604
       4A    -11.250941     5A    -11.239456     6A    -11.233440
       7A    -11.230857     8A    -11.229171     9A    -11.221379
      10A    -11.220687    11A     -1.255799    12A     -1.140661
      13A     -1.091742    14A     -1.042310    15A     -0.951972
      16A     -0.867848    17A     -0.840488    18A     -0.814763
      19A     -0.781473    20A     -0.702191    21A     -0.667111
      22A     -0.640499    23A     -0.625986    24A     -0.601233
      25A     -0.583954    26A     -0.564732    27A     -0.549284
      28A     -0.537256    29A     -0.528541    30A     -0.504327
      31A     -0.500239    32A     -0.429103    33A     -0.426556
      34A     -0.403168    35A     -0.372161    36A     -0.313590

  @DF-RHF Final Energy:  -401.77454283914648

   => Energetics <=

    Nuclear Repulsion Energy =            489.5222896697624151
    One-Electron Energy =               -1513.6802168901172081
    Two-Electron Energy =                 622.3833843812083160
    Total Energy =                       -401.7745428391465339
  Basis Set: (AUG-CC-PVTZ AUX)
    Blend: AUG-CC-PVTZ-RI
    Molecular point group: c1

    Geometry (in Angstrom), charge = 0, multiplicity = 1:

       Center              X                  Y                   Z               Mass
    ------------   -----------------  -----------------  -----------------  -----------------
         N            0.178950836414    -0.891317381834    -0.000002000189    14.003074004430
         C            2.080428936414     0.570090318166    -0.000003000189    12.000000000000
         C            2.958889936414    -0.407249681834    -0.747422000189    12.000000000000
         C            2.958888936414    -0.407241681834     0.747426999811    12.000000000000
         C            0.613660936414     0.363114318166    -0.000003000189    12.000000000000
         C           -0.279481063586     1.443303318166    -0.000002000189    12.000000000000
         C           -1.648185063586     1.195396318166     0.000000999811    12.000000000000
         C           -2.112842063586    -0.124782681834     0.000002999811    12.000000000000
         C           -1.142223063586    -1.131816681834     0.000000999811    12.000000000000
         C           -3.581684063586    -0.448483681834    -0.000000000189    12.000000000000
         H            2.399445936414     1.609826318166    -0.000009000189     1.007825032230
         H            3.823534936414    -0.010889681834    -1.270401000189     1.007825032230
         H            2.441042936414    -1.221943681834    -1.241974000189     1.007825032230
         H            2.441043936414    -1.221931681834     1.241987999811     1.007825032230
         H            3.823532936414    -0.010875681834     1.270402999811     1.007825032230
         H            0.099733936414     2.462728318166    -0.000003000189     1.007825032230
         H           -2.355232063586     2.024156318166     0.000000999811     1.007825032230
         H           -1.446155063586    -2.179481681834     0.000001999811     1.007825032230
         H           -4.077337063586    -0.033561681834     0.883291999811     1.007825032230
         H           -3.742353063586    -1.530029681834     0.000041999811     1.007825032230
         H           -4.077317063586    -0.033632681834    -0.883337000189     1.007825032230

  Basis Set: AUG-CC-PVTZ
    Blend: AUG-CC-PVTZ
  Basis Set: (AUG-CC-PVTZ AUX)
    Blend: AUG-CC-PVTZ-JKFIT
	 Reference Energy          =    -401.7745428391464770 [Eh]
	 Singles Energy            =      -0.0000000000000000 [Eh]
	 Same-Spin Energy          =      -0.4457572823678985 [Eh]
	 Opposite-Spin Energy      =      -1.4310231637437498 [Eh]
	 Correlation Energy        =      -1.8767804461116482 [Eh]
	 Total Energy              =    -403.6513232852581154 [Eh]

	 ================> DF-SCS-MP2 Energies <==================
	-----------------------------------------------------------
	 SCS Same-Spin Scale       =       0.3333333333333333 [-]
	 SCS Opposite-Spin Scale   =       1.2000000000000000 [-]
	 SCS Same-Spin Energy      =      -0.1485857607892995 [Eh]
	 SCS Opposite-Spin Energy  =      -1.7172277964924998 [Eh]
	 SCS Correlation Energy    =      -1.8658135572817993 [Eh]
	 SCS Total Energy          =    -403.6403563964282739 [Eh]
	-----------------------------------------------------------

  Dipole Moment: [D]
     X:    -1.3133      Y:     1.4153      Z:    -0.0000     Total:     1.9307

*** Psi4 exiting successfully. Buy a developer a beer!
