                               Psi4 1.4a3.dev225

  ==> Input File <==

--------------------------------------------------------------------------
#psi4
#
memory 32 gb

molecule  {
0 1
  N        0.1871790    -0.9111820    -0.0000020
  C        2.0846610     0.5733200    -0.0000030
  C        2.9631220    -0.4040200    -0.7474220
  C        2.9631210    -0.4040120     0.7474270
  C        0.6178930     0.3663440    -0.0000030
  C       -0.2752490     1.4465330    -0.0000020
  C       -1.6439530     1.1986260     0.0000010
  C       -2.1086100    -0.1215530     0.0000030
  C       -1.1379910    -1.1285870     0.0000010
  C       -3.5774520    -0.4452540     0.0000000
  H        2.4036780     1.6130560    -0.0000090
  H        3.8277670    -0.0076600    -1.2704010
  H        2.4452750    -1.2187140    -1.2419740
  H        2.4452760    -1.2187020     1.2419880
  H        3.8277650    -0.0076460     1.2704030
  H        0.1039660     2.4659580    -0.0000030
  H       -2.3510000     2.0273860     0.0000010
  H       -1.4419230    -2.1762520     0.0000020
  H       -4.1183888     0.0075760     0.9639912
  H       -3.7381210    -1.5268000     0.0000420
  H       -4.0730850    -0.0304030    -0.8833370
units angstrom
no_reorient  #important for SAPT in psi4, default
symmetry c1  #important for SAPT in psi4, default
}

set PROPERTIES_ORIGIN ["COM"]
properties('MP2/aug-cc-pvtz', properties = ['dipole'])
--------------------------------------------------------------------------

    Molecular point group: c1
  Charge       = 0
  Multiplicity = 1
  Basis Set: AUG-CC-PVTZ
    Blend: AUG-CC-PVTZ
  Basis Set: (AUG-CC-PVTZ AUX)
    Blend: AUG-CC-PVTZ-JKFIT

    Orbital Energies [Eh]
    ---------------------

    Doubly Occupied:

       1A    -15.556134     2A    -11.276714     3A    -11.268501
       4A    -11.252124     5A    -11.241113     6A    -11.240088
       7A    -11.234151     8A    -11.231716     9A    -11.221869
      10A    -11.221176    11A     -1.251683    12A     -1.141167
      13A     -1.091268    14A     -1.042161    15A     -0.946289
      16A     -0.866692    17A     -0.839075    18A     -0.815213
      19A     -0.781340    20A     -0.701124    21A     -0.667300
      22A     -0.638862    23A     -0.626539    24A     -0.601312
      25A     -0.575640    26A     -0.565168    27A     -0.544770
      28A     -0.530864    29A     -0.528073    30A     -0.503836
      31A     -0.499471    32A     -0.429306    33A     -0.427529
      34A     -0.406733    35A     -0.372642    36A     -0.312746

  @DF-RHF Final Energy:  -401.76731669198045

   => Energetics <=

    Nuclear Repulsion Energy =            488.6087500755294855
    One-Electron Energy =               -1511.8513546594908803
    Two-Electron Energy =                 621.4752878919808836
    Total Energy =                       -401.7673166919804544
  Basis Set: (AUG-CC-PVTZ AUX)
    Blend: AUG-CC-PVTZ-RI
    Molecular point group: c1

    Geometry (in Angstrom), charge = 0, multiplicity = 1:

       Center              X                  Y                   Z               Mass
    ------------   -----------------  -----------------  -----------------  -----------------
         N            0.182869397885    -0.912268858305    -0.000613099398    14.003074004430
         C            2.080351397885     0.572233141695    -0.000614099398    12.000000000000
         C            2.958812397885    -0.405106858305    -0.748033099398    12.000000000000
         C            2.958811397885    -0.405098858305     0.746815900602    12.000000000000
         C            0.613583397885     0.365257141695    -0.000614099398    12.000000000000
         C           -0.279558602115     1.445446141695    -0.000613099398    12.000000000000
         C           -1.648262602115     1.197539141695    -0.000610099398    12.000000000000
         C           -2.112919602115    -0.122639858305    -0.000608099398    12.000000000000
         C           -1.142300602115    -1.129673858305    -0.000610099398    12.000000000000
         C           -3.581761602115    -0.446340858305    -0.000611099398    12.000000000000
         H            2.399368397885     1.611969141695    -0.000620099398     1.007825032230
         H            3.823457397885    -0.008746858305    -1.271012099398     1.007825032230
         H            2.440965397885    -1.219800858305    -1.242585099398     1.007825032230
         H            2.440966397885    -1.219788858305     1.241376900602     1.007825032230
         H            3.823455397885    -0.008732858305     1.269791900602     1.007825032230
         H            0.099656397885     2.464871141695    -0.000614099398     1.007825032230
         H           -2.355309602115     2.026299141695    -0.000610099398     1.007825032230
         H           -1.446232602115    -2.177338858305    -0.000609099398     1.007825032230
         H           -4.122698402115     0.006489141695     0.963380100602     1.007825032230
         H           -3.742430602115    -1.527886858305    -0.000569099398     1.007825032230
         H           -4.077394602115    -0.031489858305    -0.883948099398     1.007825032230

  Basis Set: AUG-CC-PVTZ
    Blend: AUG-CC-PVTZ
  Basis Set: (AUG-CC-PVTZ AUX)
    Blend: AUG-CC-PVTZ-JKFIT
	 Reference Energy          =    -401.7673166919804544 [Eh]
	 Singles Energy            =      -0.0000000000000000 [Eh]
	 Same-Spin Energy          =      -0.4459185411309752 [Eh]
	 Opposite-Spin Energy      =      -1.4323032923982375 [Eh]
	 Correlation Energy        =      -1.8782218335292127 [Eh]
	 Total Energy              =    -403.6455385255096644 [Eh]

	 ================> DF-SCS-MP2 Energies <==================
	-----------------------------------------------------------
	 SCS Same-Spin Scale       =       0.3333333333333333 [-]
	 SCS Opposite-Spin Scale   =       1.2000000000000000 [-]
	 SCS Same-Spin Energy      =      -0.1486395137103250 [Eh]
	 SCS Opposite-Spin Energy  =      -1.7187639508778849 [Eh]
	 SCS Correlation Energy    =      -1.8674034645882100 [Eh]
	 SCS Total Energy          =    -403.6347201565686760 [Eh]
	-----------------------------------------------------------

  Dipole Moment: [D]
     X:    -1.2540      Y:     1.4461      Z:    -0.0339     Total:     1.9144

*** Psi4 exiting successfully. Buy a developer a beer!
