                               Psi4 1.4a3.dev225

  ==> Input File <==

--------------------------------------------------------------------------
#psi4
#
memory 32 gb

molecule  {
0 1
  N        0.1871790    -0.9111820    -0.0000020
  C        2.0846610     0.5733200    -0.0000030
  C        2.9631220    -0.4040200    -0.7474220
  C        2.9631210    -0.4040120     0.7474270
  C        0.6178930     0.3663440    -0.0000030
  C       -0.2752490     1.4465330    -0.0000020
  C       -1.6439530     1.1986260     0.0000010
  C       -2.1086100    -0.1215530     0.0000030
  C       -1.1379910    -1.1285870     0.0000010
  C       -3.5774520    -0.4452540     0.0000000
  H        2.4036780     1.6130560    -0.0000090
  H        3.8277670    -0.0076600    -1.2704010
  H        2.4452750    -1.2187140    -1.2419740
  H        2.4452760    -1.2187020     1.2419880
  H        3.8277650    -0.0076460     1.2704030
  H        0.1039660     2.4659580    -0.0000030
  H       -2.3510000     2.0273860     0.0000010
  H       -1.4419230    -2.1762520     0.0000020
  H       -4.1636726     0.0454841     1.0446904
  H       -3.7381210    -1.5268000     0.0000420
  H       -4.0730850    -0.0304030    -0.8833370
units angstrom
no_reorient  #important for SAPT in psi4, default
symmetry c1  #important for SAPT in psi4, default
}

set PROPERTIES_ORIGIN ["COM"]
properties('MP2/aug-cc-pvtz', properties = ['dipole'])
--------------------------------------------------------------------------

    Molecular point group: c1
  Charge       = 0
  Multiplicity = 1
  Basis Set: AUG-CC-PVTZ
    Blend: AUG-CC-PVTZ
  Basis Set: (AUG-CC-PVTZ AUX)
    Blend: AUG-CC-PVTZ-JKFIT

    Orbital Energies [Eh]
    ---------------------

    Doubly Occupied:

       1A    -15.556710     2A    -11.277517     3A    -11.269517
       4A    -11.252776     5A    -11.251894     6A    -11.241218
       7A    -11.234631     8A    -11.232176     9A    -11.222297
      10A    -11.221603    11A     -1.252364    12A     -1.141633
      13A     -1.091429    14A     -1.042360    15A     -0.943406
      16A     -0.866509    17A     -0.838557    18A     -0.815614
      19A     -0.781610    20A     -0.701461    21A     -0.667981
      22A     -0.639068    23A     -0.627202    24A     -0.601925
      25A     -0.572498    26A     -0.565855    27A     -0.543156
      28A     -0.530233    29A     -0.518709    30A     -0.502539
      31A     -0.499968    32A     -0.429179    33A     -0.427794
      34A     -0.407224    35A     -0.372943    36A     -0.312881

  @DF-RHF Final Energy:  -401.75400670554217

   => Energetics <=

    Nuclear Repulsion Energy =            488.2414255449603502
    One-Electron Energy =               -1511.0819884991326489
    Two-Electron Energy =                 621.0865562486302451
    Total Energy =                       -401.7540067055421105
  Basis Set: (AUG-CC-PVTZ AUX)
    Blend: AUG-CC-PVTZ-RI
    Molecular point group: c1

    Geometry (in Angstrom), charge = 0, multiplicity = 1:

       Center              X                  Y                   Z               Mass
    ------------   -----------------  -----------------  -----------------  -----------------
         N            0.183212311995    -0.912555919514    -0.001224198606    14.003074004430
         C            2.080694311995     0.571946080486    -0.001225198606    12.000000000000
         C            2.959155311995    -0.405393919514    -0.748644198606    12.000000000000
         C            2.959154311995    -0.405385919514     0.746204801394    12.000000000000
         C            0.613926311995     0.364970080486    -0.001225198606    12.000000000000
         C           -0.279215688005     1.445159080486    -0.001224198606    12.000000000000
         C           -1.647919688005     1.197252080486    -0.001221198606    12.000000000000
         C           -2.112576688005    -0.122926919514    -0.001219198606    12.000000000000
         C           -1.141957688005    -1.129960919514    -0.001221198606    12.000000000000
         C           -3.581418688005    -0.446627919514    -0.001222198606    12.000000000000
         H            2.399711311995     1.611682080486    -0.001231198606     1.007825032230
         H            3.823800311995    -0.009033919514    -1.271623198606     1.007825032230
         H            2.441308311995    -1.220087919514    -1.243196198606     1.007825032230
         H            2.441309311995    -1.220075919514     1.240765801394     1.007825032230
         H            3.823798311995    -0.009019919514     1.269180801394     1.007825032230
         H            0.099999311995     2.464584080486    -0.001225198606     1.007825032230
         H           -2.354966688005     2.026012080486    -0.001221198606     1.007825032230
         H           -1.445889688005    -2.177625919514    -0.001220198606     1.007825032230
         H           -4.167639288005     0.044110180486     1.043468201394     1.007825032230
         H           -3.742087688005    -1.528173919514    -0.001180198606     1.007825032230
         H           -4.077051688005    -0.031776919514    -0.884559198606     1.007825032230

  Basis Set: AUG-CC-PVTZ
    Blend: AUG-CC-PVTZ
  Basis Set: (AUG-CC-PVTZ AUX)
    Blend: AUG-CC-PVTZ-JKFIT
	 Reference Energy          =    -401.7540067055421673 [Eh]
	 Singles Energy            =      -0.0000000000000000 [Eh]
	 Same-Spin Energy          =      -0.4458732728806314 [Eh]
	 Opposite-Spin Energy      =      -1.4330684354985599 [Eh]
	 Correlation Energy        =      -1.8789417083791913 [Eh]
	 Total Energy              =    -403.6329484139213832 [Eh]

	 ================> DF-SCS-MP2 Energies <==================
	-----------------------------------------------------------
	 SCS Same-Spin Scale       =       0.3333333333333333 [-]
	 SCS Opposite-Spin Scale   =       1.2000000000000000 [-]
	 SCS Same-Spin Energy      =      -0.1486244242935438 [Eh]
	 SCS Opposite-Spin Energy  =      -1.7196821225982719 [Eh]
	 SCS Correlation Energy    =      -1.8683065468918156 [Eh]
	 SCS Total Energy          =    -403.6223132524339690 [Eh]
	-----------------------------------------------------------

  Dipole Moment: [D]
     X:    -1.1757      Y:     1.4343      Z:    -0.0786     Total:     1.8563

*** Psi4 exiting successfully. Buy a developer a beer!
