                               Psi4 1.4a3.dev225

  ==> Input File <==

--------------------------------------------------------------------------
#psi4
#
memory 32 gb

molecule  {
0 1
  N        0.1871790    -0.9111820    -0.0000020
  C        2.0846610     0.5733200    -0.0000030
  C        2.9631220    -0.4040200    -0.7474220
  C        2.9631210    -0.4040120     0.7474270
  C        0.6359039     0.2645316    -0.0000024
  C       -0.2752490     1.4465330    -0.0000020
  C       -1.6439530     1.1986260     0.0000010
  C       -2.1086100    -0.1215530     0.0000030
  C       -1.1379910    -1.1285870     0.0000010
  C       -3.5774520    -0.4452540     0.0000000
  H        2.4036780     1.6130560    -0.0000090
  H        3.8277670    -0.0076600    -1.2704010
  H        2.4452750    -1.2187140    -1.2419740
  H        2.4452760    -1.2187020     1.2419880
  H        3.8277650    -0.0076460     1.2704030
  H        0.1039660     2.4659580    -0.0000030
  H       -2.3510000     2.0273860     0.0000010
  H       -1.4419230    -2.1762520     0.0000020
  H       -4.0731050    -0.0303320     0.8832920
  H       -3.7381210    -1.5268000     0.0000420
  H       -4.0730850    -0.0304030    -0.8833370
units angstrom
no_reorient  #important for SAPT in psi4, default
symmetry c1  #important for SAPT in psi4, default
}

set PROPERTIES_ORIGIN ["COM"]
properties('MP2/aug-cc-pvtz', properties = ['dipole'])
--------------------------------------------------------------------------

    Molecular point group: c1
  Charge       = 0
  Multiplicity = 1
  Basis Set: AUG-CC-PVTZ
    Blend: AUG-CC-PVTZ
  Basis Set: (AUG-CC-PVTZ AUX)
    Blend: AUG-CC-PVTZ-JKFIT

    Orbital Energies [Eh]
    ---------------------

    Doubly Occupied:

       1A    -15.548188     2A    -11.278329     3A    -11.265624
       4A    -11.248852     5A    -11.240522     6A    -11.239051
       7A    -11.231964     8A    -11.228617     9A    -11.222304
      10A    -11.221611    11A     -1.273607    12A     -1.143470
      13A     -1.096315    14A     -1.029668    15A     -0.952663
      16A     -0.868427    17A     -0.839732    18A     -0.816413
      19A     -0.778499    20A     -0.705091    21A     -0.665438
      22A     -0.647145    23A     -0.625424    24A     -0.593314
      25A     -0.584001    26A     -0.565577    27A     -0.547686
      28A     -0.543248    29A     -0.531003    30A     -0.507562
      31A     -0.505556    32A     -0.429921    33A     -0.428220
      34A     -0.392976    35A     -0.377733    36A     -0.308070

  @DF-RHF Final Energy:  -401.76413417794845

   => Energetics <=

    Nuclear Repulsion Energy =            489.6203931341419207
    One-Electron Energy =               -1513.8054124849543314
    Two-Electron Energy =                 622.4208851728639047
    Total Energy =                       -401.7641341779484492
  Basis Set: (AUG-CC-PVTZ AUX)
    Blend: AUG-CC-PVTZ-RI
    Molecular point group: c1

    Geometry (in Angstrom), charge = 0, multiplicity = 1:

       Center              X                  Y                   Z               Mass
    ------------   -----------------  -----------------  -----------------  -----------------
         N            0.180902528697    -0.902801869919    -0.000002054288    14.003074004430
         C            2.078384528697     0.581700130081    -0.000003054288    12.000000000000
         C            2.956845528697    -0.395639869919    -0.747422054288    12.000000000000
         C            2.956844528697    -0.395631869919     0.747426945712    12.000000000000
         C            0.629627428697     0.272911730081    -0.000002454288    12.000000000000
         C           -0.281525471303     1.454913130081    -0.000002054288    12.000000000000
         C           -1.650229471303     1.207006130081     0.000000945712    12.000000000000
         C           -2.114886471303    -0.113172869919     0.000002945712    12.000000000000
         C           -1.144267471303    -1.120206869919     0.000000945712    12.000000000000
         C           -3.583728471303    -0.436873869919    -0.000000054288    12.000000000000
         H            2.397401528697     1.621436130081    -0.000009054288     1.007825032230
         H            3.821490528697     0.000720130081    -1.270401054288     1.007825032230
         H            2.438998528697    -1.210333869919    -1.241974054288     1.007825032230
         H            2.438999528697    -1.210321869919     1.241987945712     1.007825032230
         H            3.821488528697     0.000734130081     1.270402945712     1.007825032230
         H            0.097689528697     2.474338130081    -0.000003054288     1.007825032230
         H           -2.357276471303     2.035766130081     0.000000945712     1.007825032230
         H           -1.448199471303    -2.167871869919     0.000001945712     1.007825032230
         H           -4.079381471303    -0.021951869919     0.883291945712     1.007825032230
         H           -3.744397471303    -1.518419869919     0.000041945712     1.007825032230
         H           -4.079361471303    -0.022022869919    -0.883337054288     1.007825032230

  Basis Set: AUG-CC-PVTZ
    Blend: AUG-CC-PVTZ
  Basis Set: (AUG-CC-PVTZ AUX)
    Blend: AUG-CC-PVTZ-JKFIT
	 Reference Energy          =    -401.7641341779484492 [Eh]
	 Singles Energy            =      -0.0000000000000000 [Eh]
	 Same-Spin Energy          =      -0.4448946765525161 [Eh]
	 Opposite-Spin Energy      =      -1.4304300468865461 [Eh]
	 Correlation Energy        =      -1.8753247234390622 [Eh]
	 Total Energy              =    -403.6394589013875134 [Eh]

	 ================> DF-SCS-MP2 Energies <==================
	-----------------------------------------------------------
	 SCS Same-Spin Scale       =       0.3333333333333333 [-]
	 SCS Opposite-Spin Scale   =       1.2000000000000000 [-]
	 SCS Same-Spin Energy      =      -0.1482982255175053 [Eh]
	 SCS Opposite-Spin Energy  =      -1.7165160562638553 [Eh]
	 SCS Correlation Energy    =      -1.8648142817813607 [Eh]
	 SCS Total Energy          =    -403.6289484597298269 [Eh]
	-----------------------------------------------------------

  Dipole Moment: [D]
     X:    -1.1673      Y:     1.4483      Z:    -0.0000     Total:     1.8601

*** Psi4 exiting successfully. Buy a developer a beer!
