                               Psi4 1.4a3.dev225

  ==> Input File <==

--------------------------------------------------------------------------
#psi4
#
memory 32 gb

molecule  {
0 1
  N        0.1871790    -0.9111820    -0.0000020
  C        2.0846610     0.5733200    -0.0000030
  C        2.9631220    -0.4040200    -0.7474220
  C        2.9631210    -0.4040120     0.7474270
  C        0.6178930     0.3663440    -0.0000030
  C       -0.2752490     1.4465330    -0.0000020
  C       -1.6439530     1.1986260     0.0000010
  C       -2.1086100    -0.1215530     0.0000030
  C       -1.1379910    -1.1285870     0.0000010
  C       -3.5774520    -0.4452540     0.0000000
  H        2.4036780     1.6130560    -0.0000090
  H        3.8277670    -0.0076600    -1.2704010
  H        2.4452750    -1.2187140    -1.2419740
  H        2.3975331    -1.2938126     1.2875842
  H        3.8277650    -0.0076460     1.2704030
  H        0.1039660     2.4659580    -0.0000030
  H       -2.3510000     2.0273860     0.0000010
  H       -1.4419230    -2.1762520     0.0000020
  H       -4.0731050    -0.0303320     0.8832920
  H       -3.7381210    -1.5268000     0.0000420
  H       -4.0730850    -0.0304030    -0.8833370
units angstrom
no_reorient  #important for SAPT in psi4, default
symmetry c1  #important for SAPT in psi4, default
}

set PROPERTIES_ORIGIN ["COM"]
properties('MP2/aug-cc-pvtz', properties = ['dipole'])
--------------------------------------------------------------------------

    Molecular point group: c1
  Charge       = 0
  Multiplicity = 1
  Basis Set: AUG-CC-PVTZ
    Blend: AUG-CC-PVTZ
  Basis Set: (AUG-CC-PVTZ AUX)
    Blend: AUG-CC-PVTZ-JKFIT

    Orbital Energies [Eh]
    ---------------------

    Doubly Occupied:

       1A    -15.555719     2A    -11.276231     3A    -11.267730
       4A    -11.251681     5A    -11.239472     6A    -11.233936
       7A    -11.232337     8A    -11.231532     9A    -11.229292
      10A    -11.221951    11A     -1.251176    12A     -1.140170
      13A     -1.091598    14A     -1.042387    15A     -0.950940
      16A     -0.867091    17A     -0.839954    18A     -0.807898
      19A     -0.779696    20A     -0.699006    21A     -0.665472
      22A     -0.638443    23A     -0.626238    24A     -0.597316
      25A     -0.583753    26A     -0.564699    27A     -0.549204
      28A     -0.535287    29A     -0.526643    30A     -0.499699
      31A     -0.493172    32A     -0.429156    33A     -0.426596
      34A     -0.406635    35A     -0.372382    36A     -0.312923

  @DF-RHF Final Energy:  -401.76644027798017

   => Energetics <=

    Nuclear Repulsion Energy =            488.6383690083889633
    One-Electron Energy =               -1511.9347910146188951
    Two-Electron Energy =                 621.5299817282497088
    Total Energy =                       -401.7664402779802231
  Basis Set: (AUG-CC-PVTZ AUX)
    Blend: AUG-CC-PVTZ-RI
    Molecular point group: c1

    Geometry (in Angstrom), charge = 0, multiplicity = 1:

       Center              X                  Y                   Z               Mass
    ------------   -----------------  -----------------  -----------------  -----------------
         N            0.182888019558    -0.911413018632    -0.000347279965    14.003074004430
         C            2.080370019558     0.573088981368    -0.000348279965    12.000000000000
         C            2.958831019558    -0.404251018632    -0.747767279965    12.000000000000
         C            2.958830019558    -0.404243018632     0.747081720035    12.000000000000
         C            0.613602019558     0.366112981368    -0.000348279965    12.000000000000
         C           -0.279539980442     1.446301981368    -0.000347279965    12.000000000000
         C           -1.648243980442     1.198394981368    -0.000344279965    12.000000000000
         C           -2.112900980442    -0.121784018632    -0.000342279965    12.000000000000
         C           -1.142281980442    -1.128818018632    -0.000344279965    12.000000000000
         C           -3.581742980442    -0.445485018632    -0.000345279965    12.000000000000
         H            2.399387019558     1.612824981368    -0.000354279965     1.007825032230
         H            3.823476019558    -0.007891018632    -1.270746279965     1.007825032230
         H            2.440984019558    -1.218945018632    -1.242319279965     1.007825032230
         H            2.393242119558    -1.294043618632     1.287238920035     1.007825032230
         H            3.823474019558    -0.007877018632     1.270057720035     1.007825032230
         H            0.099675019558     2.465726981368    -0.000348279965     1.007825032230
         H           -2.355290980442     2.027154981368    -0.000344279965     1.007825032230
         H           -1.446213980442    -2.176483018632    -0.000343279965     1.007825032230
         H           -4.077395980442    -0.030563018632     0.882946720035     1.007825032230
         H           -3.742411980442    -1.527031018632    -0.000303279965     1.007825032230
         H           -4.077375980442    -0.030634018632    -0.883682279965     1.007825032230

  Basis Set: AUG-CC-PVTZ
    Blend: AUG-CC-PVTZ
  Basis Set: (AUG-CC-PVTZ AUX)
    Blend: AUG-CC-PVTZ-JKFIT
	 Reference Energy          =    -401.7664402779801662 [Eh]
	 Singles Energy            =      -0.0000000000000000 [Eh]
	 Same-Spin Energy          =      -0.4461563921998339 [Eh]
	 Opposite-Spin Energy      =      -1.4325355491004816 [Eh]
	 Correlation Energy        =      -1.8786919413003156 [Eh]
	 Total Energy              =    -403.6451322192804696 [Eh]

	 ================> DF-SCS-MP2 Energies <==================
	-----------------------------------------------------------
	 SCS Same-Spin Scale       =       0.3333333333333333 [-]
	 SCS Opposite-Spin Scale   =       1.2000000000000000 [-]
	 SCS Same-Spin Energy      =      -0.1487187973999446 [Eh]
	 SCS Opposite-Spin Energy  =      -1.7190426589205778 [Eh]
	 SCS Correlation Energy    =      -1.8677614563205225 [Eh]
	 SCS Total Energy          =    -403.6342017343006887 [Eh]
	-----------------------------------------------------------

  Dipole Moment: [D]
     X:    -1.3221      Y:     1.4683      Z:    -0.0268     Total:     1.9760

*** Psi4 exiting successfully. Buy a developer a beer!
