                               Psi4 1.4a3.dev225

  ==> Input File <==

--------------------------------------------------------------------------
#psi4
#
memory 32 gb

molecule  {
0 1
  N        0.1871790    -0.9111820    -0.0000020
  C        2.0846610     0.5733200    -0.0000030
  C        2.9631220    -0.4040200    -0.7474220
  C        2.9631210    -0.4040120     0.7474270
  C        0.6338669     0.4137237    -0.0000030
  C       -0.2752490     1.4465330    -0.0000020
  C       -1.6439530     1.1986260     0.0000010
  C       -2.1086100    -0.1215530     0.0000030
  C       -1.1379910    -1.1285870     0.0000010
  C       -3.5774520    -0.4452540     0.0000000
  H        2.4036780     1.6130560    -0.0000090
  H        3.8277670    -0.0076600    -1.2704010
  H        2.4452750    -1.2187140    -1.2419740
  H        2.4452760    -1.2187020     1.2419880
  H        3.8277650    -0.0076460     1.2704030
  H        0.1039660     2.4659580    -0.0000030
  H       -2.3510000     2.0273860     0.0000010
  H       -1.4419230    -2.1762520     0.0000020
  H       -4.0731050    -0.0303320     0.8832920
  H       -3.7381210    -1.5268000     0.0000420
  H       -4.0730850    -0.0304030    -0.8833370
units angstrom
no_reorient  #important for SAPT in psi4, default
symmetry c1  #important for SAPT in psi4, default
}

set PROPERTIES_ORIGIN ["COM"]
properties('MP2/aug-cc-pvtz', properties = ['dipole'])
--------------------------------------------------------------------------

    Molecular point group: c1
  Charge       = 0
  Multiplicity = 1
  Basis Set: AUG-CC-PVTZ
    Blend: AUG-CC-PVTZ
  Basis Set: (AUG-CC-PVTZ AUX)
    Blend: AUG-CC-PVTZ-JKFIT

    Orbital Energies [Eh]
    ---------------------

    Doubly Occupied:

       1A    -15.558052     2A    -11.275633     3A    -11.267920
       4A    -11.251868     5A    -11.239407     6A    -11.231387
       7A    -11.231029     8A    -11.229226     9A    -11.222716
      10A    -11.222027    11A     -1.240054    12A     -1.142221
      13A     -1.088077    14A     -1.046639    15A     -0.951828
      16A     -0.867541    17A     -0.840842    18A     -0.815715
      19A     -0.781555    20A     -0.700021    21A     -0.668033
      22A     -0.634677    23A     -0.625460    24A     -0.604679
      25A     -0.583218    26A     -0.563915    27A     -0.549564
      28A     -0.532311    29A     -0.527654    30A     -0.504289
      31A     -0.497204    32A     -0.431519    33A     -0.427583
      34A     -0.407615    35A     -0.370398    36A     -0.312017

  @DF-RHF Final Energy:  -401.76866528523817

   => Energetics <=

    Nuclear Repulsion Energy =            488.6637865873883015
    One-Electron Energy =               -1511.9771133155090865
    Two-Electron Energy =                 621.5446614428825569
    Total Energy =                       -401.7686652852381712
  Basis Set: (AUG-CC-PVTZ AUX)
    Blend: AUG-CC-PVTZ-RI
    Molecular point group: c1

    Geometry (in Angstrom), charge = 0, multiplicity = 1:

       Center              X                  Y                   Z               Mass
    ------------   -----------------  -----------------  -----------------  -----------------
         N            0.181086195060    -0.916253794502    -0.000002000189    14.003074004430
         C            2.078568195060     0.568248205498    -0.000003000189    12.000000000000
         C            2.957029195060    -0.409091794502    -0.747422000189    12.000000000000
         C            2.957028195060    -0.409083794502     0.747426999811    12.000000000000
         C            0.627774095060     0.408651905498    -0.000003000189    12.000000000000
         C           -0.281341804940     1.441461205498    -0.000002000189    12.000000000000
         C           -1.650045804940     1.193554205498     0.000000999811    12.000000000000
         C           -2.114702804940    -0.126624794502     0.000002999811    12.000000000000
         C           -1.144083804940    -1.133658794502     0.000000999811    12.000000000000
         C           -3.583544804940    -0.450325794502    -0.000000000189    12.000000000000
         H            2.397585195060     1.607984205498    -0.000009000189     1.007825032230
         H            3.821674195060    -0.012731794502    -1.270401000189     1.007825032230
         H            2.439182195060    -1.223785794502    -1.241974000189     1.007825032230
         H            2.439183195060    -1.223773794502     1.241987999811     1.007825032230
         H            3.821672195060    -0.012717794502     1.270402999811     1.007825032230
         H            0.097873195060     2.460886205498    -0.000003000189     1.007825032230
         H           -2.357092804940     2.022314205498     0.000000999811     1.007825032230
         H           -1.448015804940    -2.181323794502     0.000001999811     1.007825032230
         H           -4.079197804940    -0.035403794502     0.883291999811     1.007825032230
         H           -3.744213804940    -1.531871794502     0.000041999811     1.007825032230
         H           -4.079177804940    -0.035474794502    -0.883337000189     1.007825032230

  Basis Set: AUG-CC-PVTZ
    Blend: AUG-CC-PVTZ
  Basis Set: (AUG-CC-PVTZ AUX)
    Blend: AUG-CC-PVTZ-JKFIT
	 Reference Energy          =    -401.7686652852381712 [Eh]
	 Singles Energy            =      -0.0000000000000000 [Eh]
	 Same-Spin Energy          =      -0.4465431159253199 [Eh]
	 Opposite-Spin Energy      =      -1.4330656817335605 [Eh]
	 Correlation Energy        =      -1.8796087976588804 [Eh]
	 Total Energy              =    -403.6482740828970464 [Eh]

	 ================> DF-SCS-MP2 Energies <==================
	-----------------------------------------------------------
	 SCS Same-Spin Scale       =       0.3333333333333333 [-]
	 SCS Opposite-Spin Scale   =       1.2000000000000000 [-]
	 SCS Same-Spin Energy      =      -0.1488477053084400 [Eh]
	 SCS Opposite-Spin Energy  =      -1.7196788180802727 [Eh]
	 SCS Correlation Energy    =      -1.8685265233887127 [Eh]
	 SCS Total Energy          =    -403.6371918086268806 [Eh]
	-----------------------------------------------------------

  Dipole Moment: [D]
     X:    -1.2534      Y:     1.4335      Z:    -0.0000     Total:     1.9042

*** Psi4 exiting successfully. Buy a developer a beer!
