                               Psi4 1.4a3.dev225

  ==> Input File <==

--------------------------------------------------------------------------
#psi4
#
memory 32 gb

molecule  {
0 1
  N        0.1871790    -0.9111820    -0.0000020
  C        2.0846610     0.5733200    -0.0000030
  C        2.9631220    -0.4040200    -0.7474220
  C        2.9631210    -0.4040120     0.7474270
  C        0.6178930     0.3663440    -0.0000030
  C       -0.2752490     1.4465330    -0.0000020
  C       -1.6439530     1.1986260     0.0000010
  C       -2.1086100    -0.1215530     0.0000030
  C       -1.1379910    -1.1285870     0.0000010
  C       -3.5774520    -0.4452540     0.0000000
  H        2.4036780     1.6130560    -0.0000090
  H        3.8277670    -0.0076600    -1.2704010
  H        2.4452750    -1.2187140    -1.2419740
  H        2.4452760    -1.2187020     1.2419880
  H        3.7481079    -0.0441620     1.2222228
  H        0.1039660     2.4659580    -0.0000030
  H       -2.3510000     2.0273860     0.0000010
  H       -1.4419230    -2.1762520     0.0000020
  H       -4.0731050    -0.0303320     0.8832920
  H       -3.7381210    -1.5268000     0.0000420
  H       -4.0730850    -0.0304030    -0.8833370
units angstrom
no_reorient  #important for SAPT in psi4, default
symmetry c1  #important for SAPT in psi4, default
}

set PROPERTIES_ORIGIN ["COM"]
properties('MP2/aug-cc-pvtz', properties = ['dipole'])
--------------------------------------------------------------------------

    Molecular point group: c1
  Charge       = 0
  Multiplicity = 1
  Basis Set: AUG-CC-PVTZ
    Blend: AUG-CC-PVTZ
  Basis Set: (AUG-CC-PVTZ AUX)
    Blend: AUG-CC-PVTZ-JKFIT

    Orbital Energies [Eh]
    ---------------------

    Doubly Occupied:

       1A    -15.555271     2A    -11.275800     3A    -11.267445
       4A    -11.251398     5A    -11.239055     6A    -11.233453
       7A    -11.230857     8A    -11.229036     9A    -11.220611
      10A    -11.209274    11A     -1.250812    12A     -1.141943
      13A     -1.091393    14A     -1.042441    15A     -0.951297
      16A     -0.867629    17A     -0.841497    18A     -0.825086
      19A     -0.781796    20A     -0.701923    21A     -0.668535
      22A     -0.645052    23A     -0.626753    24A     -0.600603
      25A     -0.583547    26A     -0.564527    27A     -0.549633
      28A     -0.538199    29A     -0.528631    30A     -0.508914
      31A     -0.498965    32A     -0.429622    33A     -0.426874
      34A     -0.405970    35A     -0.372167    36A     -0.312441

  @DF-RHF Final Energy:  -401.76755303362557

   => Energetics <=

    Nuclear Repulsion Energy =            489.5424839266831896
    One-Electron Energy =               -1513.6831785524341285
    Two-Electron Energy =                 622.3731415921253074
    Total Energy =                       -401.7675530336256315
  Basis Set: (AUG-CC-PVTZ AUX)
    Blend: AUG-CC-PVTZ-RI
    Molecular point group: c1

    Geometry (in Angstrom), charge = 0, multiplicity = 1:

       Center              X                  Y                   Z               Mass
    ------------   -----------------  -----------------  -----------------  -----------------
         N            0.183129691623    -0.911705278400     0.000362847072    14.003074004430
         C            2.080611691623     0.572796721600     0.000361847072    12.000000000000
         C            2.959072691623    -0.404543278400    -0.747057152928    12.000000000000
         C            2.959071691623    -0.404535278400     0.747791847072    12.000000000000
         C            0.613843691623     0.365820721600     0.000361847072    12.000000000000
         C           -0.279298308377     1.446009721600     0.000362847072    12.000000000000
         C           -1.648002308377     1.198102721600     0.000365847072    12.000000000000
         C           -2.112659308377    -0.122076278400     0.000367847072    12.000000000000
         C           -1.142040308377    -1.129110278400     0.000365847072    12.000000000000
         C           -3.581501308377    -0.445777278400     0.000364847072    12.000000000000
         H            2.399628691623     1.612532721600     0.000355847072     1.007825032230
         H            3.823717691623    -0.008183278400    -1.270036152928     1.007825032230
         H            2.441225691623    -1.219237278400    -1.241609152928     1.007825032230
         H            2.441226691623    -1.219225278400     1.242352847072     1.007825032230
         H            3.744058591623    -0.044685278400     1.222587647072     1.007825032230
         H            0.099916691623     2.465434721600     0.000361847072     1.007825032230
         H           -2.355049308377     2.026862721600     0.000365847072     1.007825032230
         H           -1.445972308377    -2.176775278400     0.000366847072     1.007825032230
         H           -4.077154308377    -0.030855278400     0.883656847072     1.007825032230
         H           -3.742170308377    -1.527323278400     0.000406847072     1.007825032230
         H           -4.077134308377    -0.030926278400    -0.882972152928     1.007825032230

  Basis Set: AUG-CC-PVTZ
    Blend: AUG-CC-PVTZ
  Basis Set: (AUG-CC-PVTZ AUX)
    Blend: AUG-CC-PVTZ-JKFIT
	 Reference Energy          =    -401.7675530336255747 [Eh]
	 Singles Energy            =      -0.0000000000000000 [Eh]
	 Same-Spin Energy          =      -0.4459449496649311 [Eh]
	 Opposite-Spin Energy      =      -1.4312638621276466 [Eh]
	 Correlation Energy        =      -1.8772088117925776 [Eh]
	 Total Energy              =    -403.6447618454181452 [Eh]

	 ================> DF-SCS-MP2 Energies <==================
	-----------------------------------------------------------
	 SCS Same-Spin Scale       =       0.3333333333333333 [-]
	 SCS Opposite-Spin Scale   =       1.2000000000000000 [-]
	 SCS Same-Spin Energy      =      -0.1486483165549770 [Eh]
	 SCS Opposite-Spin Energy  =      -1.7175166345531758 [Eh]
	 SCS Correlation Energy    =      -1.8661649511081528 [Eh]
	 SCS Total Energy          =    -403.6337179847337211 [Eh]
	-----------------------------------------------------------

  Dipole Moment: [D]
     X:    -1.2764      Y:     1.4547      Z:     0.0270     Total:     1.9355

*** Psi4 exiting successfully. Buy a developer a beer!
