                               Psi4 1.4a3.dev225

  ==> Input File <==

--------------------------------------------------------------------------
#psi4
#
memory 32 gb

molecule  {
0 1
  N        0.1871790    -0.9111820    -0.0000020
  C        2.0846610     0.5733200    -0.0000030
  C        2.9631220    -0.4040200    -0.7474220
  C        2.9631210    -0.4040120     0.7474270
  C        0.6178930     0.3663440    -0.0000030
  C       -0.3086602     1.5882435    -0.0000020
  C       -1.6439530     1.1986260     0.0000010
  C       -2.1086100    -0.1215530     0.0000030
  C       -1.1379910    -1.1285870     0.0000010
  C       -3.5774520    -0.4452540     0.0000000
  H        2.4036780     1.6130560    -0.0000090
  H        3.8277670    -0.0076600    -1.2704010
  H        2.4452750    -1.2187140    -1.2419740
  H        2.4452760    -1.2187020     1.2419880
  H        3.8277650    -0.0076460     1.2704030
  H        0.1039660     2.4659580    -0.0000030
  H       -2.3510000     2.0273860     0.0000010
  H       -1.4419230    -2.1762520     0.0000020
  H       -4.0731050    -0.0303320     0.8832920
  H       -3.7381210    -1.5268000     0.0000420
  H       -4.0730850    -0.0304030    -0.8833370
units angstrom
no_reorient  #important for SAPT in psi4, default
symmetry c1  #important for SAPT in psi4, default
}

set PROPERTIES_ORIGIN ["COM"]
properties('MP2/aug-cc-pvtz', properties = ['dipole'])
--------------------------------------------------------------------------

    Molecular point group: c1
  Charge       = 0
  Multiplicity = 1
  Basis Set: AUG-CC-PVTZ
    Blend: AUG-CC-PVTZ
  Basis Set: (AUG-CC-PVTZ AUX)
    Blend: AUG-CC-PVTZ-JKFIT

    Orbital Energies [Eh]
    ---------------------

    Doubly Occupied:

       1A    -15.555979     2A    -11.292522     3A    -11.268319
       4A    -11.252577     5A    -11.238357     6A    -11.237641
       7A    -11.232999     8A    -11.228437     9A    -11.223619
      10A    -11.222926    11A     -1.246072    12A     -1.142131
      13A     -1.090562    14A     -1.034937    15A     -0.947630
      16A     -0.864291    17A     -0.851998    18A     -0.816534
      19A     -0.773891    20A     -0.699333    21A     -0.673188
      22A     -0.652438    23A     -0.638335    24A     -0.590676
      25A     -0.581632    26A     -0.555991    27A     -0.546044
      28A     -0.532467    29A     -0.530776    30A     -0.505559
      31A     -0.503758    32A     -0.430241    33A     -0.429991
      34A     -0.398661    35A     -0.375794    36A     -0.303643

  @DF-RHF Final Energy:  -401.74584850717662

   => Energetics <=

    Nuclear Repulsion Energy =            486.5113944815709601
    One-Electron Energy =               -1507.5745836988153314
    Two-Electron Energy =                 619.3173407100678105
    Total Energy =                       -401.7458485071765608
  Basis Set: (AUG-CC-PVTZ AUX)
    Blend: AUG-CC-PVTZ-RI
    Molecular point group: c1

    Geometry (in Angstrom), charge = 0, multiplicity = 1:

       Center              X                  Y                   Z               Mass
    ------------   -----------------  -----------------  -----------------  -----------------
         N            0.185539008853    -0.924759143026    -0.000002000189    14.003074004430
         C            2.083021008853     0.559742856974    -0.000003000189    12.000000000000
         C            2.961482008853    -0.417597143026    -0.747422000189    12.000000000000
         C            2.961481008853    -0.417589143026     0.747426999811    12.000000000000
         C            0.616253008853     0.352766856974    -0.000003000189    12.000000000000
         C           -0.310300191147     1.574666356974    -0.000002000189    12.000000000000
         C           -1.645592991147     1.185048856974     0.000000999811    12.000000000000
         C           -2.110249991147    -0.135130143026     0.000002999811    12.000000000000
         C           -1.139630991147    -1.142164143026     0.000000999811    12.000000000000
         C           -3.579091991147    -0.458831143026    -0.000000000189    12.000000000000
         H            2.402038008853     1.599478856974    -0.000009000189     1.007825032230
         H            3.826127008853    -0.021237143026    -1.270401000189     1.007825032230
         H            2.443635008853    -1.232291143026    -1.241974000189     1.007825032230
         H            2.443636008853    -1.232279143026     1.241987999811     1.007825032230
         H            3.826125008853    -0.021223143026     1.270402999811     1.007825032230
         H            0.102326008853     2.452380856974    -0.000003000189     1.007825032230
         H           -2.352639991147     2.013808856974     0.000000999811     1.007825032230
         H           -1.443562991147    -2.189829143026     0.000001999811     1.007825032230
         H           -4.074744991147    -0.043909143026     0.883291999811     1.007825032230
         H           -3.739760991147    -1.540377143026     0.000041999811     1.007825032230
         H           -4.074724991147    -0.043980143026    -0.883337000189     1.007825032230

  Basis Set: AUG-CC-PVTZ
    Blend: AUG-CC-PVTZ
  Basis Set: (AUG-CC-PVTZ AUX)
    Blend: AUG-CC-PVTZ-JKFIT
	 Reference Energy          =    -401.7458485071766177 [Eh]
	 Singles Energy            =      -0.0000000000000000 [Eh]
	 Same-Spin Energy          =      -0.4458010885689958 [Eh]
	 Opposite-Spin Energy      =      -1.4329856547609923 [Eh]
	 Correlation Energy        =      -1.8787867433299881 [Eh]
	 Total Energy              =    -403.6246352505066284 [Eh]

	 ================> DF-SCS-MP2 Energies <==================
	-----------------------------------------------------------
	 SCS Same-Spin Scale       =       0.3333333333333333 [-]
	 SCS Opposite-Spin Scale   =       1.2000000000000000 [-]
	 SCS Same-Spin Energy      =      -0.1486003628563319 [Eh]
	 SCS Opposite-Spin Energy  =      -1.7195827857131907 [Eh]
	 SCS Correlation Energy    =      -1.8681831485695226 [Eh]
	 SCS Total Energy          =    -403.6140316557461460 [Eh]
	-----------------------------------------------------------

  Dipole Moment: [D]
     X:    -1.1524      Y:     1.4559      Z:    -0.0000     Total:     1.8568

*** Psi4 exiting successfully. Buy a developer a beer!
