                               Psi4 1.4a3.dev225

  ==> Input File <==

--------------------------------------------------------------------------
#psi4
#
memory 32 gb

molecule  {
0 1
  N        0.1871790    -0.9111820    -0.0000020
  C        2.1279010     0.6002910     0.0136874
  C        2.9631220    -0.4040200    -0.7474220
  C        2.9631210    -0.4040120     0.7474270
  C        0.6178930     0.3663440    -0.0000030
  C       -0.2752490     1.4465330    -0.0000020
  C       -1.6439530     1.1986260     0.0000010
  C       -2.1086100    -0.1215530     0.0000030
  C       -1.1379910    -1.1285870     0.0000010
  C       -3.5774520    -0.4452540     0.0000000
  H        2.4036780     1.6130560    -0.0000090
  H        3.8277670    -0.0076600    -1.2704010
  H        2.4452750    -1.2187140    -1.2419740
  H        2.4452760    -1.2187020     1.2419880
  H        3.8277650    -0.0076460     1.2704030
  H        0.1039660     2.4659580    -0.0000030
  H       -2.3510000     2.0273860     0.0000010
  H       -1.4419230    -2.1762520     0.0000020
  H       -4.0731050    -0.0303320     0.8832920
  H       -3.7381210    -1.5268000     0.0000420
  H       -4.0730850    -0.0304030    -0.8833370
units angstrom
no_reorient  #important for SAPT in psi4, default
symmetry c1  #important for SAPT in psi4, default
}

set PROPERTIES_ORIGIN ["COM"]
properties('MP2/aug-cc-pvtz', properties = ['dipole'])
--------------------------------------------------------------------------

    Molecular point group: c1
  Charge       = 0
  Multiplicity = 1
  Basis Set: AUG-CC-PVTZ
    Blend: AUG-CC-PVTZ
  Basis Set: (AUG-CC-PVTZ AUX)
    Blend: AUG-CC-PVTZ-JKFIT

    Orbital Energies [Eh]
    ---------------------

    Doubly Occupied:

       1A    -15.556285     2A    -11.278101     3A    -11.267899
       4A    -11.251533     5A    -11.239455     6A    -11.233575
       7A    -11.230833     8A    -11.229275     9A    -11.220471
      10A    -11.219737    11A     -1.249829    12A     -1.141572
      13A     -1.091677    14A     -1.041277    15A     -0.948247
      16A     -0.866228    17A     -0.837160    18A     -0.814846
      19A     -0.784972    20A     -0.701040    21A     -0.665671
      22A     -0.640338    23A     -0.625394    24A     -0.604937
      25A     -0.583589    26A     -0.564905    27A     -0.549092
      28A     -0.533119    29A     -0.528296    30A     -0.504316
      31A     -0.496664    32A     -0.431011    33A     -0.425712
      34A     -0.404758    35A     -0.372336    36A     -0.314484

  @DF-RHF Final Energy:  -401.77155989031718

   => Energetics <=

    Nuclear Repulsion Energy =            488.3454512304512605
    One-Electron Energy =               -1511.3367525001424383
    Two-Electron Energy =                 621.2197413793739997
    Total Energy =                       -401.7715598903171212
  Basis Set: (AUG-CC-PVTZ AUX)
    Blend: AUG-CC-PVTZ-RI
    Molecular point group: c1

    Geometry (in Angstrom), charge = 0, multiplicity = 1:

       Center              X                  Y                   Z               Mass
    ------------   -----------------  -----------------  -----------------  -----------------
         N            0.178627743702    -0.914413641483    -0.001236396838    14.003074004430
         C            2.119349743702     0.597059358517     0.012453003162    12.000000000000
         C            2.954570743702    -0.407251641483    -0.748656396838    12.000000000000
         C            2.954569743702    -0.407243641483     0.746192603162    12.000000000000
         C            0.609341743702     0.363112358517    -0.001237396838    12.000000000000
         C           -0.283800256298     1.443301358517    -0.001236396838    12.000000000000
         C           -1.652504256298     1.195394358517    -0.001233396838    12.000000000000
         C           -2.117161256298    -0.124784641483    -0.001231396838    12.000000000000
         C           -1.146542256298    -1.131818641483    -0.001233396838    12.000000000000
         C           -3.586003256298    -0.448485641483    -0.001234396838    12.000000000000
         H            2.395126743702     1.609824358517    -0.001243396838     1.007825032230
         H            3.819215743702    -0.010891641483    -1.271635396838     1.007825032230
         H            2.436723743702    -1.221945641483    -1.243208396838     1.007825032230
         H            2.436724743702    -1.221933641483     1.240753603162     1.007825032230
         H            3.819213743702    -0.010877641483     1.269168603162     1.007825032230
         H            0.095414743702     2.462726358517    -0.001237396838     1.007825032230
         H           -2.359551256298     2.024154358517    -0.001233396838     1.007825032230
         H           -1.450474256298    -2.179483641483    -0.001232396838     1.007825032230
         H           -4.081656256298    -0.033563641483     0.882057603162     1.007825032230
         H           -3.746672256298    -1.530031641483    -0.001192396838     1.007825032230
         H           -4.081636256298    -0.033634641483    -0.884571396838     1.007825032230

  Basis Set: AUG-CC-PVTZ
    Blend: AUG-CC-PVTZ
  Basis Set: (AUG-CC-PVTZ AUX)
    Blend: AUG-CC-PVTZ-JKFIT
	 Reference Energy          =    -401.7715598903171781 [Eh]
	 Singles Energy            =      -0.0000000000000000 [Eh]
	 Same-Spin Energy          =      -0.4455939677180165 [Eh]
	 Opposite-Spin Energy      =      -1.4312532683764378 [Eh]
	 Correlation Energy        =      -1.8768472360944544 [Eh]
	 Total Energy              =    -403.6484071264116551 [Eh]

	 ================> DF-SCS-MP2 Energies <==================
	-----------------------------------------------------------
	 SCS Same-Spin Scale       =       0.3333333333333333 [-]
	 SCS Opposite-Spin Scale   =       1.2000000000000000 [-]
	 SCS Same-Spin Energy      =      -0.1485313225726722 [Eh]
	 SCS Opposite-Spin Energy  =      -1.7175039220517254 [Eh]
	 SCS Correlation Energy    =      -1.8660352446243975 [Eh]
	 SCS Total Energy          =    -403.6375951349415914 [Eh]
	-----------------------------------------------------------

  Dipole Moment: [D]
     X:    -1.3541      Y:     1.4750      Z:     0.0077     Total:     2.0024

*** Psi4 exiting successfully. Buy a developer a beer!
