                               Psi4 1.4a3.dev225

  ==> Input File <==

--------------------------------------------------------------------------
#psi4
#
memory 32 gb

molecule  {
0 1
  N        0.1871790    -0.9111820    -0.0000020
  C        2.0846610     0.5733200    -0.0000030
  C        2.9631220    -0.4040200    -0.7474220
  C        3.0579113    -0.3605591     0.7437855
  C        0.6178930     0.3663440    -0.0000030
  C       -0.2752490     1.4465330    -0.0000020
  C       -1.6439530     1.1986260     0.0000010
  C       -2.1086100    -0.1215530     0.0000030
  C       -1.1379910    -1.1285870     0.0000010
  C       -3.5774520    -0.4452540     0.0000000
  H        2.4036780     1.6130560    -0.0000090
  H        3.8277670    -0.0076600    -1.2704010
  H        2.4452750    -1.2187140    -1.2419740
  H        2.4452760    -1.2187020     1.2419880
  H        3.8277650    -0.0076460     1.2704030
  H        0.1039660     2.4659580    -0.0000030
  H       -2.3510000     2.0273860     0.0000010
  H       -1.4419230    -2.1762520     0.0000020
  H       -4.0731050    -0.0303320     0.8832920
  H       -3.7381210    -1.5268000     0.0000420
  H       -4.0730850    -0.0304030    -0.8833370
units angstrom
no_reorient  #important for SAPT in psi4, default
symmetry c1  #important for SAPT in psi4, default
}

set PROPERTIES_ORIGIN ["COM"]
properties('MP2/aug-cc-pvtz', properties = ['dipole'])
--------------------------------------------------------------------------

    Molecular point group: c1
  Charge       = 0
  Multiplicity = 1
  Basis Set: AUG-CC-PVTZ
    Blend: AUG-CC-PVTZ
  Basis Set: (AUG-CC-PVTZ AUX)
    Blend: AUG-CC-PVTZ-JKFIT

    Orbital Energies [Eh]
    ---------------------

    Doubly Occupied:

       1A    -15.556284     2A    -11.277093     3A    -11.267848
       4A    -11.251924     5A    -11.239876     6A    -11.234475
       7A    -11.232345     8A    -11.229490     9A    -11.223580
      10A    -11.222424    11A     -1.251072    12A     -1.136580
      13A     -1.091903    14A     -1.042923    15A     -0.951903
      16A     -0.867571    17A     -0.841676    18A     -0.819710
      19A     -0.781422    20A     -0.698330    21A     -0.668733
      22A     -0.644035    23A     -0.627553    24A     -0.598595
      25A     -0.583997    26A     -0.565247    27A     -0.549646
      28A     -0.537570    29A     -0.527571    30A     -0.500051
      31A     -0.499438    32A     -0.429173    33A     -0.420892
      34A     -0.407053    35A     -0.372719    36A     -0.312309

  @DF-RHF Final Energy:  -401.76011914943587

   => Energetics <=

    Nuclear Repulsion Energy =            488.0178470076994586
    One-Electron Energy =               -1510.6299118301669751
    Two-Electron Energy =                 620.8519456730316506
    Total Energy =                       -401.7601191494359227
  Basis Set: (AUG-CC-PVTZ AUX)
    Blend: AUG-CC-PVTZ-RI
    Molecular point group: c1

    Geometry (in Angstrom), charge = 0, multiplicity = 1:

       Center              X                  Y                   Z               Mass
    ------------   -----------------  -----------------  -----------------  -----------------
         N            0.173979704376    -0.915899734083     0.000326336119    14.003074004430
         C            2.071461704376     0.568602265917     0.000325336119    12.000000000000
         C            2.949922704376    -0.408737734083    -0.747093663881    12.000000000000
         C            3.044712004376    -0.365276834083     0.744113836119    12.000000000000
         C            0.604693704376     0.361626265917     0.000325336119    12.000000000000
         C           -0.288448295624     1.441815265917     0.000326336119    12.000000000000
         C           -1.657152295624     1.193908265917     0.000329336119    12.000000000000
         C           -2.121809295624    -0.126270734083     0.000331336119    12.000000000000
         C           -1.151190295624    -1.133304734083     0.000329336119    12.000000000000
         C           -3.590651295624    -0.449971734083     0.000328336119    12.000000000000
         H            2.390478704376     1.608338265917     0.000319336119     1.007825032230
         H            3.814567704376    -0.012377734083    -1.270072663881     1.007825032230
         H            2.432075704376    -1.223431734083    -1.241645663881     1.007825032230
         H            2.432076704376    -1.223419734083     1.242316336119     1.007825032230
         H            3.814565704376    -0.012363734083     1.270731336119     1.007825032230
         H            0.090766704376     2.461240265917     0.000325336119     1.007825032230
         H           -2.364199295624     2.022668265917     0.000329336119     1.007825032230
         H           -1.455122295624    -2.180969734083     0.000330336119     1.007825032230
         H           -4.086304295624    -0.035049734083     0.883620336119     1.007825032230
         H           -3.751320295624    -1.531517734083     0.000370336119     1.007825032230
         H           -4.086284295624    -0.035120734083    -0.883008663881     1.007825032230

  Basis Set: AUG-CC-PVTZ
    Blend: AUG-CC-PVTZ
  Basis Set: (AUG-CC-PVTZ AUX)
    Blend: AUG-CC-PVTZ-JKFIT
	 Reference Energy          =    -401.7601191494358659 [Eh]
	 Singles Energy            =      -0.0000000000000000 [Eh]
	 Same-Spin Energy          =      -0.4461757363156776 [Eh]
	 Opposite-Spin Energy      =      -1.4324915739014199 [Eh]
	 Correlation Energy        =      -1.8786673102170974 [Eh]
	 Total Energy              =    -403.6387864596529766 [Eh]

	 ================> DF-SCS-MP2 Energies <==================
	-----------------------------------------------------------
	 SCS Same-Spin Scale       =       0.3333333333333333 [-]
	 SCS Opposite-Spin Scale   =       1.2000000000000000 [-]
	 SCS Same-Spin Energy      =      -0.1487252454385592 [Eh]
	 SCS Opposite-Spin Energy  =      -1.7189898886817039 [Eh]
	 SCS Correlation Energy    =      -1.8677151341202631 [Eh]
	 SCS Total Energy          =    -403.6278342835561261 [Eh]
	-----------------------------------------------------------

  Dipole Moment: [D]
     X:    -1.3295      Y:     1.4813      Z:    -0.0179     Total:     1.9905

*** Psi4 exiting successfully. Buy a developer a beer!
