                               Psi4 1.4a3.dev225

  ==> Input File <==

--------------------------------------------------------------------------
#psi4
#
memory 32 gb

molecule  {
0 1
  N        0.1871790    -0.9111820    -0.0000020
  C        2.0846610     0.5733200    -0.0000030
  C        2.9631220    -0.4040200    -0.7474220
  C        2.9631210    -0.4040120     0.7474270
  C        0.6178930     0.3663440    -0.0000030
  C       -0.2752490     1.4465330    -0.0000020
  C       -1.6439530     1.1986260     0.0000010
  C       -2.1336190    -0.0463551    -0.1360331
  C       -1.1379910    -1.1285870     0.0000010
  C       -3.5774520    -0.4452540     0.0000000
  H        2.4036780     1.6130560    -0.0000090
  H        3.8277670    -0.0076600    -1.2704010
  H        2.4452750    -1.2187140    -1.2419740
  H        2.4452760    -1.2187020     1.2419880
  H        3.8277650    -0.0076460     1.2704030
  H        0.1039660     2.4659580    -0.0000030
  H       -2.3510000     2.0273860     0.0000010
  H       -1.4419230    -2.1762520     0.0000020
  H       -4.0731050    -0.0303320     0.8832920
  H       -3.7381210    -1.5268000     0.0000420
  H       -4.0730850    -0.0304030    -0.8833370
units angstrom
no_reorient  #important for SAPT in psi4, default
symmetry c1  #important for SAPT in psi4, default
}

set PROPERTIES_ORIGIN ["COM"]
properties('MP2/aug-cc-pvtz', properties = ['dipole'])
--------------------------------------------------------------------------

    Molecular point group: c1
  Charge       = 0
  Multiplicity = 1
  Basis Set: AUG-CC-PVTZ
    Blend: AUG-CC-PVTZ
  Basis Set: (AUG-CC-PVTZ AUX)
    Blend: AUG-CC-PVTZ-JKFIT

    Orbital Energies [Eh]
    ---------------------

    Doubly Occupied:

       1A    -15.558376     2A    -11.279884     3A    -11.274874
       4A    -11.244098     5A    -11.241821     6A    -11.231400
       7A    -11.230835     8A    -11.230014     9A    -11.221053
      10A    -11.220344    11A     -1.250990    12A     -1.140118
      13A     -1.098363    14A     -1.037680    15A     -0.951808
      16A     -0.859213    17A     -0.846440    18A     -0.814581
      19A     -0.777585    20A     -0.699654    21A     -0.667819
      22A     -0.638143    23A     -0.627948    24A     -0.600425
      25A     -0.584267    26A     -0.560885    27A     -0.541782
      28A     -0.540745    29A     -0.529534    30A     -0.504894
      31A     -0.502384    32A     -0.429054    33A     -0.425695
      34A     -0.402497    35A     -0.378162    36A     -0.307122

  @DF-RHF Final Energy:  -401.75954274093215

   => Energetics <=

    Nuclear Repulsion Energy =            488.6390278415223065
    One-Electron Energy =               -1511.8961632709217611
    Two-Electron Energy =                 621.4975926884673072
    Total Energy =                       -401.7595427409321474
  Basis Set: (AUG-CC-PVTZ AUX)
    Blend: AUG-CC-PVTZ-RI
    Molecular point group: c1

    Geometry (in Angstrom), charge = 0, multiplicity = 1:

       Center              X                  Y                   Z               Mass
    ------------   -----------------  -----------------  -----------------  -----------------
         N            0.184781423426    -0.918762026027     0.012263711989    14.003074004430
         C            2.082263423426     0.565739973973     0.012262711989    12.000000000000
         C            2.960724423426    -0.411600026027    -0.735156288011    12.000000000000
         C            2.960723423426    -0.411592026027     0.759692711989    12.000000000000
         C            0.615495423426     0.358763973973     0.012262711989    12.000000000000
         C           -0.277646576574     1.438952973973     0.012263711989    12.000000000000
         C           -1.646350576574     1.191045973973     0.012266711989    12.000000000000
         C           -2.136016576574    -0.053935126027    -0.123767388011    12.000000000000
         C           -1.140388576574    -1.136167026027     0.012266711989    12.000000000000
         C           -3.579849576574    -0.452834026027     0.012265711989    12.000000000000
         H            2.401280423426     1.605475973973     0.012256711989     1.007825032230
         H            3.825369423426    -0.015240026027    -1.258135288011     1.007825032230
         H            2.442877423426    -1.226294026027    -1.229708288011     1.007825032230
         H            2.442878423426    -1.226282026027     1.254253711989     1.007825032230
         H            3.825367423426    -0.015226026027     1.282668711989     1.007825032230
         H            0.101568423426     2.458377973973     0.012262711989     1.007825032230
         H           -2.353397576574     2.019805973973     0.012266711989     1.007825032230
         H           -1.444320576574    -2.183832026027     0.012267711989     1.007825032230
         H           -4.075502576574    -0.037912026027     0.895557711989     1.007825032230
         H           -3.740518576574    -1.534380026027     0.012307711989     1.007825032230
         H           -4.075482576574    -0.037983026027    -0.871071288011     1.007825032230

  Basis Set: AUG-CC-PVTZ
    Blend: AUG-CC-PVTZ
  Basis Set: (AUG-CC-PVTZ AUX)
    Blend: AUG-CC-PVTZ-JKFIT
	 Reference Energy          =    -401.7595427409321474 [Eh]
	 Singles Energy            =      -0.0000000000000000 [Eh]
	 Same-Spin Energy          =      -0.4462256145120663 [Eh]
	 Opposite-Spin Energy      =      -1.4327737660359448 [Eh]
	 Correlation Energy        =      -1.8789993805480110 [Eh]
	 Total Energy              =    -403.6385421214801568 [Eh]

	 ================> DF-SCS-MP2 Energies <==================
	-----------------------------------------------------------
	 SCS Same-Spin Scale       =       0.3333333333333333 [-]
	 SCS Opposite-Spin Scale   =       1.2000000000000000 [-]
	 SCS Same-Spin Energy      =      -0.1487418715040221 [Eh]
	 SCS Opposite-Spin Energy  =      -1.7193285192431336 [Eh]
	 SCS Correlation Energy    =      -1.8680703907471556 [Eh]
	 SCS Total Energy          =    -403.6276131316793112 [Eh]
	-----------------------------------------------------------

  Dipole Moment: [D]
     X:    -1.3167      Y:     1.3651      Z:     0.0307     Total:     1.8969

*** Psi4 exiting successfully. Buy a developer a beer!
