                               Psi4 1.4a3.dev225

  ==> Input File <==

--------------------------------------------------------------------------
#psi4
#
memory 32 gb

molecule  {
0 1
  N        0.1871790    -0.9111820    -0.0000020
  C        2.0846610     0.5733200    -0.0000030
  C        2.9631220    -0.4040200    -0.7474220
  C        2.9631210    -0.4040120     0.7474270
  C        0.5980892     0.3635495    -0.0000030
  C       -0.2752490     1.4465330    -0.0000020
  C       -1.6439530     1.1986260     0.0000010
  C       -2.1086100    -0.1215530     0.0000030
  C       -1.1379910    -1.1285870     0.0000010
  C       -3.5774520    -0.4452540     0.0000000
  H        2.4036780     1.6130560    -0.0000090
  H        3.8277670    -0.0076600    -1.2704010
  H        2.4452750    -1.2187140    -1.2419740
  H        2.4452760    -1.2187020     1.2419880
  H        3.8277650    -0.0076460     1.2704030
  H        0.1039660     2.4659580    -0.0000030
  H       -2.3510000     2.0273860     0.0000010
  H       -1.4419230    -2.1762520     0.0000020
  H       -4.0731050    -0.0303320     0.8832920
  H       -3.7381210    -1.5268000     0.0000420
  H       -4.0730850    -0.0304030    -0.8833370
units angstrom
no_reorient  #important for SAPT in psi4, default
symmetry c1  #important for SAPT in psi4, default
}

set PROPERTIES_ORIGIN ["COM"]
properties('MP2/aug-cc-pvtz', properties = ['dipole'])
--------------------------------------------------------------------------

    Molecular point group: c1
  Charge       = 0
  Multiplicity = 1
  Basis Set: AUG-CC-PVTZ
    Blend: AUG-CC-PVTZ
  Basis Set: (AUG-CC-PVTZ AUX)
    Blend: AUG-CC-PVTZ-JKFIT

    Orbital Energies [Eh]
    ---------------------

    Doubly Occupied:

       1A    -15.555979     2A    -11.274908     3A    -11.268320
       4A    -11.252276     5A    -11.239913     6A    -11.233115
       7A    -11.231152     8A    -11.229660     9A    -11.220301
      10A    -11.219607    11A     -1.254529    12A     -1.138689
      13A     -1.093034    14A     -1.043876    15A     -0.950330
      16A     -0.867044    17A     -0.839601    18A     -0.813695
      19A     -0.781405    20A     -0.700560    21A     -0.667015
      22A     -0.639727    23A     -0.626738    24A     -0.600203
      25A     -0.584350    26A     -0.565202    27A     -0.549956
      28A     -0.536342    29A     -0.527665    30A     -0.503568
      31A     -0.495855    32A     -0.427547    33A     -0.426979
      34A     -0.407520    35A     -0.373471    36A     -0.314895

  @DF-RHF Final Energy:  -401.77396116972068

   => Energetics <=

    Nuclear Repulsion Energy =            489.1357832587715961
    One-Electron Energy =               -1512.9094341359409555
    Two-Electron Energy =                 621.9996897074486242
    Total Energy =                       -401.7739611697206783
  Basis Set: (AUG-CC-PVTZ AUX)
    Blend: AUG-CC-PVTZ-RI
    Molecular point group: c1

    Geometry (in Angstrom), charge = 0, multiplicity = 1:

       Center              X                  Y                   Z               Mass
    ------------   -----------------  -----------------  -----------------  -----------------
         N            0.184312095909    -0.911729831408    -0.000002000189    14.003074004430
         C            2.081794095909     0.572772168592    -0.000003000189    12.000000000000
         C            2.960255095909    -0.404567831408    -0.747422000189    12.000000000000
         C            2.960254095909    -0.404559831408     0.747426999811    12.000000000000
         C            0.595222295909     0.363001668592    -0.000003000189    12.000000000000
         C           -0.278115904091     1.445985168592    -0.000002000189    12.000000000000
         C           -1.646819904091     1.198078168592     0.000000999811    12.000000000000
         C           -2.111476904091    -0.122100831408     0.000002999811    12.000000000000
         C           -1.140857904091    -1.129134831408     0.000000999811    12.000000000000
         C           -3.580318904091    -0.445801831408    -0.000000000189    12.000000000000
         H            2.400811095909     1.612508168592    -0.000009000189     1.007825032230
         H            3.824900095909    -0.008207831408    -1.270401000189     1.007825032230
         H            2.442408095909    -1.219261831408    -1.241974000189     1.007825032230
         H            2.442409095909    -1.219249831408     1.241987999811     1.007825032230
         H            3.824898095909    -0.008193831408     1.270402999811     1.007825032230
         H            0.101099095909     2.465410168592    -0.000003000189     1.007825032230
         H           -2.353866904091     2.026838168592     0.000000999811     1.007825032230
         H           -1.444789904091    -2.176799831408     0.000001999811     1.007825032230
         H           -4.075971904091    -0.030879831408     0.883291999811     1.007825032230
         H           -3.740987904091    -1.527347831408     0.000041999811     1.007825032230
         H           -4.075951904091    -0.030950831408    -0.883337000189     1.007825032230

  Basis Set: AUG-CC-PVTZ
    Blend: AUG-CC-PVTZ
  Basis Set: (AUG-CC-PVTZ AUX)
    Blend: AUG-CC-PVTZ-JKFIT
	 Reference Energy          =    -401.7739611697206783 [Eh]
	 Singles Energy            =      -0.0000000000000000 [Eh]
	 Same-Spin Energy          =      -0.4456793390424222 [Eh]
	 Opposite-Spin Energy      =      -1.4312652995499762 [Eh]
	 Correlation Energy        =      -1.8769446385923985 [Eh]
	 Total Energy              =    -403.6509058083130981 [Eh]

	 ================> DF-SCS-MP2 Energies <==================
	-----------------------------------------------------------
	 SCS Same-Spin Scale       =       0.3333333333333333 [-]
	 SCS Opposite-Spin Scale   =       1.2000000000000000 [-]
	 SCS Same-Spin Energy      =      -0.1485597796808074 [Eh]
	 SCS Opposite-Spin Energy  =      -1.7175183594599714 [Eh]
	 SCS Correlation Energy    =      -1.8660781391407788 [Eh]
	 SCS Total Energy          =    -403.6400393088614464 [Eh]
	-----------------------------------------------------------

  Dipole Moment: [D]
     X:    -1.4091      Y:     1.4586      Z:    -0.0000     Total:     2.0281

*** Psi4 exiting successfully. Buy a developer a beer!
