                               Psi4 1.4a3.dev225

  ==> Input File <==

--------------------------------------------------------------------------
#psi4
#
memory 32 gb

molecule  {
0 1
  N        0.1871790    -0.9111820    -0.0000020
  C        2.0846610     0.5733200    -0.0000030
  C        2.9631220    -0.4040200    -0.7474220
  C        2.9631210    -0.4040120     0.7474270
  C        0.6178930     0.3663440    -0.0000030
  C       -0.2752490     1.4465330    -0.0000020
  C       -1.6439530     1.1986260     0.0000010
  C       -2.1086100    -0.1215530     0.0000030
  C       -1.1379910    -1.1285870     0.0000010
  C       -3.5774520    -0.4452540     0.0000000
  H        2.4036780     1.6130560    -0.0000090
  H        3.8277670    -0.0076600    -1.2704010
  H        2.4452750    -1.2187140    -1.2419740
  H        2.4452760    -1.2187020     1.2419880
  H        3.8118336    -0.0149492     1.2607670
  H        0.1039660     2.4659580    -0.0000030
  H       -2.3510000     2.0273860     0.0000010
  H       -1.4419230    -2.1762520     0.0000020
  H       -4.0731050    -0.0303320     0.8832920
  H       -3.7381210    -1.5268000     0.0000420
  H       -4.0730850    -0.0304030    -0.8833370
units angstrom
no_reorient  #important for SAPT in psi4, default
symmetry c1  #important for SAPT in psi4, default
}

set PROPERTIES_ORIGIN ["COM"]
properties('MP2/aug-cc-pvtz', properties = ['dipole'])
--------------------------------------------------------------------------

    Molecular point group: c1
  Charge       = 0
  Multiplicity = 1
  Basis Set: AUG-CC-PVTZ
    Blend: AUG-CC-PVTZ
  Basis Set: (AUG-CC-PVTZ AUX)
    Blend: AUG-CC-PVTZ-JKFIT

    Orbital Energies [Eh]
    ---------------------

    Doubly Occupied:

       1A    -15.555605     2A    -11.276057     3A    -11.267675
       4A    -11.251614     5A    -11.239319     6A    -11.233718
       7A    -11.231252     8A    -11.229207     9A    -11.221118
      10A    -11.218810    11A     -1.251099    12A     -1.140998
      13A     -1.091535    14A     -1.042423    15A     -0.951048
      16A     -0.867356    17A     -0.840183    18A     -0.816770
      19A     -0.781404    20A     -0.701196    21A     -0.667048
      22A     -0.640303    23A     -0.626328    24A     -0.600835
      25A     -0.583675    26A     -0.564623    27A     -0.549438
      28A     -0.535889    29A     -0.528222    30A     -0.505218
      31A     -0.498956    32A     -0.429479    33A     -0.427167
      34A     -0.406270    35A     -0.372381    36A     -0.312639

  @DF-RHF Final Energy:  -401.77377811928409

   => Energetics <=

    Nuclear Repulsion Energy =            489.1175675958690476
    One-Electron Energy =               -1512.8689730726175640
    Two-Electron Energy =                 621.9776273574643710
    Total Energy =                       -401.7737781192840885
  Basis Set: (AUG-CC-PVTZ AUX)
    Blend: AUG-CC-PVTZ-RI
    Molecular point group: c1

    Geometry (in Angstrom), charge = 0, multiplicity = 1:

       Center              X                  Y                   Z               Mass
    ------------   -----------------  -----------------  -----------------  -----------------
         N            0.182647125194    -0.911926493963     0.000070968960    14.003074004430
         C            2.080129125194     0.572575506037     0.000069968960    12.000000000000
         C            2.958590125194    -0.404764493963    -0.747349031040    12.000000000000
         C            2.958589125194    -0.404756493963     0.747499968960    12.000000000000
         C            0.613361125194     0.365599506037     0.000069968960    12.000000000000
         C           -0.279780874806     1.445788506037     0.000070968960    12.000000000000
         C           -1.648484874806     1.197881506037     0.000073968960    12.000000000000
         C           -2.113141874806    -0.122297493963     0.000075968960    12.000000000000
         C           -1.142522874806    -1.129331493963     0.000073968960    12.000000000000
         C           -3.581983874806    -0.445998493963     0.000072968960    12.000000000000
         H            2.399146125194     1.612311506037     0.000063968960     1.007825032230
         H            3.823235125194    -0.008404493963    -1.270328031040     1.007825032230
         H            2.440743125194    -1.219458493963    -1.241901031040     1.007825032230
         H            2.440744125194    -1.219446493963     1.242060968960     1.007825032230
         H            3.807301725194    -0.015693693963     1.260839968960     1.007825032230
         H            0.099434125194     2.465213506037     0.000069968960     1.007825032230
         H           -2.355531874806     2.026641506037     0.000073968960     1.007825032230
         H           -1.446454874806    -2.176996493963     0.000074968960     1.007825032230
         H           -4.077636874806    -0.031076493963     0.883364968960     1.007825032230
         H           -3.742652874806    -1.527544493963     0.000114968960     1.007825032230
         H           -4.077616874806    -0.031147493963    -0.883264031040     1.007825032230

  Basis Set: AUG-CC-PVTZ
    Blend: AUG-CC-PVTZ
  Basis Set: (AUG-CC-PVTZ AUX)
    Blend: AUG-CC-PVTZ-JKFIT
	 Reference Energy          =    -401.7737781192840885 [Eh]
	 Singles Energy            =      -0.0000000000000000 [Eh]
	 Same-Spin Energy          =      -0.4459458728087583 [Eh]
	 Opposite-Spin Energy      =      -1.4315506818850525 [Eh]
	 Correlation Energy        =      -1.8774965546938107 [Eh]
	 Total Energy              =    -403.6512746739779232 [Eh]

	 ================> DF-SCS-MP2 Energies <==================
	-----------------------------------------------------------
	 SCS Same-Spin Scale       =       0.3333333333333333 [-]
	 SCS Opposite-Spin Scale   =       1.2000000000000000 [-]
	 SCS Same-Spin Energy      =      -0.1486486242695861 [Eh]
	 SCS Opposite-Spin Energy  =      -1.7178608182620629 [Eh]
	 SCS Correlation Energy    =      -1.8665094425316491 [Eh]
	 SCS Total Energy          =    -403.6402875618157395 [Eh]
	-----------------------------------------------------------

  Dipole Moment: [D]
     X:    -1.3042      Y:     1.4554      Z:     0.0064     Total:     1.9543

*** Psi4 exiting successfully. Buy a developer a beer!
