                               Psi4 1.4a3.dev225

  ==> Input File <==

--------------------------------------------------------------------------
#psi4
#
memory 32 gb

molecule  {
0 1
  N        0.1871790    -0.9111820    -0.0000020
  C        2.0846610     0.5733200    -0.0000030
  C        2.9631220    -0.4040200    -0.7474220
  C        2.9631210    -0.4040120     0.7474270
  C        0.6178930     0.3663440    -0.0000030
  C       -0.2752490     1.4465330    -0.0000020
  C       -1.6439530     1.1986260     0.0000010
  C       -2.0422097     0.0671028     0.0000027
  C       -1.1379910    -1.1285870     0.0000010
  C       -3.5774520    -0.4452540     0.0000000
  H        2.4036780     1.6130560    -0.0000090
  H        3.8277670    -0.0076600    -1.2704010
  H        2.4452750    -1.2187140    -1.2419740
  H        2.4452760    -1.2187020     1.2419880
  H        3.8277650    -0.0076460     1.2704030
  H        0.1039660     2.4659580    -0.0000030
  H       -2.3510000     2.0273860     0.0000010
  H       -1.4419230    -2.1762520     0.0000020
  H       -4.0731050    -0.0303320     0.8832920
  H       -3.7381210    -1.5268000     0.0000420
  H       -4.0730850    -0.0304030    -0.8833370
units angstrom
no_reorient  #important for SAPT in psi4, default
symmetry c1  #important for SAPT in psi4, default
}

set PROPERTIES_ORIGIN ["COM"]
properties('MP2/aug-cc-pvtz', properties = ['dipole'])
--------------------------------------------------------------------------

    Molecular point group: c1
  Charge       = 0
  Multiplicity = 1
  Basis Set: AUG-CC-PVTZ
    Blend: AUG-CC-PVTZ
  Basis Set: (AUG-CC-PVTZ AUX)
    Blend: AUG-CC-PVTZ-JKFIT

    Orbital Energies [Eh]
    ---------------------

    Doubly Occupied:

       1A    -15.561261     2A    -11.285702     3A    -11.270254
       4A    -11.233382     5A    -11.232938     6A    -11.229653
       7A    -11.229090     8A    -11.219682     9A    -11.219217
      10A    -11.218526    11A     -1.255996    12A     -1.142317
      13A     -1.118761    14A     -1.027243    15A     -0.944450
      16A     -0.870859    17A     -0.845573    18A     -0.813159
      19A     -0.776039    20A     -0.700843    21A     -0.672286
      22A     -0.639270    23A     -0.623724    24A     -0.601688
      25A     -0.580052    26A     -0.572871    27A     -0.548034
      28A     -0.536614    29A     -0.517438    30A     -0.504230
      31A     -0.491143    32A     -0.435668    33A     -0.424177
      34A     -0.395144    35A     -0.394291    36A     -0.307407

  @DF-RHF Final Energy:  -401.71403531411005

   => Energetics <=

    Nuclear Repulsion Energy =            490.3937279616835099
    One-Electron Energy =               -1515.3375680228257352
    Two-Electron Energy =                 623.2298047470322899
    Total Energy =                       -401.7140353141099922
  Basis Set: (AUG-CC-PVTZ AUX)
    Blend: AUG-CC-PVTZ-RI
    Molecular point group: c1

    Geometry (in Angstrom), charge = 0, multiplicity = 1:

       Center              X                  Y                   Z               Mass
    ------------   -----------------  -----------------  -----------------  -----------------
         N            0.176539492320    -0.928991971943    -0.000001973139    14.003074004430
         C            2.074021492320     0.555510028057    -0.000002973139    12.000000000000
         C            2.952482492320    -0.421829971943    -0.747421973139    12.000000000000
         C            2.952481492320    -0.421821971943     0.747427026861    12.000000000000
         C            0.607253492320     0.348534028057    -0.000002973139    12.000000000000
         C           -0.285888507680     1.428723028057    -0.000001973139    12.000000000000
         C           -1.654592507680     1.180816028057     0.000001026861    12.000000000000
         C           -2.052849207680     0.049292828057     0.000002726861    12.000000000000
         C           -1.148630507680    -1.146396971943     0.000001026861    12.000000000000
         C           -3.588091507680    -0.463063971943     0.000000026861    12.000000000000
         H            2.393038492320     1.595246028057    -0.000008973139     1.007825032230
         H            3.817127492320    -0.025469971943    -1.270400973139     1.007825032230
         H            2.434635492320    -1.236523971943    -1.241973973139     1.007825032230
         H            2.434636492320    -1.236511971943     1.241988026861     1.007825032230
         H            3.817125492320    -0.025455971943     1.270403026861     1.007825032230
         H            0.093326492320     2.448148028057    -0.000002973139     1.007825032230
         H           -2.361639507680     2.009576028057     0.000001026861     1.007825032230
         H           -1.452562507680    -2.194061971943     0.000002026861     1.007825032230
         H           -4.083744507680    -0.048141971943     0.883292026861     1.007825032230
         H           -3.748760507680    -1.544609971943     0.000042026861     1.007825032230
         H           -4.083724507680    -0.048212971943    -0.883336973139     1.007825032230

  Basis Set: AUG-CC-PVTZ
    Blend: AUG-CC-PVTZ
  Basis Set: (AUG-CC-PVTZ AUX)
    Blend: AUG-CC-PVTZ-JKFIT
	 Reference Energy          =    -401.7140353141100491 [Eh]
	 Singles Energy            =      -0.0000000000000000 [Eh]
	 Same-Spin Energy          =      -0.4449676578526384 [Eh]
	 Opposite-Spin Energy      =      -1.4324877382675445 [Eh]
	 Correlation Energy        =      -1.8774553961201828 [Eh]
	 Total Energy              =    -403.5914907102302323 [Eh]

	 ================> DF-SCS-MP2 Energies <==================
	-----------------------------------------------------------
	 SCS Same-Spin Scale       =       0.3333333333333333 [-]
	 SCS Opposite-Spin Scale   =       1.2000000000000000 [-]
	 SCS Same-Spin Energy      =      -0.1483225526175461 [Eh]
	 SCS Opposite-Spin Energy  =      -1.7189852859210533 [Eh]
	 SCS Correlation Energy    =      -1.8673078385385993 [Eh]
	 SCS Total Energy          =    -403.5813431526486283 [Eh]
	-----------------------------------------------------------

  Dipole Moment: [D]
     X:    -1.2642      Y:     1.2860      Z:    -0.0000     Total:     1.8033

*** Psi4 exiting successfully. Buy a developer a beer!
