                               Psi4 1.4a3.dev225

  ==> Input File <==

--------------------------------------------------------------------------
#psi4
#
memory 32 gb

molecule  {
0 1
  N        0.1871790    -0.9111820    -0.0000020
  C        2.0846610     0.5733200    -0.0000030
  C        2.9631220    -0.4040200    -0.7474220
  C        2.9631210    -0.4040120     0.7474270
  C        0.6178930     0.3663440    -0.0000030
  C       -0.2752490     1.4465330    -0.0000020
  C       -1.6439530     1.1986260     0.0000010
  C       -2.1086100    -0.1215530     0.0000030
  C       -1.1379910    -1.1285870     0.0000010
  C       -3.5774520    -0.4452540     0.0000000
  H        2.4036780     1.6130560    -0.0000090
  H        3.8277670    -0.0076600    -1.2704010
  H        2.4930181    -1.1436030    -1.1963786
  H        2.4452760    -1.2187020     1.2419880
  H        3.8277650    -0.0076460     1.2704030
  H        0.1039660     2.4659580    -0.0000030
  H       -2.3510000     2.0273860     0.0000010
  H       -1.4419230    -2.1762520     0.0000020
  H       -4.0731050    -0.0303320     0.8832920
  H       -3.7381210    -1.5268000     0.0000420
  H       -4.0730850    -0.0304030    -0.8833370
units angstrom
no_reorient  #important for SAPT in psi4, default
symmetry c1  #important for SAPT in psi4, default
}

set PROPERTIES_ORIGIN ["COM"]
properties('MP2/aug-cc-pvtz', properties = ['dipole'])
--------------------------------------------------------------------------

    Molecular point group: c1
  Charge       = 0
  Multiplicity = 1
  Basis Set: AUG-CC-PVTZ
    Blend: AUG-CC-PVTZ
  Basis Set: (AUG-CC-PVTZ AUX)
    Blend: AUG-CC-PVTZ-JKFIT

    Orbital Energies [Eh]
    ---------------------

    Doubly Occupied:

       1A    -15.555718     2A    -11.276108     3A    -11.267766
       4A    -11.251698     5A    -11.239363     6A    -11.233718
       7A    -11.230868     8A    -11.229244     9A    -11.220729
      10A    -11.210021    11A     -1.251240    12A     -1.142318
      13A     -1.091641    14A     -1.042638    15A     -0.951280
      16A     -0.868100    17A     -0.840784    18A     -0.825563
      19A     -0.782646    20A     -0.703662    21A     -0.668524
      22A     -0.640193    23A     -0.626141    24A     -0.604878
      25A     -0.583698    26A     -0.564663    27A     -0.549801
      28A     -0.535972    29A     -0.530460    30A     -0.511321
      31A     -0.498970    32A     -0.430176    33A     -0.427285
      34A     -0.406160    35A     -0.372499    36A     -0.312562

  @DF-RHF Final Energy:  -401.76763991724806

   => Energetics <=

    Nuclear Repulsion Energy =            489.4494592336002938
    One-Electron Energy =               -1513.4773823706223084
    Two-Electron Energy =                 622.2602832197740099
    Total Energy =                       -401.7676399172480615
  Basis Set: (AUG-CC-PVTZ AUX)
    Blend: AUG-CC-PVTZ-RI
    Molecular point group: c1

    Geometry (in Angstrom), charge = 0, multiplicity = 1:

       Center              X                  Y                   Z               Mass
    ------------   -----------------  -----------------  -----------------  -----------------
         N            0.182164946479    -0.912550580105    -0.000347273907    14.003074004430
         C            2.079646946479     0.571951419895    -0.000348273907    12.000000000000
         C            2.958107946479    -0.405388580105    -0.747767273907    12.000000000000
         C            2.958106946479    -0.405380580105     0.747081726093    12.000000000000
         C            0.612878946479     0.364975419895    -0.000348273907    12.000000000000
         C           -0.280263053521     1.445164419895    -0.000347273907    12.000000000000
         C           -1.648967053521     1.197257419895    -0.000344273907    12.000000000000
         C           -2.113624053521    -0.122921580105    -0.000342273907    12.000000000000
         C           -1.143005053521    -1.129955580105    -0.000344273907    12.000000000000
         C           -3.582466053521    -0.446622580105    -0.000345273907    12.000000000000
         H            2.398663946479     1.611687419895    -0.000354273907     1.007825032230
         H            3.822752946479    -0.009028580105    -1.270746273907     1.007825032230
         H            2.488004046479    -1.144971580105    -1.196723873907     1.007825032230
         H            2.440261946479    -1.220070580105     1.241642726093     1.007825032230
         H            3.822750946479    -0.009014580105     1.270057726093     1.007825032230
         H            0.098951946479     2.464589419895    -0.000348273907     1.007825032230
         H           -2.356014053521     2.026017419895    -0.000344273907     1.007825032230
         H           -1.446937053521    -2.177620580105    -0.000343273907     1.007825032230
         H           -4.078119053521    -0.031700580105     0.882946726093     1.007825032230
         H           -3.743135053521    -1.528168580105    -0.000303273907     1.007825032230
         H           -4.078099053521    -0.031771580105    -0.883682273907     1.007825032230

  Basis Set: AUG-CC-PVTZ
    Blend: AUG-CC-PVTZ
  Basis Set: (AUG-CC-PVTZ AUX)
    Blend: AUG-CC-PVTZ-JKFIT
	 Reference Energy          =    -401.7676399172480615 [Eh]
	 Singles Energy            =      -0.0000000000000000 [Eh]
	 Same-Spin Energy          =      -0.4458028893818511 [Eh]
	 Opposite-Spin Energy      =      -1.4311512277645053 [Eh]
	 Correlation Energy        =      -1.8769541171463564 [Eh]
	 Total Energy              =    -403.6445940343944017 [Eh]

	 ================> DF-SCS-MP2 Energies <==================
	-----------------------------------------------------------
	 SCS Same-Spin Scale       =       0.3333333333333333 [-]
	 SCS Opposite-Spin Scale   =       1.2000000000000000 [-]
	 SCS Same-Spin Energy      =      -0.1486009631272837 [Eh]
	 SCS Opposite-Spin Energy  =      -1.7173814733174064 [Eh]
	 SCS Correlation Energy    =      -1.8659824364446902 [Eh]
	 SCS Total Energy          =    -403.6336223536927719 [Eh]
	-----------------------------------------------------------

  Dipole Moment: [D]
     X:    -1.3050      Y:     1.4508      Z:    -0.0169     Total:     1.9514

*** Psi4 exiting successfully. Buy a developer a beer!
