                               Psi4 1.4a3.dev225

  ==> Input File <==

--------------------------------------------------------------------------
#psi4
#
memory 32 gb

molecule  {
0 1
  N        0.1871790    -0.9111820    -0.0000020
  C        2.0424913     0.5451582    -0.0146040
  C        2.9631220    -0.4040200    -0.7474220
  C        2.9631210    -0.4040120     0.7474270
  C        0.6178930     0.3663440    -0.0000030
  C       -0.2752490     1.4465330    -0.0000020
  C       -1.6439530     1.1986260     0.0000010
  C       -2.1086100    -0.1215530     0.0000030
  C       -1.1379910    -1.1285870     0.0000010
  C       -3.5774520    -0.4452540     0.0000000
  H        2.4036780     1.6130560    -0.0000090
  H        3.8277670    -0.0076600    -1.2704010
  H        2.4452750    -1.2187140    -1.2419740
  H        2.4452760    -1.2187020     1.2419880
  H        3.8277650    -0.0076460     1.2704030
  H        0.1039660     2.4659580    -0.0000030
  H       -2.3510000     2.0273860     0.0000010
  H       -1.4419230    -2.1762520     0.0000020
  H       -4.0731050    -0.0303320     0.8832920
  H       -3.7381210    -1.5268000     0.0000420
  H       -4.0730850    -0.0304030    -0.8833370
units angstrom
no_reorient  #important for SAPT in psi4, default
symmetry c1  #important for SAPT in psi4, default
}

set PROPERTIES_ORIGIN ["COM"]
properties('MP2/aug-cc-pvtz', properties = ['dipole'])
--------------------------------------------------------------------------

    Molecular point group: c1
  Charge       = 0
  Multiplicity = 1
  Basis Set: AUG-CC-PVTZ
    Blend: AUG-CC-PVTZ
  Basis Set: (AUG-CC-PVTZ AUX)
    Blend: AUG-CC-PVTZ-JKFIT

    Orbital Energies [Eh]
    ---------------------

    Doubly Occupied:

       1A    -15.555018     2A    -11.273759     3A    -11.267519
       4A    -11.251751     5A    -11.239236     6A    -11.233946
       7A    -11.232443     8A    -11.229180     9A    -11.223179
      10A    -11.222457    11A     -1.252758    12A     -1.140523
      13A     -1.091410    14A     -1.043703    15A     -0.954290
      16A     -0.868843    17A     -0.843236    18A     -0.815379
      19A     -0.778424    20A     -0.700416    21A     -0.668086
      22A     -0.638173    23A     -0.627097    24A     -0.598428
      25A     -0.583815    26A     -0.564410    27A     -0.549501
      28A     -0.538110    29A     -0.526681    30A     -0.504432
      31A     -0.499932    32A     -0.430872    33A     -0.425301
      34A     -0.407145    35A     -0.372493    36A     -0.310488

  @DF-RHF Final Energy:  -401.76945251668621

   => Energetics <=

    Nuclear Repulsion Energy =            489.7050732308246097
    One-Electron Energy =               -1514.0241827868946984
    Two-Electron Energy =                 622.5496570393838738
    Total Energy =                       -401.7694525166862149
  Basis Set: (AUG-CC-PVTZ AUX)
    Blend: AUG-CC-PVTZ-RI
    Molecular point group: c1

    Geometry (in Angstrom), charge = 0, multiplicity = 1:

       Center              X                  Y                   Z               Mass
    ------------   -----------------  -----------------  -----------------  -----------------
         N            0.186328720114    -0.909442585592     0.001314500824    14.003074004430
         C            2.041641020114     0.546897614408    -0.013287499176    12.000000000000
         C            2.962271720114    -0.402280585592    -0.746105499176    12.000000000000
         C            2.962270720114    -0.402272585592     0.748743500824    12.000000000000
         C            0.617042720114     0.368083414408     0.001313500824    12.000000000000
         C           -0.276099279886     1.448272414408     0.001314500824    12.000000000000
         C           -1.644803279886     1.200365414408     0.001317500824    12.000000000000
         C           -2.109460279886    -0.119813585592     0.001319500824    12.000000000000
         C           -1.138841279886    -1.126847585592     0.001317500824    12.000000000000
         C           -3.578302279886    -0.443514585592     0.001316500824    12.000000000000
         H            2.402827720114     1.614795414408     0.001307500824     1.007825032230
         H            3.826916720114    -0.005920585592    -1.269084499176     1.007825032230
         H            2.444424720114    -1.216974585592    -1.240657499176     1.007825032230
         H            2.444425720114    -1.216962585592     1.243304500824     1.007825032230
         H            3.826914720114    -0.005906585592     1.271719500824     1.007825032230
         H            0.103115720114     2.467697414408     0.001313500824     1.007825032230
         H           -2.351850279886     2.029125414408     0.001317500824     1.007825032230
         H           -1.442773279886    -2.174512585592     0.001318500824     1.007825032230
         H           -4.073955279886    -0.028592585592     0.884608500824     1.007825032230
         H           -3.738971279886    -1.525060585592     0.001358500824     1.007825032230
         H           -4.073935279886    -0.028663585592    -0.882020499176     1.007825032230

  Basis Set: AUG-CC-PVTZ
    Blend: AUG-CC-PVTZ
  Basis Set: (AUG-CC-PVTZ AUX)
    Blend: AUG-CC-PVTZ-JKFIT
	 Reference Energy          =    -401.7694525166862149 [Eh]
	 Singles Energy            =      -0.0000000000000000 [Eh]
	 Same-Spin Energy          =      -0.4465259943916751 [Eh]
	 Opposite-Spin Energy      =      -1.4325262039737920 [Eh]
	 Correlation Energy        =      -1.8790521983654671 [Eh]
	 Total Energy              =    -403.6485047150516721 [Eh]

	 ================> DF-SCS-MP2 Energies <==================
	-----------------------------------------------------------
	 SCS Same-Spin Scale       =       0.3333333333333333 [-]
	 SCS Opposite-Spin Scale   =       1.2000000000000000 [-]
	 SCS Same-Spin Energy      =      -0.1488419981305584 [Eh]
	 SCS Opposite-Spin Energy  =      -1.7190314447685504 [Eh]
	 SCS Correlation Energy    =      -1.8678734428991088 [Eh]
	 SCS Total Energy          =    -403.6373259595853256 [Eh]
	-----------------------------------------------------------

  Dipole Moment: [D]
     X:    -1.2649      Y:     1.4283      Z:    -0.0073     Total:     1.9078

*** Psi4 exiting successfully. Buy a developer a beer!
