                               Psi4 1.4a3.dev225

  ==> Input File <==

--------------------------------------------------------------------------
#psi4
#
memory 32 gb

molecule  {
0 1
  N        0.1871790    -0.9111820    -0.0000020
  C        2.0846610     0.5733200    -0.0000030
  C        2.9631220    -0.4040200    -0.7474220
  C        2.9631210    -0.4040120     0.7474270
  C        0.6178930     0.3663440    -0.0000030
  C       -0.2847346     1.4941491    -0.0000020
  C       -1.6439530     1.1986260     0.0000010
  C       -2.1086100    -0.1215530     0.0000030
  C       -1.1379910    -1.1285870     0.0000010
  C       -3.5774520    -0.4452540     0.0000000
  H        2.4036780     1.6130560    -0.0000090
  H        3.8277670    -0.0076600    -1.2704010
  H        2.4452750    -1.2187140    -1.2419740
  H        2.4452760    -1.2187020     1.2419880
  H        3.8277650    -0.0076460     1.2704030
  H        0.1039660     2.4659580    -0.0000030
  H       -2.3510000     2.0273860     0.0000010
  H       -1.4419230    -2.1762520     0.0000020
  H       -4.0731050    -0.0303320     0.8832920
  H       -3.7381210    -1.5268000     0.0000420
  H       -4.0730850    -0.0304030    -0.8833370
units angstrom
no_reorient  #important for SAPT in psi4, default
symmetry c1  #important for SAPT in psi4, default
}

set PROPERTIES_ORIGIN ["COM"]
properties('MP2/aug-cc-pvtz', properties = ['dipole'])
--------------------------------------------------------------------------

    Molecular point group: c1
  Charge       = 0
  Multiplicity = 1
  Basis Set: AUG-CC-PVTZ
    Blend: AUG-CC-PVTZ
  Basis Set: (AUG-CC-PVTZ AUX)
    Blend: AUG-CC-PVTZ-JKFIT

    Orbital Energies [Eh]
    ---------------------

    Doubly Occupied:

       1A    -15.555746     2A    -11.282023     3A    -11.267824
       4A    -11.251648     5A    -11.238681     6A    -11.235185
       7A    -11.231883     8A    -11.228933     9A    -11.222212
      10A    -11.221520    11A     -1.249080    12A     -1.141229
      13A     -1.091164    14A     -1.039477    15A     -0.949689
      16A     -0.866074    17A     -0.843291    18A     -0.815431
      19A     -0.778703    20A     -0.700614    21A     -0.664905
      22A     -0.641782    23A     -0.635467    24A     -0.597260
      25A     -0.582911    26A     -0.561338    27A     -0.549173
      28A     -0.533519    29A     -0.529571    30A     -0.504009
      31A     -0.502166    32A     -0.429656    33A     -0.428348
      34A     -0.404418    35A     -0.373384    36A     -0.309364

  @DF-RHF Final Energy:  -401.77041401800682

   => Energetics <=

    Nuclear Repulsion Energy =            488.1537148467871816
    One-Electron Energy =               -1510.9329046091406781
    Two-Electron Energy =                 621.0087757443467353
    Total Energy =                       -401.7704140180068180
  Basis Set: (AUG-CC-PVTZ AUX)
    Blend: AUG-CC-PVTZ-RI
    Molecular point group: c1

    Geometry (in Angstrom), charge = 0, multiplicity = 1:

       Center              X                  Y                   Z               Mass
    ------------   -----------------  -----------------  -----------------  -----------------
         N            0.183381754100    -0.916275109538    -0.000002000189    14.003074004430
         C            2.080863754100     0.568226890462    -0.000003000189    12.000000000000
         C            2.959324754100    -0.409113109538    -0.747422000189    12.000000000000
         C            2.959323754100    -0.409105109538     0.747426999811    12.000000000000
         C            0.614095754100     0.361250890462    -0.000003000189    12.000000000000
         C           -0.288531845900     1.489055990462    -0.000002000189    12.000000000000
         C           -1.647750245900     1.193532890462     0.000000999811    12.000000000000
         C           -2.112407245900    -0.126646109538     0.000002999811    12.000000000000
         C           -1.141788245900    -1.133680109538     0.000000999811    12.000000000000
         C           -3.581249245900    -0.450347109538    -0.000000000189    12.000000000000
         H            2.399880754100     1.607962890462    -0.000009000189     1.007825032230
         H            3.823969754100    -0.012753109538    -1.270401000189     1.007825032230
         H            2.441477754100    -1.223807109538    -1.241974000189     1.007825032230
         H            2.441478754100    -1.223795109538     1.241987999811     1.007825032230
         H            3.823967754100    -0.012739109538     1.270402999811     1.007825032230
         H            0.100168754100     2.460864890462    -0.000003000189     1.007825032230
         H           -2.354797245900     2.022292890462     0.000000999811     1.007825032230
         H           -1.445720245900    -2.181345109538     0.000001999811     1.007825032230
         H           -4.076902245900    -0.035425109538     0.883291999811     1.007825032230
         H           -3.741918245900    -1.531893109538     0.000041999811     1.007825032230
         H           -4.076882245900    -0.035496109538    -0.883337000189     1.007825032230

  Basis Set: AUG-CC-PVTZ
    Blend: AUG-CC-PVTZ
  Basis Set: (AUG-CC-PVTZ AUX)
    Blend: AUG-CC-PVTZ-JKFIT
	 Reference Energy          =    -401.7704140180068180 [Eh]
	 Singles Energy            =      -0.0000000000000000 [Eh]
	 Same-Spin Energy          =      -0.4458299335967075 [Eh]
	 Opposite-Spin Energy      =      -1.4317781219733381 [Eh]
	 Correlation Energy        =      -1.8776080555700456 [Eh]
	 Total Energy              =    -403.6480220735768398 [Eh]

	 ================> DF-SCS-MP2 Energies <==================
	-----------------------------------------------------------
	 SCS Same-Spin Scale       =       0.3333333333333333 [-]
	 SCS Opposite-Spin Scale   =       1.2000000000000000 [-]
	 SCS Same-Spin Energy      =      -0.1486099778655691 [Eh]
	 SCS Opposite-Spin Energy  =      -1.7181337463680058 [Eh]
	 SCS Correlation Energy    =      -1.8667437242335749 [Eh]
	 SCS Total Energy          =    -403.6371577422403902 [Eh]
	-----------------------------------------------------------

  Dipole Moment: [D]
     X:    -1.2572      Y:     1.4663      Z:    -0.0000     Total:     1.9315

*** Psi4 exiting successfully. Buy a developer a beer!
