                               Psi4 1.4a3.dev225

  ==> Input File <==

--------------------------------------------------------------------------
#psi4
#
memory 32 gb

molecule  {
0 1
  N        0.1871790    -0.9111820    -0.0000020
  C        2.0846610     0.5733200    -0.0000030
  C        2.9631220    -0.4040200    -0.7474220
  C        2.9631210    -0.4040120     0.7474270
  C        0.6178930     0.3663440    -0.0000030
  C       -0.2752490     1.4465330    -0.0000020
  C       -1.6439530     1.1986260     0.0000010
  C       -2.1086100    -0.1215530     0.0000030
  C       -1.1379910    -1.1285870     0.0000010
  C       -3.5774520    -0.4452540     0.0000000
  H        2.4036780     1.6130560    -0.0000090
  H        3.8277670    -0.0076600    -1.2704010
  H        2.4452750    -1.2187140    -1.2419740
  H        2.4452760    -1.2187020     1.2419880
  H        3.8277650    -0.0076460     1.2704030
  H        0.1039660     2.4659580    -0.0000030
  H       -2.3510000     2.0273860     0.0000010
  H       -1.4419230    -2.1762520     0.0000020
  H       -4.0278212    -0.0682400     0.8025928
  H       -3.7381210    -1.5268000     0.0000420
  H       -4.0730850    -0.0304030    -0.8833370
units angstrom
no_reorient  #important for SAPT in psi4, default
symmetry c1  #important for SAPT in psi4, default
}

set PROPERTIES_ORIGIN ["COM"]
properties('MP2/aug-cc-pvtz', properties = ['dipole'])
--------------------------------------------------------------------------

    Molecular point group: c1
  Charge       = 0
  Multiplicity = 1
  Basis Set: AUG-CC-PVTZ
    Blend: AUG-CC-PVTZ
  Basis Set: (AUG-CC-PVTZ AUX)
    Blend: AUG-CC-PVTZ-JKFIT

    Orbital Energies [Eh]
    ---------------------

    Doubly Occupied:

       1A    -15.555410     2A    -11.275767     3A    -11.267234
       4A    -11.251423     5A    -11.238755     6A    -11.233558
       7A    -11.231162     8A    -11.221355     9A    -11.220662
      10A    -11.216932    11A     -1.250863    12A     -1.140679
      13A     -1.092556    14A     -1.043364    15A     -0.958085
      16A     -0.868510    17A     -0.841437    18A     -0.814729
      19A     -0.781477    20A     -0.701320    21A     -0.666464
      22A     -0.640284    23A     -0.626155    24A     -0.601174
      25A     -0.596106    26A     -0.564333    27A     -0.553383
      28A     -0.536639    29A     -0.527607    30A     -0.504211
      31A     -0.498432    32A     -0.429619    33A     -0.427051
      34A     -0.406116    35A     -0.372356    36A     -0.312768

  @DF-RHF Final Energy:  -401.76766657498712

   => Energetics <=

    Nuclear Repulsion Energy =            489.4799836516827440
    One-Electron Energy =               -1513.5593518954865431
    Two-Electron Energy =                 622.3117016688167951
    Total Energy =                       -401.7676665749870608
  Basis Set: (AUG-CC-PVTZ AUX)
    Blend: AUG-CC-PVTZ-RI
    Molecular point group: c1

    Geometry (in Angstrom), charge = 0, multiplicity = 1:

       Center              X                  Y                   Z               Mass
    ------------   -----------------  -----------------  -----------------  -----------------
         N            0.182183569666    -0.911694737402     0.000609099020    14.003074004430
         C            2.079665569666     0.572807262598     0.000608099020    12.000000000000
         C            2.958126569666    -0.404532737402    -0.746810900980    12.000000000000
         C            2.958125569666    -0.404524737402     0.748038099020    12.000000000000
         C            0.612897569666     0.365831262598     0.000608099020    12.000000000000
         C           -0.280244430334     1.446020262598     0.000609099020    12.000000000000
         C           -1.648948430334     1.198113262598     0.000612099020    12.000000000000
         C           -2.113605430334    -0.122065737402     0.000614099020    12.000000000000
         C           -1.142986430334    -1.129099737402     0.000612099020    12.000000000000
         C           -3.582447430334    -0.445766737402     0.000611099020    12.000000000000
         H            2.398682569666     1.612543262598     0.000602099020     1.007825032230
         H            3.822771569666    -0.008172737402    -1.269789900980     1.007825032230
         H            2.440279569666    -1.219226737402    -1.241362900980     1.007825032230
         H            2.440280569666    -1.219214737402     1.242599099020     1.007825032230
         H            3.822769569666    -0.008158737402     1.271014099020     1.007825032230
         H            0.098970569666     2.465445262598     0.000608099020     1.007825032230
         H           -2.355995430334     2.026873262598     0.000612099020     1.007825032230
         H           -1.446918430334    -2.176764737402     0.000613099020     1.007825032230
         H           -4.032816630334    -0.068752737402     0.803203899020     1.007825032230
         H           -3.743116430334    -1.527312737402     0.000653099020     1.007825032230
         H           -4.078080430334    -0.030915737402    -0.882725900980     1.007825032230

  Basis Set: AUG-CC-PVTZ
    Blend: AUG-CC-PVTZ
  Basis Set: (AUG-CC-PVTZ AUX)
    Blend: AUG-CC-PVTZ-JKFIT
	 Reference Energy          =    -401.7676665749871177 [Eh]
	 Singles Energy            =      -0.0000000000000000 [Eh]
	 Same-Spin Energy          =      -0.4459977602406674 [Eh]
	 Opposite-Spin Energy      =      -1.4312160784620196 [Eh]
	 Correlation Energy        =      -1.8772138387026871 [Eh]
	 Total Energy              =    -403.6448804136898048 [Eh]

	 ================> DF-SCS-MP2 Energies <==================
	-----------------------------------------------------------
	 SCS Same-Spin Scale       =       0.3333333333333333 [-]
	 SCS Opposite-Spin Scale   =       1.2000000000000000 [-]
	 SCS Same-Spin Energy      =      -0.1486659200802224 [Eh]
	 SCS Opposite-Spin Energy  =      -1.7174592941544236 [Eh]
	 SCS Correlation Energy    =      -1.8661252142346461 [Eh]
	 SCS Total Energy          =    -403.6337917892217888 [Eh]
	-----------------------------------------------------------

  Dipole Moment: [D]
     X:    -1.3535      Y:     1.4619      Z:     0.0227     Total:     1.9924

*** Psi4 exiting successfully. Buy a developer a beer!
