                               Psi4 1.4a3.dev225

  ==> Input File <==

--------------------------------------------------------------------------
#psi4
#
memory 32 gb

molecule  {
0 1
  N        0.1871790    -0.9111820    -0.0000020
  C        2.0014433     0.5158400    -0.0300978
  C        2.9631220    -0.4040200    -0.7474220
  C        2.9631210    -0.4040120     0.7474270
  C        0.6178930     0.3663440    -0.0000030
  C       -0.2752490     1.4465330    -0.0000020
  C       -1.6439530     1.1986260     0.0000010
  C       -2.1086100    -0.1215530     0.0000030
  C       -1.1379910    -1.1285870     0.0000010
  C       -3.5774520    -0.4452540     0.0000000
  H        2.4036780     1.6130560    -0.0000090
  H        3.8277670    -0.0076600    -1.2704010
  H        2.4452750    -1.2187140    -1.2419740
  H        2.4452760    -1.2187020     1.2419880
  H        3.8277650    -0.0076460     1.2704030
  H        0.1039660     2.4659580    -0.0000030
  H       -2.3510000     2.0273860     0.0000010
  H       -1.4419230    -2.1762520     0.0000020
  H       -4.0731050    -0.0303320     0.8832920
  H       -3.7381210    -1.5268000     0.0000420
  H       -4.0730850    -0.0304030    -0.8833370
units angstrom
no_reorient  #important for SAPT in psi4, default
symmetry c1  #important for SAPT in psi4, default
}

set PROPERTIES_ORIGIN ["COM"]
properties('MP2/aug-cc-pvtz', properties = ['dipole'])
--------------------------------------------------------------------------

    Molecular point group: c1
  Charge       = 0
  Multiplicity = 1
  Basis Set: AUG-CC-PVTZ
    Blend: AUG-CC-PVTZ
  Basis Set: (AUG-CC-PVTZ AUX)
    Blend: AUG-CC-PVTZ-JKFIT

    Orbital Energies [Eh]
    ---------------------

    Doubly Occupied:

       1A    -15.554253     2A    -11.271056     3A    -11.267239
       4A    -11.251758     5A    -11.238974     6A    -11.234032
       7A    -11.233964     8A    -11.229047     9A    -11.225306
      10A    -11.224519    11A     -1.254627    12A     -1.140595
      13A     -1.091160    14A     -1.045094    15A     -0.958078
      16A     -0.870668    17A     -0.846412    18A     -0.816222
      19A     -0.776291    20A     -0.699245    21A     -0.669544
      22A     -0.637389    23A     -0.628161    24A     -0.597541
      25A     -0.583907    26A     -0.564324    27A     -0.549280
      28A     -0.541199    29A     -0.524275    30A     -0.505145
      31A     -0.499807    32A     -0.432520    33A     -0.422592
      34A     -0.407084    35A     -0.372492    36A     -0.307829

  @DF-RHF Final Energy:  -401.75859498937643

   => Energetics <=

    Nuclear Repulsion Energy =            490.4055583152135114
    One-Electron Energy =               -1515.3850403491694578
    Two-Electron Energy =                 623.2208870445795128
    Total Energy =                       -401.7585949893764337
  Basis Set: (AUG-CC-PVTZ AUX)
    Blend: AUG-CC-PVTZ-RI
    Molecular point group: c1

    Geometry (in Angstrom), charge = 0, multiplicity = 1:

       Center              X                  Y                   Z               Mass
    ------------   -----------------  -----------------  -----------------  -----------------
         N            0.190029818231    -0.906799106377     0.002711501263    14.003074004430
         C            2.004294118231     0.520222893623    -0.027384298737    12.000000000000
         C            2.965972818231    -0.399637106377    -0.744708498737    12.000000000000
         C            2.965971818231    -0.399629106377     0.750140501263    12.000000000000
         C            0.620743818231     0.370726893623     0.002710501263    12.000000000000
         C           -0.272398181769     1.450915893623     0.002711501263    12.000000000000
         C           -1.641102181769     1.203008893623     0.002714501263    12.000000000000
         C           -2.105759181769    -0.117170106377     0.002716501263    12.000000000000
         C           -1.135140181769    -1.124204106377     0.002714501263    12.000000000000
         C           -3.574601181769    -0.440871106377     0.002713501263    12.000000000000
         H            2.406528818231     1.617438893623     0.002704501263     1.007825032230
         H            3.830617818231    -0.003277106377    -1.267687498737     1.007825032230
         H            2.448125818231    -1.214331106377    -1.239260498737     1.007825032230
         H            2.448126818231    -1.214319106377     1.244701501263     1.007825032230
         H            3.830615818231    -0.003263106377     1.273116501263     1.007825032230
         H            0.106816818231     2.470340893623     0.002710501263     1.007825032230
         H           -2.348149181769     2.031768893623     0.002714501263     1.007825032230
         H           -1.439072181769    -2.171869106377     0.002715501263     1.007825032230
         H           -4.070254181769    -0.025949106377     0.886005501263     1.007825032230
         H           -3.735270181769    -1.522417106377     0.002755501263     1.007825032230
         H           -4.070234181769    -0.026020106377    -0.880623498737     1.007825032230

  Basis Set: AUG-CC-PVTZ
    Blend: AUG-CC-PVTZ
  Basis Set: (AUG-CC-PVTZ AUX)
    Blend: AUG-CC-PVTZ-JKFIT
	 Reference Energy          =    -401.7585949893764337 [Eh]
	 Singles Energy            =      -0.0000000000000000 [Eh]
	 Same-Spin Energy          =      -0.4473168020526007 [Eh]
	 Opposite-Spin Energy      =      -1.4338375119337261 [Eh]
	 Correlation Energy        =      -1.8811543139863267 [Eh]
	 Total Energy              =    -403.6397493033627484 [Eh]

	 ================> DF-SCS-MP2 Energies <==================
	-----------------------------------------------------------
	 SCS Same-Spin Scale       =       0.3333333333333333 [-]
	 SCS Opposite-Spin Scale   =       1.2000000000000000 [-]
	 SCS Same-Spin Energy      =      -0.1491056006842002 [Eh]
	 SCS Opposite-Spin Energy  =      -1.7206050143204712 [Eh]
	 SCS Correlation Energy    =      -1.8697106150046714 [Eh]
	 SCS Total Energy          =    -403.6283056043811257 [Eh]
	-----------------------------------------------------------

  Dipole Moment: [D]
     X:    -1.2113      Y:     1.3927      Z:    -0.0143     Total:     1.8458

*** Psi4 exiting successfully. Buy a developer a beer!
