                               Psi4 1.4a3.dev225

  ==> Input File <==

--------------------------------------------------------------------------
#psi4
#
memory 32 gb

molecule  {
0 1
  N        0.1871790    -0.9111820    -0.0000020
  C        2.0846610     0.5733200    -0.0000030
  C        2.9631220    -0.4040200    -0.7474220
  C        2.9631210    -0.4040120     0.7474270
  C        0.6178930     0.3663440    -0.0000030
  C       -0.2752490     1.4465330    -0.0000020
  C       -1.6439530     1.1986260     0.0000010
  C       -2.1086100    -0.1215530     0.0000030
  C       -1.1379910    -1.1285870     0.0000010
  C       -3.6751087    -0.4667754    -0.0000002
  H        2.4036780     1.6130560    -0.0000090
  H        3.8277670    -0.0076600    -1.2704010
  H        2.4452750    -1.2187140    -1.2419740
  H        2.4452760    -1.2187020     1.2419880
  H        3.8277650    -0.0076460     1.2704030
  H        0.1039660     2.4659580    -0.0000030
  H       -2.3510000     2.0273860     0.0000010
  H       -1.4419230    -2.1762520     0.0000020
  H       -4.0731050    -0.0303320     0.8832920
  H       -3.7381210    -1.5268000     0.0000420
  H       -4.0730850    -0.0304030    -0.8833370
units angstrom
no_reorient  #important for SAPT in psi4, default
symmetry c1  #important for SAPT in psi4, default
}

set PROPERTIES_ORIGIN ["COM"]
properties('MP2/aug-cc-pvtz', properties = ['dipole'])
--------------------------------------------------------------------------

    Molecular point group: c1
  Charge       = 0
  Multiplicity = 1
  Basis Set: AUG-CC-PVTZ
    Blend: AUG-CC-PVTZ
  Basis Set: (AUG-CC-PVTZ AUX)
    Blend: AUG-CC-PVTZ-JKFIT

    Orbital Energies [Eh]
    ---------------------

    Doubly Occupied:

       1A    -15.555341     2A    -11.275585     3A    -11.267525
       4A    -11.251403     5A    -11.242934     6A    -11.233243
       7A    -11.231042     8A    -11.227948     9A    -11.221255
      10A    -11.220563    11A     -1.250403    12A     -1.139983
      13A     -1.085104    14A     -1.037881    15A     -0.952620
      16A     -0.867245    17A     -0.840977    18A     -0.814635
      19A     -0.780562    20A     -0.700230    21A     -0.664526
      22A     -0.637387    23A     -0.620691    24A     -0.598510
      25A     -0.594013    26A     -0.568118    27A     -0.557913
      28A     -0.538727    29A     -0.521223    30A     -0.504464
      31A     -0.487430    32A     -0.430220    33A     -0.426845
      34A     -0.404961    35A     -0.372382    36A     -0.313661

  @DF-RHF Final Energy:  -401.76653676282763

   => Energetics <=

    Nuclear Repulsion Energy =            487.3751970862236362
    One-Electron Energy =               -1509.4083689474493895
    Two-Electron Energy =                 620.2666350983981829
    Total Energy =                       -401.7665367628276272
  Basis Set: (AUG-CC-PVTZ AUX)
    Blend: AUG-CC-PVTZ-RI
    Molecular point group: c1

    Geometry (in Angstrom), charge = 0, multiplicity = 1:

       Center              X                  Y                   Z               Mass
    ------------   -----------------  -----------------  -----------------  -----------------
         N            0.191331712494    -0.910041318098    -0.000001982156    14.003074004430
         C            2.088813712494     0.574460681902    -0.000002982156    12.000000000000
         C            2.967274712494    -0.402879318098    -0.747421982156    12.000000000000
         C            2.967273712494    -0.402871318098     0.747427017844    12.000000000000
         C            0.622045712494     0.367484681902    -0.000002982156    12.000000000000
         C           -0.271096287506     1.447673681902    -0.000001982156    12.000000000000
         C           -1.639800287506     1.199766681902     0.000001017844    12.000000000000
         C           -2.104457287506    -0.120412318098     0.000003017844    12.000000000000
         C           -1.133838287506    -1.127446318098     0.000001017844    12.000000000000
         C           -3.670955987506    -0.465634718098    -0.000000182156    12.000000000000
         H            2.407830712494     1.614196681902    -0.000008982156     1.007825032230
         H            3.831919712494    -0.006519318098    -1.270400982156     1.007825032230
         H            2.449427712494    -1.217573318098    -1.241973982156     1.007825032230
         H            2.449428712494    -1.217561318098     1.241988017844     1.007825032230
         H            3.831917712494    -0.006505318098     1.270403017844     1.007825032230
         H            0.108118712494     2.467098681902    -0.000002982156     1.007825032230
         H           -2.346847287506     2.028526681902     0.000001017844     1.007825032230
         H           -1.437770287506    -2.175111318098     0.000002017844     1.007825032230
         H           -4.068952287506    -0.029191318098     0.883292017844     1.007825032230
         H           -3.733968287506    -1.525659318098     0.000042017844     1.007825032230
         H           -4.068932287506    -0.029262318098    -0.883336982156     1.007825032230

  Basis Set: AUG-CC-PVTZ
    Blend: AUG-CC-PVTZ
  Basis Set: (AUG-CC-PVTZ AUX)
    Blend: AUG-CC-PVTZ-JKFIT
	 Reference Energy          =    -401.7665367628276272 [Eh]
	 Singles Energy            =      -0.0000000000000000 [Eh]
	 Same-Spin Energy          =      -0.4454978519772635 [Eh]
	 Opposite-Spin Energy      =      -1.4315896217532380 [Eh]
	 Correlation Energy        =      -1.8770874737305014 [Eh]
	 Total Energy              =    -403.6436242365581393 [Eh]

	 ================> DF-SCS-MP2 Energies <==================
	-----------------------------------------------------------
	 SCS Same-Spin Scale       =       0.3333333333333333 [-]
	 SCS Opposite-Spin Scale   =       1.2000000000000000 [-]
	 SCS Same-Spin Energy      =      -0.1484992839924212 [Eh]
	 SCS Opposite-Spin Energy  =      -1.7179075461038855 [Eh]
	 SCS Correlation Energy    =      -1.8664068300963066 [Eh]
	 SCS Total Energy          =    -403.6329435929239366 [Eh]
	-----------------------------------------------------------

  Dipole Moment: [D]
     X:    -1.3061      Y:     1.4536      Z:    -0.0000     Total:     1.9542

*** Psi4 exiting successfully. Buy a developer a beer!
