                               Psi4 1.4a3.dev225

  ==> Input File <==

--------------------------------------------------------------------------
#psi4
#
memory 32 gb

molecule  {
0 1
  N        0.1871790    -0.9111820    -0.0000020
  C        2.0846610     0.5733200    -0.0000030
  C        2.9631220    -0.4040200    -0.7474220
  C        2.9631210    -0.4040120     0.7474270
  C        0.6178930     0.3663440    -0.0000030
  C       -0.2752490     1.4465330    -0.0000020
  C       -1.5455540     1.2164485     0.0000008
  C       -2.1086100    -0.1215530     0.0000030
  C       -1.1379910    -1.1285870     0.0000010
  C       -3.5774520    -0.4452540     0.0000000
  H        2.4036780     1.6130560    -0.0000090
  H        3.8277670    -0.0076600    -1.2704010
  H        2.4452750    -1.2187140    -1.2419740
  H        2.4452760    -1.2187020     1.2419880
  H        3.8277650    -0.0076460     1.2704030
  H        0.1039660     2.4659580    -0.0000030
  H       -2.3510000     2.0273860     0.0000010
  H       -1.4419230    -2.1762520     0.0000020
  H       -4.0731050    -0.0303320     0.8832920
  H       -3.7381210    -1.5268000     0.0000420
  H       -4.0730850    -0.0304030    -0.8833370
units angstrom
no_reorient  #important for SAPT in psi4, default
symmetry c1  #important for SAPT in psi4, default
}

set PROPERTIES_ORIGIN ["COM"]
properties('MP2/aug-cc-pvtz', properties = ['dipole'])
--------------------------------------------------------------------------

    Molecular point group: c1
  Charge       = 0
  Multiplicity = 1
  Basis Set: AUG-CC-PVTZ
    Blend: AUG-CC-PVTZ
  Basis Set: (AUG-CC-PVTZ AUX)
    Blend: AUG-CC-PVTZ-JKFIT

    Orbital Energies [Eh]
    ---------------------

    Doubly Occupied:

       1A    -15.553089     2A    -11.279353     3A    -11.262560
       4A    -11.248983     5A    -11.241345     6A    -11.232820
       7A    -11.230534     8A    -11.224061     9A    -11.223101
      10A    -11.222408    11A     -1.252207    12A     -1.141672
      13A     -1.094509    14A     -1.051068    15A     -0.952891
      16A     -0.866628    17A     -0.834799    18A     -0.816164
      19A     -0.779924    20A     -0.700667    21A     -0.672738
      22A     -0.640125    23A     -0.625756    24A     -0.599059
      25A     -0.582758    26A     -0.562019    27A     -0.548758
      28A     -0.538352    29A     -0.519113    30A     -0.505953
      31A     -0.500049    32A     -0.429636    33A     -0.427349
      34A     -0.403116    35A     -0.385019    36A     -0.309144

  @DF-RHF Final Energy:  -401.76031883604344

   => Energetics <=

    Nuclear Repulsion Energy =            489.9382300762284217
    One-Electron Energy =               -1514.4816438637762985
    Two-Electron Energy =                 622.7830949515044949
    Total Energy =                       -401.7603188360434388
  Basis Set: (AUG-CC-PVTZ AUX)
    Blend: AUG-CC-PVTZ-RI
    Molecular point group: c1

    Geometry (in Angstrom), charge = 0, multiplicity = 1:

       Center              X                  Y                   Z               Mass
    ------------   -----------------  -----------------  -----------------  -----------------
         N            0.173654325484    -0.913588765822    -0.000001982156    14.003074004430
         C            2.071136325484     0.570913234178    -0.000002982156    12.000000000000
         C            2.949597325484    -0.406426765822    -0.747421982156    12.000000000000
         C            2.949596325484    -0.406418765822     0.747427017844    12.000000000000
         C            0.604368325484     0.363937234178    -0.000002982156    12.000000000000
         C           -0.288773674516     1.444126234178    -0.000001982156    12.000000000000
         C           -1.559078674516     1.214041734178     0.000000817844    12.000000000000
         C           -2.122134674516    -0.123959765822     0.000003017844    12.000000000000
         C           -1.151515674516    -1.130993765822     0.000001017844    12.000000000000
         C           -3.590976674516    -0.447660765822     0.000000017844    12.000000000000
         H            2.390153325484     1.610649234178    -0.000008982156     1.007825032230
         H            3.814242325484    -0.010066765822    -1.270400982156     1.007825032230
         H            2.431750325484    -1.221120765822    -1.241973982156     1.007825032230
         H            2.431751325484    -1.221108765822     1.241988017844     1.007825032230
         H            3.814240325484    -0.010052765822     1.270403017844     1.007825032230
         H            0.090441325484     2.463551234178    -0.000002982156     1.007825032230
         H           -2.364524674516     2.024979234178     0.000001017844     1.007825032230
         H           -1.455447674516    -2.178658765822     0.000002017844     1.007825032230
         H           -4.086629674516    -0.032738765822     0.883292017844     1.007825032230
         H           -3.751645674516    -1.529206765822     0.000042017844     1.007825032230
         H           -4.086609674516    -0.032809765822    -0.883336982156     1.007825032230

  Basis Set: AUG-CC-PVTZ
    Blend: AUG-CC-PVTZ
  Basis Set: (AUG-CC-PVTZ AUX)
    Blend: AUG-CC-PVTZ-JKFIT
	 Reference Energy          =    -401.7603188360434388 [Eh]
	 Singles Energy            =      -0.0000000000000000 [Eh]
	 Same-Spin Energy          =      -0.4456941485352706 [Eh]
	 Opposite-Spin Energy      =      -1.4316193149109964 [Eh]
	 Correlation Energy        =      -1.8773134634462669 [Eh]
	 Total Energy              =    -403.6376322994897237 [Eh]

	 ================> DF-SCS-MP2 Energies <==================
	-----------------------------------------------------------
	 SCS Same-Spin Scale       =       0.3333333333333333 [-]
	 SCS Opposite-Spin Scale   =       1.2000000000000000 [-]
	 SCS Same-Spin Energy      =      -0.1485647161784235 [Eh]
	 SCS Opposite-Spin Energy  =      -1.7179431778931955 [Eh]
	 SCS Correlation Energy    =      -1.8665078940716191 [Eh]
	 SCS Total Energy          =    -403.6268267301150559 [Eh]
	-----------------------------------------------------------

  Dipole Moment: [D]
     X:    -1.2708      Y:     1.4427      Z:    -0.0000     Total:     1.9226

*** Psi4 exiting successfully. Buy a developer a beer!
