                               Psi4 1.4a3.dev225

  ==> Input File <==

--------------------------------------------------------------------------
#psi4
#
memory 32 gb

molecule  {
0 1
  N        0.1871790    -0.9111820    -0.0000020
  C        2.0846610     0.5733200    -0.0000030
  C        2.9631220    -0.4040200    -0.7474220
  C        2.9631210    -0.4040120     0.7474270
  C        0.6178930     0.3663440    -0.0000030
  C       -0.2752490     1.4465330    -0.0000020
  C       -1.6439530     1.1986260     0.0000010
  C       -2.1086100    -0.1215530     0.0000030
  C       -1.1379910    -1.1285870     0.0000010
  C       -3.5774520    -0.4452540     0.0000000
  H        2.4036780     1.6130560    -0.0000090
  H        3.8277670    -0.0076600    -1.2704010
  H        2.4452750    -1.2187140    -1.2419740
  H        2.4452760    -1.2187020     1.2419880
  H        3.8277650    -0.0076460     1.2704030
  H        0.1039660     2.4659580    -0.0000030
  H       -2.3510000     2.0273860     0.0000010
  H       -1.4419230    -2.1762520     0.0000020
  H       -4.1411898     0.0266573     0.8108861
  H       -3.7381210    -1.5268000     0.0000420
  H       -4.0730850    -0.0304030    -0.8833370
units angstrom
no_reorient  #important for SAPT in psi4, default
symmetry c1  #important for SAPT in psi4, default
}

set PROPERTIES_ORIGIN ["COM"]
properties('MP2/aug-cc-pvtz', properties = ['dipole'])
--------------------------------------------------------------------------

    Molecular point group: c1
  Charge       = 0
  Multiplicity = 1
  Basis Set: AUG-CC-PVTZ
    Blend: AUG-CC-PVTZ
  Basis Set: (AUG-CC-PVTZ AUX)
    Blend: AUG-CC-PVTZ-JKFIT

    Orbital Energies [Eh]
    ---------------------

    Doubly Occupied:

       1A    -15.555956     2A    -11.276374     3A    -11.268195
       4A    -11.251953     5A    -11.240207     6A    -11.233954
       7A    -11.231507     8A    -11.229262     9A    -11.221667
      10A    -11.220974    11A     -1.251428    12A     -1.140973
      13A     -1.091598    14A     -1.042494    15A     -0.951287
      16A     -0.867982    17A     -0.840488    18A     -0.815021
      19A     -0.781716    20A     -0.701574    21A     -0.666961
      22A     -0.640291    23A     -0.626585    24A     -0.601170
      25A     -0.575155    26A     -0.564896    27A     -0.557848
      28A     -0.532930    29A     -0.528356    30A     -0.503877
      31A     -0.499154    32A     -0.429234    33A     -0.427495
      34A     -0.406776    35A     -0.372496    36A     -0.312559

  @DF-RHF Final Energy:  -401.77248828357682

   => Energetics <=

    Nuclear Repulsion Energy =            488.9365097108887994
    One-Electron Energy =               -1512.4972049126195088
    Two-Electron Energy =                 621.7882069181539464
    Total Energy =                       -401.7724882835767630
  Basis Set: (AUG-CC-PVTZ AUX)
    Blend: AUG-CC-PVTZ-RI
    Molecular point group: c1

    Geometry (in Angstrom), charge = 0, multiplicity = 1:

       Center              X                  Y                   Z               Mass
    ------------   -----------------  -----------------  -----------------  -----------------
         N            0.183042059734    -0.912413352518     0.000546297541    14.003074004430
         C            2.080524059734     0.572088647482     0.000545297541    12.000000000000
         C            2.958985059734    -0.405251352518    -0.746873702459    12.000000000000
         C            2.958984059734    -0.405243352518     0.747975297541    12.000000000000
         C            0.613756059734     0.365112647482     0.000545297541    12.000000000000
         C           -0.279385940266     1.445301647482     0.000546297541    12.000000000000
         C           -1.648089940266     1.197394647482     0.000549297541    12.000000000000
         C           -2.112746940266    -0.122784352518     0.000551297541    12.000000000000
         C           -1.142127940266    -1.129818352518     0.000549297541    12.000000000000
         C           -3.581588940266    -0.446485352518     0.000548297541    12.000000000000
         H            2.399541059734     1.611824647482     0.000539297541     1.007825032230
         H            3.823630059734    -0.008891352518    -1.269852702459     1.007825032230
         H            2.441138059734    -1.219945352518    -1.241425702459     1.007825032230
         H            2.441139059734    -1.219933352518     1.242536297541     1.007825032230
         H            3.823628059734    -0.008877352518     1.270951297541     1.007825032230
         H            0.099829059734     2.464726647482     0.000545297541     1.007825032230
         H           -2.355136940266     2.026154647482     0.000549297541     1.007825032230
         H           -1.446059940266    -2.177483352518     0.000550297541     1.007825032230
         H           -4.145326740266     0.025425947482     0.811434397541     1.007825032230
         H           -3.742257940266    -1.528031352518     0.000590297541     1.007825032230
         H           -4.077221940266    -0.031634352518    -0.882788702459     1.007825032230

  Basis Set: AUG-CC-PVTZ
    Blend: AUG-CC-PVTZ
  Basis Set: (AUG-CC-PVTZ AUX)
    Blend: AUG-CC-PVTZ-JKFIT
	 Reference Energy          =    -401.7724882835768199 [Eh]
	 Singles Energy            =      -0.0000000000000000 [Eh]
	 Same-Spin Energy          =      -0.4459922555108973 [Eh]
	 Opposite-Spin Energy      =      -1.4316654253319703 [Eh]
	 Correlation Energy        =      -1.8776576808428675 [Eh]
	 Total Energy              =    -403.6501459644196643 [Eh]

	 ================> DF-SCS-MP2 Energies <==================
	-----------------------------------------------------------
	 SCS Same-Spin Scale       =       0.3333333333333333 [-]
	 SCS Opposite-Spin Scale   =       1.2000000000000000 [-]
	 SCS Same-Spin Energy      =      -0.1486640851702991 [Eh]
	 SCS Opposite-Spin Energy  =      -1.7179985103983644 [Eh]
	 SCS Correlation Energy    =      -1.8666625955686635 [Eh]
	 SCS Total Energy          =    -403.6391508791454612 [Eh]
	-----------------------------------------------------------

  Dipole Moment: [D]
     X:    -1.3248      Y:     1.4863      Z:    -0.0218     Total:     1.9911

*** Psi4 exiting successfully. Buy a developer a beer!
