                               Psi4 1.4a3.dev225

  ==> Input File <==

--------------------------------------------------------------------------
#psi4
#
memory 32 gb

molecule  {
0 1
  N        0.1871790    -0.9111820    -0.0000020
  C        2.0846610     0.5733200    -0.0000030
  C        2.9631220    -0.4040200    -0.7474220
  C        2.9631210    -0.4040120     0.7474270
  C        0.6178930     0.3663440    -0.0000030
  C       -0.2752490     1.4465330    -0.0000020
  C       -1.7844947     1.2399638     0.0000005
  C       -2.1086100    -0.1215530     0.0000030
  C       -1.1379910    -1.1285870     0.0000010
  C       -3.5774520    -0.4452540     0.0000000
  H        2.4036780     1.6130560    -0.0000090
  H        3.8277670    -0.0076600    -1.2704010
  H        2.4452750    -1.2187140    -1.2419740
  H        2.4452760    -1.2187020     1.2419880
  H        3.8277650    -0.0076460     1.2704030
  H        0.1039660     2.4659580    -0.0000030
  H       -2.3510000     2.0273860     0.0000010
  H       -1.4419230    -2.1762520     0.0000020
  H       -4.0731050    -0.0303320     0.8832920
  H       -3.7381210    -1.5268000     0.0000420
  H       -4.0730850    -0.0304030    -0.8833370
units angstrom
no_reorient  #important for SAPT in psi4, default
symmetry c1  #important for SAPT in psi4, default
}

set PROPERTIES_ORIGIN ["COM"]
properties('MP2/aug-cc-pvtz', properties = ['dipole'])
--------------------------------------------------------------------------

    Molecular point group: c1
  Charge       = 0
  Multiplicity = 1
  Basis Set: AUG-CC-PVTZ
    Blend: AUG-CC-PVTZ
  Basis Set: (AUG-CC-PVTZ AUX)
    Blend: AUG-CC-PVTZ-JKFIT

    Orbital Energies [Eh]
    ---------------------

    Doubly Occupied:

       1A    -15.559907     2A    -11.273893     3A    -11.272505
       4A    -11.256882     5A    -11.245318     6A    -11.244931
       7A    -11.230578     8A    -11.226763     9A    -11.220269
      10A    -11.219576    11A     -1.249650    12A     -1.139768
      13A     -1.090486    14A     -1.030016    15A     -0.947505
      16A     -0.878570    17A     -0.834292    18A     -0.813938
      19A     -0.790641    20A     -0.707296    21A     -0.657970
      22A     -0.648746    23A     -0.625978    24A     -0.601185
      25A     -0.585045    26A     -0.583381    27A     -0.549403
      28A     -0.532406    29A     -0.522244    30A     -0.502268
      31A     -0.481822    32A     -0.428813    33A     -0.428006
      34A     -0.409483    35A     -0.360098    36A     -0.313318

  @DF-RHF Final Energy:  -401.74272588321958

   => Energetics <=

    Nuclear Repulsion Energy =            486.9161032886945577
    One-Electron Energy =               -1508.3917596339958891
    Two-Electron Energy =                 619.7329304620817538
    Total Energy =                       -401.7427258832195776
  Basis Set: (AUG-CC-PVTZ AUX)
    Blend: AUG-CC-PVTZ-RI
    Molecular point group: c1

    Geometry (in Angstrom), charge = 0, multiplicity = 1:

       Center              X                  Y                   Z               Mass
    ------------   -----------------  -----------------  -----------------  -----------------
         N            0.195198443947    -0.915709025824    -0.000001955106    14.003074004430
         C            2.092680443947     0.568792974176    -0.000002955106    12.000000000000
         C            2.971141443947    -0.408547025824    -0.747421955106    12.000000000000
         C            2.971140443947    -0.408539025824     0.747427044894    12.000000000000
         C            0.625912443947     0.361816974176    -0.000002955106    12.000000000000
         C           -0.267229556053     1.442005974176    -0.000001955106    12.000000000000
         C           -1.776475256053     1.235436774176     0.000000544894    12.000000000000
         C           -2.100590556053    -0.126080025824     0.000003044894    12.000000000000
         C           -1.129971556053    -1.133114025824     0.000001044894    12.000000000000
         C           -3.569432556053    -0.449781025824     0.000000044894    12.000000000000
         H            2.411697443947     1.608528974176    -0.000008955106     1.007825032230
         H            3.835786443947    -0.012187025824    -1.270400955106     1.007825032230
         H            2.453294443947    -1.223241025824    -1.241973955106     1.007825032230
         H            2.453295443947    -1.223229025824     1.241988044894     1.007825032230
         H            3.835784443947    -0.012173025824     1.270403044894     1.007825032230
         H            0.111985443947     2.461430974176    -0.000002955106     1.007825032230
         H           -2.342980556053     2.022858974176     0.000001044894     1.007825032230
         H           -1.433903556053    -2.180779025824     0.000002044894     1.007825032230
         H           -4.065085556053    -0.034859025824     0.883292044894     1.007825032230
         H           -3.730101556053    -1.531327025824     0.000042044894     1.007825032230
         H           -4.065065556053    -0.034930025824    -0.883336955106     1.007825032230

  Basis Set: AUG-CC-PVTZ
    Blend: AUG-CC-PVTZ
  Basis Set: (AUG-CC-PVTZ AUX)
    Blend: AUG-CC-PVTZ-JKFIT
	 Reference Energy          =    -401.7427258832195776 [Eh]
	 Singles Energy            =      -0.0000000000000000 [Eh]
	 Same-Spin Energy          =      -0.4466353066188257 [Eh]
	 Opposite-Spin Energy      =      -1.4344426494755822 [Eh]
	 Correlation Energy        =      -1.8810779560944080 [Eh]
	 Total Energy              =    -403.6238038393140073 [Eh]

	 ================> DF-SCS-MP2 Energies <==================
	-----------------------------------------------------------
	 SCS Same-Spin Scale       =       0.3333333333333333 [-]
	 SCS Opposite-Spin Scale   =       1.2000000000000000 [-]
	 SCS Same-Spin Energy      =      -0.1488784355396086 [Eh]
	 SCS Opposite-Spin Energy  =      -1.7213311793706987 [Eh]
	 SCS Correlation Energy    =      -1.8702096149103071 [Eh]
	 SCS Total Energy          =    -403.6129354981299002 [Eh]
	-----------------------------------------------------------

  Dipole Moment: [D]
     X:    -1.3321      Y:     1.4654      Z:    -0.0000     Total:     1.9804

*** Psi4 exiting successfully. Buy a developer a beer!
