                               Psi4 1.4a3.dev225

  ==> Input File <==

--------------------------------------------------------------------------
#psi4
#
memory 32 gb

molecule  {
0 1
  N        0.1871790    -0.9111820    -0.0000020
  C        2.0846610     0.5733200    -0.0000030
  C        2.9631220    -0.4040200    -0.7474220
  C        2.9631210    -0.4040120     0.7474270
  C        0.6178930     0.3663440    -0.0000030
  C       -0.2752490     1.4465330    -0.0000020
  C       -1.6439530     1.1986260     0.0000010
  C       -2.1086100    -0.1215530     0.0000030
  C       -1.1379910    -1.1285870     0.0000010
  C       -3.5774520    -0.4452540     0.0000000
  H        2.4036780     1.6130560    -0.0000090
  H        3.8277670    -0.0076600    -1.2704010
  H        2.4452750    -1.2187140    -1.2419740
  H        2.4452760    -1.2187020     1.2419880
  H        3.8277650    -0.0076460     1.2704030
  H        0.1039660     2.4659580    -0.0000030
  H       -2.3510000     2.0273860     0.0000010
  H       -1.4419230    -2.1762520     0.0000020
  H       -4.0246496    -0.0708911     0.9262309
  H       -3.7381210    -1.5268000     0.0000420
  H       -4.0730850    -0.0304030    -0.8833370
units angstrom
no_reorient  #important for SAPT in psi4, default
symmetry c1  #important for SAPT in psi4, default
}

set PROPERTIES_ORIGIN ["COM"]
properties('MP2/aug-cc-pvtz', properties = ['dipole'])
--------------------------------------------------------------------------

    Molecular point group: c1
  Charge       = 0
  Multiplicity = 1
  Basis Set: AUG-CC-PVTZ
    Blend: AUG-CC-PVTZ
  Basis Set: (AUG-CC-PVTZ AUX)
    Blend: AUG-CC-PVTZ-JKFIT

    Orbital Energies [Eh]
    ---------------------

    Doubly Occupied:

       1A    -15.555547     2A    -11.275916     3A    -11.267414
       4A    -11.251459     5A    -11.238965     6A    -11.233693
       7A    -11.231271     8A    -11.229330     9A    -11.221460
      10A    -11.220767    11A     -1.251012    12A     -1.140749
      13A     -1.091636    14A     -1.042447    15A     -0.951030
      16A     -0.866947    17A     -0.839818    18A     -0.814831
      19A     -0.781016    20A     -0.700730    21A     -0.666693
      22A     -0.638480    23A     -0.625892    24A     -0.600745
      25A     -0.589799    26A     -0.564508    27A     -0.543906
      28A     -0.536288    29A     -0.527856    30A     -0.504193
      31A     -0.498647    32A     -0.429518    33A     -0.427061
      34A     -0.406067    35A     -0.372380    36A     -0.312664

  @DF-RHF Final Energy:  -401.77313115773609

   => Energetics <=

    Nuclear Repulsion Energy =            489.0798457903391636
    One-Electron Energy =               -1512.8044780795698898
    Two-Electron Energy =                 621.9515011314946378
    Total Energy =                       -401.7731311577360884
  Basis Set: (AUG-CC-PVTZ AUX)
    Blend: AUG-CC-PVTZ-RI
    Molecular point group: c1

    Geometry (in Angstrom), charge = 0, multiplicity = 1:

       Center              X                  Y                   Z               Mass
    ------------   -----------------  -----------------  -----------------  -----------------
         N            0.182159552547    -0.911674661799    -0.000327157412    14.003074004430
         C            2.079641552547     0.572827338201    -0.000328157412    12.000000000000
         C            2.958102552547    -0.404512661799    -0.747747157412    12.000000000000
         C            2.958101552547    -0.404504661799     0.747101842588    12.000000000000
         C            0.612873552547     0.365851338201    -0.000328157412    12.000000000000
         C           -0.280268447453     1.446040338201    -0.000327157412    12.000000000000
         C           -1.648972447453     1.198133338201    -0.000324157412    12.000000000000
         C           -2.113629447453    -0.122045661799    -0.000322157412    12.000000000000
         C           -1.143010447453    -1.129079661799    -0.000324157412    12.000000000000
         C           -3.582471447453    -0.445746661799    -0.000325157412    12.000000000000
         H            2.398658552547     1.612563338201    -0.000334157412     1.007825032230
         H            3.822747552547    -0.008152661799    -1.270726157412     1.007825032230
         H            2.440255552547    -1.219206661799    -1.242299157412     1.007825032230
         H            2.440256552547    -1.219194661799     1.241662842588     1.007825032230
         H            3.822745552547    -0.008138661799     1.270077842588     1.007825032230
         H            0.098946552547     2.465465338201    -0.000328157412     1.007825032230
         H           -2.356019447453     2.026893338201    -0.000324157412     1.007825032230
         H           -1.446942447453    -2.176744661799    -0.000323157412     1.007825032230
         H           -4.029669047453    -0.071383761799     0.925905742588     1.007825032230
         H           -3.743140447453    -1.527292661799    -0.000283157412     1.007825032230
         H           -4.078104447453    -0.030895661799    -0.883662157412     1.007825032230

  Basis Set: AUG-CC-PVTZ
    Blend: AUG-CC-PVTZ
  Basis Set: (AUG-CC-PVTZ AUX)
    Blend: AUG-CC-PVTZ-JKFIT
	 Reference Energy          =    -401.7731311577360884 [Eh]
	 Singles Energy            =      -0.0000000000000000 [Eh]
	 Same-Spin Energy          =      -0.4459978673991402 [Eh]
	 Opposite-Spin Energy      =      -1.4317547011167693 [Eh]
	 Correlation Energy        =      -1.8777525685159095 [Eh]
	 Total Energy              =    -403.6508837262520046 [Eh]

	 ================> DF-SCS-MP2 Energies <==================
	-----------------------------------------------------------
	 SCS Same-Spin Scale       =       0.3333333333333333 [-]
	 SCS Opposite-Spin Scale   =       1.2000000000000000 [-]
	 SCS Same-Spin Energy      =      -0.1486659557997134 [Eh]
	 SCS Opposite-Spin Energy  =      -1.7181056413401230 [Eh]
	 SCS Correlation Energy    =      -1.8667715971398364 [Eh]
	 SCS Total Energy          =    -403.6399027548759477 [Eh]
	-----------------------------------------------------------

  Dipole Moment: [D]
     X:    -1.3097      Y:     1.4340      Z:     0.0106     Total:     1.9421

*** Psi4 exiting successfully. Buy a developer a beer!
