                               Psi4 1.4a3.dev225

  ==> Input File <==

--------------------------------------------------------------------------
#psi4
#
memory 32 gb

molecule  {
0 1
  N        0.1871790    -0.9111820    -0.0000020
  C        2.0846610     0.5733200    -0.0000030
  C        2.9631220    -0.4040200    -0.7474220
  C        2.9631210    -0.4040120     0.7474270
  C        0.6178930     0.3663440    -0.0000030
  C       -0.2752490     1.4465330    -0.0000020
  C       -1.6439530     1.1986260     0.0000010
  C       -2.1116658    -0.1087509    -0.0227100
  C       -1.1379910    -1.1285870     0.0000010
  C       -3.5774520    -0.4452540     0.0000000
  H        2.4036780     1.6130560    -0.0000090
  H        3.8277670    -0.0076600    -1.2704010
  H        2.4452750    -1.2187140    -1.2419740
  H        2.4452760    -1.2187020     1.2419880
  H        3.8277650    -0.0076460     1.2704030
  H        0.1039660     2.4659580    -0.0000030
  H       -2.3510000     2.0273860     0.0000010
  H       -1.4419230    -2.1762520     0.0000020
  H       -4.0731050    -0.0303320     0.8832920
  H       -3.7381210    -1.5268000     0.0000420
  H       -4.0730850    -0.0304030    -0.8833370
units angstrom
no_reorient  #important for SAPT in psi4, default
symmetry c1  #important for SAPT in psi4, default
}

set PROPERTIES_ORIGIN ["COM"]
properties('MP2/aug-cc-pvtz', properties = ['dipole'])
--------------------------------------------------------------------------

    Molecular point group: c1
  Charge       = 0
  Multiplicity = 1
  Basis Set: AUG-CC-PVTZ
    Blend: AUG-CC-PVTZ
  Basis Set: (AUG-CC-PVTZ AUX)
    Blend: AUG-CC-PVTZ-JKFIT

    Orbital Energies [Eh]
    ---------------------

    Doubly Occupied:

       1A    -15.556216     2A    -11.275744     3A    -11.269670
       4A    -11.250160     5A    -11.239702     6A    -11.233448
       7A    -11.231220     8A    -11.229382     9A    -11.221401
      10A    -11.220708    11A     -1.251194    12A     -1.140682
      13A     -1.092831    14A     -1.041623    15A     -0.951141
      16A     -0.865831    17A     -0.841489    18A     -0.814804
      19A     -0.780799    20A     -0.700854    21A     -0.667108
      22A     -0.639030    23A     -0.626342    24A     -0.600815
      25A     -0.583851    26A     -0.563872    27A     -0.548217
      28A     -0.535393    29A     -0.529651    30A     -0.504046
      31A     -0.500079    32A     -0.429313    33A     -0.427053
      34A     -0.405889    35A     -0.373433    36A     -0.311738

  @DF-RHF Final Energy:  -401.77326398113485

   => Energetics <=

    Nuclear Repulsion Energy =            488.9967331731479590
    One-Electron Energy =               -1512.6305382307446052
    Two-Electron Energy =                 621.8605410764618000
    Total Energy =                       -401.7732639811348463
  Basis Set: (AUG-CC-PVTZ AUX)
    Blend: AUG-CC-PVTZ-RI
    Molecular point group: c1

    Geometry (in Angstrom), charge = 0, multiplicity = 1:

       Center              X                  Y                   Z               Mass
    ------------   -----------------  -----------------  -----------------  -----------------
         N            0.182802010369    -0.913136100821     0.002045920331    14.003074004430
         C            2.080284010369     0.571365899179     0.002044920331    12.000000000000
         C            2.958745010369    -0.405974100821    -0.745374079669    12.000000000000
         C            2.958744010369    -0.405966100821     0.749474920331    12.000000000000
         C            0.613516010369     0.364389899179     0.002044920331    12.000000000000
         C           -0.279625989631     1.444578899179     0.002045920331    12.000000000000
         C           -1.648329989631     1.196671899179     0.002048920331    12.000000000000
         C           -2.116042789631    -0.110705000821    -0.020662079669    12.000000000000
         C           -1.142367989631    -1.130541100821     0.002048920331    12.000000000000
         C           -3.581828989631    -0.447208100821     0.002047920331    12.000000000000
         H            2.399301010369     1.611101899179     0.002038920331     1.007825032230
         H            3.823390010369    -0.009614100821    -1.268353079669     1.007825032230
         H            2.440898010369    -1.220668100821    -1.239926079669     1.007825032230
         H            2.440899010369    -1.220656100821     1.244035920331     1.007825032230
         H            3.823388010369    -0.009600100821     1.272450920331     1.007825032230
         H            0.099589010369     2.464003899179     0.002044920331     1.007825032230
         H           -2.355376989631     2.025431899179     0.002048920331     1.007825032230
         H           -1.446299989631    -2.178206100821     0.002049920331     1.007825032230
         H           -4.077481989631    -0.032286100821     0.885339920331     1.007825032230
         H           -3.742497989631    -1.528754100821     0.002089920331     1.007825032230
         H           -4.077461989631    -0.032357100821    -0.881289079669     1.007825032230

  Basis Set: AUG-CC-PVTZ
    Blend: AUG-CC-PVTZ
  Basis Set: (AUG-CC-PVTZ AUX)
    Blend: AUG-CC-PVTZ-JKFIT
	 Reference Energy          =    -401.7732639811348463 [Eh]
	 Singles Energy            =      -0.0000000000000000 [Eh]
	 Same-Spin Energy          =      -0.4459937951017264 [Eh]
	 Opposite-Spin Energy      =      -1.4317176493975623 [Eh]
	 Correlation Energy        =      -1.8777114444992886 [Eh]
	 Total Energy              =    -403.6509754256341580 [Eh]

	 ================> DF-SCS-MP2 Energies <==================
	-----------------------------------------------------------
	 SCS Same-Spin Scale       =       0.3333333333333333 [-]
	 SCS Opposite-Spin Scale   =       1.2000000000000000 [-]
	 SCS Same-Spin Energy      =      -0.1486645983672421 [Eh]
	 SCS Opposite-Spin Energy  =      -1.7180611792770748 [Eh]
	 SCS Correlation Energy    =      -1.8667257776443169 [Eh]
	 SCS Total Energy          =    -403.6399897587791656 [Eh]
	-----------------------------------------------------------

  Dipole Moment: [D]
     X:    -1.3208      Y:     1.4403      Z:     0.0055     Total:     1.9543

*** Psi4 exiting successfully. Buy a developer a beer!
