                               Psi4 1.4a3.dev225

  ==> Input File <==

--------------------------------------------------------------------------
#psi4
#
memory 32 gb

molecule  {
0 1
  N        0.1871790    -0.9111820    -0.0000020
  C        2.0846610     0.5733200    -0.0000030
  C        2.9631220    -0.4040200    -0.7474220
  C        2.9631210    -0.4040120     0.7474270
  C        0.6178930     0.3663440    -0.0000030
  C       -0.2752490     1.4465330    -0.0000020
  C       -1.6439530     1.1986260     0.0000010
  C       -2.1086100    -0.1215530     0.0000030
  C       -1.1379910    -1.1285870     0.0000010
  C       -3.5774520    -0.4452540     0.0000000
  H        2.4036780     1.6130560    -0.0000090
  H        3.8277670    -0.0076600    -1.2704010
  H        2.4452750    -1.2187140    -1.2419740
  H        2.4452760    -1.2187020     1.2419880
  H        3.8277650    -0.0076460     1.2704030
  H        0.1039660     2.4659580    -0.0000030
  H       -2.3510000     2.0273860     0.0000010
  H       -1.4140613    -2.0802118     0.0000019
  H       -4.0731050    -0.0303320     0.8832920
  H       -3.7381210    -1.5268000     0.0000420
  H       -4.0730850    -0.0304030    -0.8833370
units angstrom
no_reorient  #important for SAPT in psi4, default
symmetry c1  #important for SAPT in psi4, default
}

set PROPERTIES_ORIGIN ["COM"]
properties('MP2/aug-cc-pvtz', properties = ['dipole'])
--------------------------------------------------------------------------

    Molecular point group: c1
  Charge       = 0
  Multiplicity = 1
  Basis Set: AUG-CC-PVTZ
    Blend: AUG-CC-PVTZ
  Basis Set: (AUG-CC-PVTZ AUX)
    Blend: AUG-CC-PVTZ-JKFIT

    Orbital Energies [Eh]
    ---------------------

    Doubly Occupied:

       1A    -15.554765     2A    -11.275282     3A    -11.255653
       4A    -11.250944     5A    -11.238449     6A    -11.233489
       7A    -11.230997     8A    -11.229501     9A    -11.221282
      10A    -11.220590    11A     -1.250965    12A     -1.140807
      13A     -1.091010    14A     -1.044515    15A     -0.951900
      16A     -0.873083    17A     -0.841839    18A     -0.814656
      19A     -0.782605    20A     -0.707594    21A     -0.666882
      22A     -0.638899    23A     -0.632555    24A     -0.604634
      25A     -0.583715    26A     -0.567639    27A     -0.549923
      28A     -0.534950    29A     -0.527877    30A     -0.503828
      31A     -0.500667    32A     -0.429091    33A     -0.427311
      34A     -0.406586    35A     -0.371859    36A     -0.312284

  @DF-RHF Final Energy:  -401.76820100172824

   => Energetics <=

    Nuclear Repulsion Energy =            489.5793146615989144
    One-Electron Energy =               -1513.7577840956637374
    Two-Electron Energy =                 622.4102684323366930
    Total Energy =                       -401.7682010017282437
  Basis Set: (AUG-CC-PVTZ AUX)
    Blend: AUG-CC-PVTZ-RI
    Molecular point group: c1

    Geometry (in Angstrom), charge = 0, multiplicity = 1:

       Center              X                  Y                   Z               Mass
    ------------   -----------------  -----------------  -----------------  -----------------
         N            0.182315499493    -0.912709067643    -0.000001999432    14.003074004430
         C            2.079797499493     0.571792932357    -0.000002999432    12.000000000000
         C            2.958258499493    -0.405547067643    -0.747421999432    12.000000000000
         C            2.958257499493    -0.405539067643     0.747427000568    12.000000000000
         C            0.613029499493     0.364816932357    -0.000002999432    12.000000000000
         C           -0.280112500507     1.445005932357    -0.000001999432    12.000000000000
         C           -1.648816500507     1.197098932357     0.000001000568    12.000000000000
         C           -2.113473500507    -0.123080067643     0.000003000568    12.000000000000
         C           -1.142854500507    -1.130114067643     0.000001000568    12.000000000000
         C           -3.582315500507    -0.446781067643     0.000000000568    12.000000000000
         H            2.398814499493     1.611528932357    -0.000008999432     1.007825032230
         H            3.822903499493    -0.009187067643    -1.270400999432     1.007825032230
         H            2.440411499493    -1.220241067643    -1.241973999432     1.007825032230
         H            2.440412499493    -1.220229067643     1.241988000568     1.007825032230
         H            3.822901499493    -0.009173067643     1.270403000568     1.007825032230
         H            0.099102499493     2.464430932357    -0.000002999432     1.007825032230
         H           -2.355863500507     2.025858932357     0.000001000568     1.007825032230
         H           -1.418924800507    -2.081738867643     0.000001900568     1.007825032230
         H           -4.077968500507    -0.031859067643     0.883292000568     1.007825032230
         H           -3.742984500507    -1.528327067643     0.000042000568     1.007825032230
         H           -4.077948500507    -0.031930067643    -0.883336999432     1.007825032230

  Basis Set: AUG-CC-PVTZ
    Blend: AUG-CC-PVTZ
  Basis Set: (AUG-CC-PVTZ AUX)
    Blend: AUG-CC-PVTZ-JKFIT
	 Reference Energy          =    -401.7682010017282437 [Eh]
	 Singles Energy            =      -0.0000000000000000 [Eh]
	 Same-Spin Energy          =      -0.4457126909733747 [Eh]
	 Opposite-Spin Energy      =      -1.4310251258109861 [Eh]
	 Correlation Energy        =      -1.8767378167843609 [Eh]
	 Total Energy              =    -403.6449388185126281 [Eh]

	 ================> DF-SCS-MP2 Energies <==================
	-----------------------------------------------------------
	 SCS Same-Spin Scale       =       0.3333333333333333 [-]
	 SCS Opposite-Spin Scale   =       1.2000000000000000 [-]
	 SCS Same-Spin Energy      =      -0.1485708969911249 [Eh]
	 SCS Opposite-Spin Energy  =      -1.7172301509731833 [Eh]
	 SCS Correlation Energy    =      -1.8658010479643081 [Eh]
	 SCS Total Energy          =    -403.6340020496925263 [Eh]
	-----------------------------------------------------------

  Dipole Moment: [D]
     X:    -1.3496      Y:     1.4223      Z:    -0.0000     Total:     1.9607

*** Psi4 exiting successfully. Buy a developer a beer!
