                               Psi4 1.4a3.dev225

  ==> Input File <==

--------------------------------------------------------------------------
#psi4
#
memory 32 gb

molecule  {
0 1
  N        0.1871790    -0.9111820    -0.0000020
  C        2.0846610     0.5733200    -0.0000030
  C        2.9631220    -0.4040200    -0.7474220
  C        2.9631210    -0.4040120     0.7474270
  C        0.6178930     0.3663440    -0.0000030
  C       -0.2752490     1.4465330    -0.0000020
  C       -1.6439530     1.1986260     0.0000010
  C       -2.1086100    -0.1215530     0.0000030
  C       -1.1379910    -1.1285870     0.0000010
  C       -3.5774520    -0.4452540     0.0000000
  H        2.4036780     1.6130560    -0.0000090
  H        3.8277670    -0.0076600    -1.2704010
  H        2.4452750    -1.2187140    -1.2419740
  H        2.4930189    -1.1435914     1.1963918
  H        3.8277650    -0.0076460     1.2704030
  H        0.1039660     2.4659580    -0.0000030
  H       -2.3510000     2.0273860     0.0000010
  H       -1.4419230    -2.1762520     0.0000020
  H       -4.0731050    -0.0303320     0.8832920
  H       -3.7381210    -1.5268000     0.0000420
  H       -4.0730850    -0.0304030    -0.8833370
units angstrom
no_reorient  #important for SAPT in psi4, default
symmetry c1  #important for SAPT in psi4, default
}

set PROPERTIES_ORIGIN ["COM"]
properties('MP2/aug-cc-pvtz', properties = ['dipole'])
--------------------------------------------------------------------------

    Molecular point group: c1
  Charge       = 0
  Multiplicity = 1
  Basis Set: AUG-CC-PVTZ
    Blend: AUG-CC-PVTZ
  Basis Set: (AUG-CC-PVTZ AUX)
    Blend: AUG-CC-PVTZ-JKFIT

    Orbital Energies [Eh]
    ---------------------

    Doubly Occupied:

       1A    -15.555718     2A    -11.276108     3A    -11.267766
       4A    -11.251698     5A    -11.239363     6A    -11.233718
       7A    -11.230868     8A    -11.229244     9A    -11.220729
      10A    -11.210021    11A     -1.251240    12A     -1.142318
      13A     -1.091641    14A     -1.042638    15A     -0.951280
      16A     -0.868100    17A     -0.840784    18A     -0.825563
      19A     -0.782646    20A     -0.703662    21A     -0.668524
      22A     -0.640193    23A     -0.626141    24A     -0.604878
      25A     -0.583698    26A     -0.564663    27A     -0.549801
      28A     -0.535972    29A     -0.530460    30A     -0.511321
      31A     -0.498970    32A     -0.430176    33A     -0.427285
      34A     -0.406160    35A     -0.372499    36A     -0.312562

  @DF-RHF Final Energy:  -401.76763994002226

   => Energetics <=

    Nuclear Repulsion Energy =            489.4494596020220456
    One-Electron Energy =               -1513.4773832625237446
    Two-Electron Energy =                 622.2602837204794923
    Total Energy =                       -401.7676399400222635
  Basis Set: (AUG-CC-PVTZ AUX)
    Blend: AUG-CC-PVTZ-RI
    Molecular point group: c1

    Geometry (in Angstrom), charge = 0, multiplicity = 1:

       Center              X                  Y                   Z               Mass
    ------------   -----------------  -----------------  -----------------  -----------------
         N            0.182164947993    -0.912550577076     0.000343279587    14.003074004430
         C            2.079646947993     0.571951422924     0.000342279587    12.000000000000
         C            2.958107947993    -0.405388577076    -0.747076720413    12.000000000000
         C            2.958106947993    -0.405380577076     0.747772279587    12.000000000000
         C            0.612878947993     0.364975422924     0.000342279587    12.000000000000
         C           -0.280263052007     1.445164422924     0.000343279587    12.000000000000
         C           -1.648967052007     1.197257422924     0.000346279587    12.000000000000
         C           -2.113624052007    -0.122921577076     0.000348279587    12.000000000000
         C           -1.143005052007    -1.129955577076     0.000346279587    12.000000000000
         C           -3.582466052007    -0.446622577076     0.000345279587    12.000000000000
         H            2.398663947993     1.611687422924     0.000336279587     1.007825032230
         H            3.822752947993    -0.009028577076    -1.270055720413     1.007825032230
         H            2.440260947993    -1.220082577076    -1.241628720413     1.007825032230
         H            2.488004847993    -1.144959977076     1.196737079587     1.007825032230
         H            3.822750947993    -0.009014577076     1.270748279587     1.007825032230
         H            0.098951947993     2.464589422924     0.000342279587     1.007825032230
         H           -2.356014052007     2.026017422924     0.000346279587     1.007825032230
         H           -1.446937052007    -2.177620577076     0.000347279587     1.007825032230
         H           -4.078119052007    -0.031700577076     0.883637279587     1.007825032230
         H           -3.743135052007    -1.528168577076     0.000387279587     1.007825032230
         H           -4.078099052007    -0.031771577076    -0.882991720413     1.007825032230

  Basis Set: AUG-CC-PVTZ
    Blend: AUG-CC-PVTZ
  Basis Set: (AUG-CC-PVTZ AUX)
    Blend: AUG-CC-PVTZ-JKFIT
	 Reference Energy          =    -401.7676399400222635 [Eh]
	 Singles Energy            =      -0.0000000000000000 [Eh]
	 Same-Spin Energy          =      -0.4458028914671910 [Eh]
	 Opposite-Spin Energy      =      -1.4311512298245175 [Eh]
	 Correlation Energy        =      -1.8769541212917085 [Eh]
	 Total Energy              =    -403.6445940613139669 [Eh]

	 ================> DF-SCS-MP2 Energies <==================
	-----------------------------------------------------------
	 SCS Same-Spin Scale       =       0.3333333333333333 [-]
	 SCS Opposite-Spin Scale   =       1.2000000000000000 [-]
	 SCS Same-Spin Energy      =      -0.1486009638223970 [Eh]
	 SCS Opposite-Spin Energy  =      -1.7173814757894210 [Eh]
	 SCS Correlation Energy    =      -1.8659824396118181 [Eh]
	 SCS Total Energy          =    -403.6336223796340619 [Eh]
	-----------------------------------------------------------

  Dipole Moment: [D]
     X:    -1.3050      Y:     1.4508      Z:     0.0169     Total:     1.9514

*** Psi4 exiting successfully. Buy a developer a beer!
