                               Psi4 1.4a3.dev225

  ==> Input File <==

--------------------------------------------------------------------------
#psi4
#
memory 32 gb

molecule  {
0 1
  N        0.1939591    -0.9575622    -0.0000020
  C        2.0846610     0.5733200    -0.0000030
  C        2.9631220    -0.4040200    -0.7474220
  C        2.9631210    -0.4040120     0.7474270
  C        0.6178930     0.3663440    -0.0000030
  C       -0.2752490     1.4465330    -0.0000020
  C       -1.6439530     1.1986260     0.0000010
  C       -2.1086100    -0.1215530     0.0000030
  C       -1.1379910    -1.1285870     0.0000010
  C       -3.5774520    -0.4452540     0.0000000
  H        2.4036780     1.6130560    -0.0000090
  H        3.8277670    -0.0076600    -1.2704010
  H        2.4452750    -1.2187140    -1.2419740
  H        2.4452760    -1.2187020     1.2419880
  H        3.8277650    -0.0076460     1.2704030
  H        0.1039660     2.4659580    -0.0000030
  H       -2.3510000     2.0273860     0.0000010
  H       -1.4419230    -2.1762520     0.0000020
  H       -4.0731050    -0.0303320     0.8832920
  H       -3.7381210    -1.5268000     0.0000420
  H       -4.0730850    -0.0304030    -0.8833370
units angstrom
no_reorient  #important for SAPT in psi4, default
symmetry c1  #important for SAPT in psi4, default
}

set PROPERTIES_ORIGIN ["COM"]
properties('MP2/aug-cc-pvtz', properties = ['dipole'])
--------------------------------------------------------------------------

    Molecular point group: c1
  Charge       = 0
  Multiplicity = 1
  Basis Set: AUG-CC-PVTZ
    Blend: AUG-CC-PVTZ
  Basis Set: (AUG-CC-PVTZ AUX)
    Blend: AUG-CC-PVTZ-JKFIT

    Orbital Energies [Eh]
    ---------------------

    Doubly Occupied:

       1A    -15.561678     2A    -11.281030     3A    -11.268120
       4A    -11.253107     5A    -11.239337     6A    -11.234478
       7A    -11.232357     8A    -11.229426     9A    -11.221936
      10A    -11.221242    11A     -1.242584    12A     -1.141239
      13A     -1.091495    14A     -1.042585    15A     -0.949283
      16A     -0.866696    17A     -0.838842    18A     -0.815250
      19A     -0.780857    20A     -0.698964    21A     -0.666336
      22A     -0.636456    23A     -0.626372    24A     -0.600199
      25A     -0.583341    26A     -0.564665    27A     -0.549368
      28A     -0.532114    29A     -0.527317    30A     -0.503696
      31A     -0.496177    32A     -0.430210    33A     -0.428947
      34A     -0.411477    35A     -0.373223    36A     -0.310895

  @DF-RHF Final Energy:  -401.76936298380770

   => Energetics <=

    Nuclear Repulsion Energy =            488.0210460174200762
    One-Electron Energy =               -1510.6782113591564212
    Two-Electron Energy =                 620.8878023579286491
    Total Energy =                       -401.7693629838076959
  Basis Set: (AUG-CC-PVTZ AUX)
    Blend: AUG-CC-PVTZ-RI
    Molecular point group: c1

    Geometry (in Angstrom), charge = 0, multiplicity = 1:

       Center              X                  Y                   Z               Mass
    ------------   -----------------  -----------------  -----------------  -----------------
         N            0.188593210503    -0.953482070556    -0.000002000189    14.003074004430
         C            2.079295110503     0.577400129444    -0.000003000189    12.000000000000
         C            2.957756110503    -0.399939870556    -0.747422000189    12.000000000000
         C            2.957755110503    -0.399931870556     0.747426999811    12.000000000000
         C            0.612527110503     0.370424129444    -0.000003000189    12.000000000000
         C           -0.280614889497     1.450613129444    -0.000002000189    12.000000000000
         C           -1.649318889497     1.202706129444     0.000000999811    12.000000000000
         C           -2.113975889497    -0.117472870556     0.000002999811    12.000000000000
         C           -1.143356889497    -1.124506870556     0.000000999811    12.000000000000
         C           -3.582817889497    -0.441173870556    -0.000000000189    12.000000000000
         H            2.398312110503     1.617136129444    -0.000009000189     1.007825032230
         H            3.822401110503    -0.003579870556    -1.270401000189     1.007825032230
         H            2.439909110503    -1.214633870556    -1.241974000189     1.007825032230
         H            2.439910110503    -1.214621870556     1.241987999811     1.007825032230
         H            3.822399110503    -0.003565870556     1.270402999811     1.007825032230
         H            0.098600110503     2.470038129444    -0.000003000189     1.007825032230
         H           -2.356365889497     2.031466129444     0.000000999811     1.007825032230
         H           -1.447288889497    -2.172171870556     0.000001999811     1.007825032230
         H           -4.078470889497    -0.026251870556     0.883291999811     1.007825032230
         H           -3.743486889497    -1.522719870556     0.000041999811     1.007825032230
         H           -4.078450889497    -0.026322870556    -0.883337000189     1.007825032230

  Basis Set: AUG-CC-PVTZ
    Blend: AUG-CC-PVTZ
  Basis Set: (AUG-CC-PVTZ AUX)
    Blend: AUG-CC-PVTZ-JKFIT
	 Reference Energy          =    -401.7693629838076959 [Eh]
	 Singles Energy            =      -0.0000000000000000 [Eh]
	 Same-Spin Energy          =      -0.4463596468726240 [Eh]
	 Opposite-Spin Energy      =      -1.4331013514908983 [Eh]
	 Correlation Energy        =      -1.8794609983635224 [Eh]
	 Total Energy              =    -403.6488239821712227 [Eh]

	 ================> DF-SCS-MP2 Energies <==================
	-----------------------------------------------------------
	 SCS Same-Spin Scale       =       0.3333333333333333 [-]
	 SCS Opposite-Spin Scale   =       1.2000000000000000 [-]
	 SCS Same-Spin Energy      =      -0.1487865489575413 [Eh]
	 SCS Opposite-Spin Energy  =      -1.7197216217890781 [Eh]
	 SCS Correlation Energy    =      -1.8685081707466193 [Eh]
	 SCS Total Energy          =    -403.6378711545543183 [Eh]
	-----------------------------------------------------------

  Dipole Moment: [D]
     X:    -1.3108      Y:     1.5288      Z:    -0.0000     Total:     2.0138

*** Psi4 exiting successfully. Buy a developer a beer!
