                               Psi4 1.4a3.dev225

  ==> Input File <==

--------------------------------------------------------------------------
#psi4
#
memory 32 gb

molecule  {
0 1
  N        0.1871790    -0.9111820    -0.0000020
  C        2.0846610     0.5733200    -0.0000030
  C        2.9631220    -0.4040200    -0.7474220
  C        2.9631210    -0.4040120     0.7474270
  C        0.6178930     0.3663440    -0.0000030
  C       -0.2752490     1.4465330    -0.0000020
  C       -1.6439530     1.1986260     0.0000010
  C       -2.1086100    -0.1215530     0.0000030
  C       -1.1379910    -1.1285870     0.0000010
  C       -3.5774520    -0.4452540     0.0000000
  H        2.4036780     1.6130560    -0.0000090
  H        3.8277670    -0.0076600    -1.2704010
  H        2.4452750    -1.2187140    -1.2419740
  H        2.4452760    -1.2187020     1.2419880
  H        3.9870791     0.0653860     1.3667634
  H        0.1039660     2.4659580    -0.0000030
  H       -2.3510000     2.0273860     0.0000010
  H       -1.4419230    -2.1762520     0.0000020
  H       -4.0731050    -0.0303320     0.8832920
  H       -3.7381210    -1.5268000     0.0000420
  H       -4.0730850    -0.0304030    -0.8833370
units angstrom
no_reorient  #important for SAPT in psi4, default
symmetry c1  #important for SAPT in psi4, default
}

set PROPERTIES_ORIGIN ["COM"]
properties('MP2/aug-cc-pvtz', properties = ['dipole'])
--------------------------------------------------------------------------

    Molecular point group: c1
  Charge       = 0
  Multiplicity = 1
  Basis Set: AUG-CC-PVTZ
    Blend: AUG-CC-PVTZ
  Basis Set: (AUG-CC-PVTZ AUX)
    Blend: AUG-CC-PVTZ-JKFIT

    Orbital Energies [Eh]
    ---------------------

    Doubly Occupied:

       1A    -15.557085     2A    -11.277269     3A    -11.268724
       4A    -11.252609     5A    -11.243048     6A    -11.240518
       7A    -11.234939     8A    -11.233296     9A    -11.229989
      10A    -11.223364    11A     -1.252435    12A     -1.140936
      13A     -1.092495    14A     -1.043170    15A     -0.951436
      16A     -0.868058    17A     -0.840380    18A     -0.803222
      19A     -0.780368    20A     -0.700727    21A     -0.666147
      22A     -0.632377    23A     -0.621568    24A     -0.602146
      25A     -0.584357    26A     -0.565422    27A     -0.549800
      28A     -0.533529    29A     -0.526713    30A     -0.500959
      31A     -0.485422    32A     -0.430423    33A     -0.427012
      34A     -0.407672    35A     -0.373361    36A     -0.313670

  @DF-RHF Final Energy:  -401.75234982941652

   => Energetics <=

    Nuclear Repulsion Energy =            488.1356168061458334
    One-Electron Energy =               -1510.8666399418150377
    Two-Electron Energy =                 620.9786733062526309
    Total Energy =                       -401.7523498294165165
  Basis Set: (AUG-CC-PVTZ AUX)
    Blend: AUG-CC-PVTZ-RI
    Molecular point group: c1

    Geometry (in Angstrom), charge = 0, multiplicity = 1:

       Center              X                  Y                   Z               Mass
    ------------   -----------------  -----------------  -----------------  -----------------
         N            0.181320068837    -0.912534836761    -0.000731694711    14.003074004430
         C            2.078802068837     0.571967163239    -0.000732694711    12.000000000000
         C            2.957263068837    -0.405372836761    -0.748151694711    12.000000000000
         C            2.957262068837    -0.405364836761     0.746697305289    12.000000000000
         C            0.612034068837     0.364991163239    -0.000732694711    12.000000000000
         C           -0.281107931163     1.445180163239    -0.000731694711    12.000000000000
         C           -1.649811931163     1.197273163239    -0.000728694711    12.000000000000
         C           -2.114468931163    -0.122905836761    -0.000726694711    12.000000000000
         C           -1.143849931163    -1.129939836761    -0.000728694711    12.000000000000
         C           -3.583310931163    -0.446606836761    -0.000729694711    12.000000000000
         H            2.397819068837     1.611703163239    -0.000738694711     1.007825032230
         H            3.821908068837    -0.009012836761    -1.271130694711     1.007825032230
         H            2.439416068837    -1.220066836761    -1.242703694711     1.007825032230
         H            2.439417068837    -1.220054836761     1.241258305289     1.007825032230
         H            3.981220168837     0.064033163239     1.366033705289     1.007825032230
         H            0.098107068837     2.464605163239    -0.000732694711     1.007825032230
         H           -2.356858931163     2.026033163239    -0.000728694711     1.007825032230
         H           -1.447781931163    -2.177604836761    -0.000727694711     1.007825032230
         H           -4.078963931163    -0.031684836761     0.882562305289     1.007825032230
         H           -3.743979931163    -1.528152836761    -0.000687694711     1.007825032230
         H           -4.078943931163    -0.031755836761    -0.884066694711     1.007825032230

  Basis Set: AUG-CC-PVTZ
    Blend: AUG-CC-PVTZ
  Basis Set: (AUG-CC-PVTZ AUX)
    Blend: AUG-CC-PVTZ-JKFIT
	 Reference Energy          =    -401.7523498294165165 [Eh]
	 Singles Energy            =      -0.0000000000000000 [Eh]
	 Same-Spin Energy          =      -0.4460453752707558 [Eh]
	 Opposite-Spin Energy      =      -1.4333517575165016 [Eh]
	 Correlation Energy        =      -1.8793971327872574 [Eh]
	 Total Energy              =    -403.6317469622037493 [Eh]

	 ================> DF-SCS-MP2 Energies <==================
	-----------------------------------------------------------
	 SCS Same-Spin Scale       =       0.3333333333333333 [-]
	 SCS Opposite-Spin Scale   =       1.2000000000000000 [-]
	 SCS Same-Spin Energy      =      -0.1486817917569186 [Eh]
	 SCS Opposite-Spin Energy  =      -1.7200221090198018 [Eh]
	 SCS Correlation Energy    =      -1.8687039007767203 [Eh]
	 SCS Total Energy          =    -403.6210537301932391 [Eh]
	-----------------------------------------------------------

  Dipole Moment: [D]
     X:    -1.4460      Y:     1.4495      Z:    -0.0924     Total:     2.0495

*** Psi4 exiting successfully. Buy a developer a beer!
