                               Psi4 1.4a3.dev225

  ==> Input File <==

--------------------------------------------------------------------------
#psi4
#
memory 32 gb

molecule  {
0 1
  N        0.1991164    -1.0041508    -0.0000020
  C        2.0846610     0.5733200    -0.0000030
  C        2.9631220    -0.4040200    -0.7474220
  C        2.9631210    -0.4040120     0.7474270
  C        0.6178930     0.3663440    -0.0000030
  C       -0.2752490     1.4465330    -0.0000020
  C       -1.6439530     1.1986260     0.0000010
  C       -2.1086100    -0.1215530     0.0000030
  C       -1.1379910    -1.1285870     0.0000010
  C       -3.5774520    -0.4452540     0.0000000
  H        2.4036780     1.6130560    -0.0000090
  H        3.8277670    -0.0076600    -1.2704010
  H        2.4452750    -1.2187140    -1.2419740
  H        2.4452760    -1.2187020     1.2419880
  H        3.8277650    -0.0076460     1.2704030
  H        0.1039660     2.4659580    -0.0000030
  H       -2.3510000     2.0273860     0.0000010
  H       -1.4419230    -2.1762520     0.0000020
  H       -4.0731050    -0.0303320     0.8832920
  H       -3.7381210    -1.5268000     0.0000420
  H       -4.0730850    -0.0304030    -0.8833370
units angstrom
no_reorient  #important for SAPT in psi4, default
symmetry c1  #important for SAPT in psi4, default
}

set PROPERTIES_ORIGIN ["COM"]
properties('MP2/aug-cc-pvtz', properties = ['dipole'])
--------------------------------------------------------------------------

    Molecular point group: c1
  Charge       = 0
  Multiplicity = 1
  Basis Set: AUG-CC-PVTZ
    Blend: AUG-CC-PVTZ
  Basis Set: (AUG-CC-PVTZ AUX)
    Blend: AUG-CC-PVTZ-JKFIT

    Orbital Energies [Eh]
    ---------------------

    Doubly Occupied:

       1A    -15.567398     2A    -11.285546     3A    -11.268614
       4A    -11.254479     5A    -11.239342     6A    -11.235113
       7A    -11.233248     8A    -11.229583     9A    -11.222333
      10A    -11.221637    11A     -1.234823    12A     -1.141641
      13A     -1.091681    14A     -1.042572    15A     -0.947751
      16A     -0.866507    17A     -0.837197    18A     -0.815591
      19A     -0.780268    20A     -0.697063    21A     -0.666048
      22A     -0.634081    23A     -0.626302    24A     -0.599378
      25A     -0.583067    26A     -0.564881    27A     -0.548852
      28A     -0.529309    29A     -0.526692    30A     -0.503183
      31A     -0.493738    32A     -0.431011    33A     -0.430781
      34A     -0.414879    35A     -0.374245    36A     -0.309087

  @DF-RHF Final Energy:  -401.76190662562135

   => Energetics <=

    Nuclear Repulsion Energy =            487.0413398630042821
    One-Electron Energy =               -1508.7106524189371157
    Two-Electron Energy =                 619.9074059303114836
    Total Energy =                       -401.7619066256213500
  Basis Set: (AUG-CC-PVTZ AUX)
    Blend: AUG-CC-PVTZ-RI
    Molecular point group: c1

    Geometry (in Angstrom), charge = 0, multiplicity = 1:

       Center              X                  Y                   Z               Mass
    ------------   -----------------  -----------------  -----------------  -----------------
         N            0.193207881341    -0.995168816298    -0.000002000189    14.003074004430
         C            2.078752481341     0.582301983702    -0.000003000189    12.000000000000
         C            2.957213481341    -0.395038016298    -0.747422000189    12.000000000000
         C            2.957212481341    -0.395030016298     0.747426999811    12.000000000000
         C            0.611984481341     0.375325983702    -0.000003000189    12.000000000000
         C           -0.281157518659     1.455514983702    -0.000002000189    12.000000000000
         C           -1.649861518659     1.207607983702     0.000000999811    12.000000000000
         C           -2.114518518659    -0.112571016298     0.000002999811    12.000000000000
         C           -1.143899518659    -1.119605016298     0.000000999811    12.000000000000
         C           -3.583360518659    -0.436272016298    -0.000000000189    12.000000000000
         H            2.397769481341     1.622037983702    -0.000009000189     1.007825032230
         H            3.821858481341     0.001321983702    -1.270401000189     1.007825032230
         H            2.439366481341    -1.209732016298    -1.241974000189     1.007825032230
         H            2.439367481341    -1.209720016298     1.241987999811     1.007825032230
         H            3.821856481341     0.001335983702     1.270402999811     1.007825032230
         H            0.098057481341     2.474939983702    -0.000003000189     1.007825032230
         H           -2.356908518659     2.036367983702     0.000000999811     1.007825032230
         H           -1.447831518659    -2.167270016298     0.000001999811     1.007825032230
         H           -4.079013518659    -0.021350016298     0.883291999811     1.007825032230
         H           -3.744029518659    -1.517818016298     0.000041999811     1.007825032230
         H           -4.078993518659    -0.021421016298    -0.883337000189     1.007825032230

  Basis Set: AUG-CC-PVTZ
    Blend: AUG-CC-PVTZ
  Basis Set: (AUG-CC-PVTZ AUX)
    Blend: AUG-CC-PVTZ-JKFIT
	 Reference Energy          =    -401.7619066256213500 [Eh]
	 Singles Energy            =      -0.0000000000000000 [Eh]
	 Same-Spin Energy          =      -0.4467931692119068 [Eh]
	 Opposite-Spin Energy      =      -1.4347560824825634 [Eh]
	 Correlation Energy        =      -1.8815492516944701 [Eh]
	 Total Energy              =    -403.6434558773158301 [Eh]

	 ================> DF-SCS-MP2 Energies <==================
	-----------------------------------------------------------
	 SCS Same-Spin Scale       =       0.3333333333333333 [-]
	 SCS Opposite-Spin Scale   =       1.2000000000000000 [-]
	 SCS Same-Spin Energy      =      -0.1489310564039689 [Eh]
	 SCS Opposite-Spin Energy  =      -1.7217072989790760 [Eh]
	 SCS Correlation Energy    =      -1.8706383553830450 [Eh]
	 SCS Total Energy          =    -403.6325449810044006 [Eh]
	-----------------------------------------------------------

  Dipole Moment: [D]
     X:    -1.3057      Y:     1.5941      Z:    -0.0000     Total:     2.0606

*** Psi4 exiting successfully. Buy a developer a beer!
