                               Psi4 1.4a3.dev225

  ==> Input File <==

--------------------------------------------------------------------------
#psi4
#
memory 32 gb

molecule  {
0 1
  N        0.1871790    -0.9111820    -0.0000020
  C        2.0846610     0.5733200    -0.0000030
  C        2.9631220    -0.4040200    -0.7474220
  C        2.9631210    -0.4040120     0.7474270
  C        0.6178930     0.3663440    -0.0000030
  C       -0.2752490     1.4465330    -0.0000020
  C       -1.6439530     1.1986260     0.0000010
  C       -2.1086100    -0.1215530     0.0000030
  C       -1.1379910    -1.1285870     0.0000010
  C       -3.5774520    -0.4452540     0.0000000
  H        2.4036780     1.6130560    -0.0000090
  H        3.8277670    -0.0076600    -1.2704010
  H        2.4452750    -1.2187140    -1.2419740
  H        2.4452760    -1.2187020     1.2419880
  H        3.8277650    -0.0076460     1.2704030
  H        0.1039660     2.4659580    -0.0000030
  H       -2.3510000     2.0273860     0.0000010
  H       -1.4419230    -2.1762520     0.0000020
  H       -4.0491647    -0.0503710     0.9053129
  H       -3.7381210    -1.5268000     0.0000420
  H       -4.0730850    -0.0304030    -0.8833370
units angstrom
no_reorient  #important for SAPT in psi4, default
symmetry c1  #important for SAPT in psi4, default
}

set PROPERTIES_ORIGIN ["COM"]
properties('MP2/aug-cc-pvtz', properties = ['dipole'])
--------------------------------------------------------------------------

    Molecular point group: c1
  Charge       = 0
  Multiplicity = 1
  Basis Set: AUG-CC-PVTZ
    Blend: AUG-CC-PVTZ
  Basis Set: (AUG-CC-PVTZ AUX)
    Blend: AUG-CC-PVTZ-JKFIT

    Orbital Energies [Eh]
    ---------------------

    Doubly Occupied:

       1A    -15.555625     2A    -11.276032     3A    -11.267582
       4A    -11.251573     5A    -11.239171     6A    -11.233745
       7A    -11.231328     8A    -11.229287     9A    -11.221511
      10A    -11.220819    11A     -1.251100    12A     -1.140801
      13A     -1.091606    14A     -1.042442    15A     -0.951010
      16A     -0.867147    17A     -0.839937    18A     -0.814878
      19A     -0.781159    20A     -0.700896    21A     -0.666745
      22A     -0.638800    23A     -0.626021    24A     -0.600829
      25A     -0.586737    26A     -0.564585    27A     -0.546616
      28A     -0.535949    29A     -0.527982    30A     -0.504172
      31A     -0.498767    32A     -0.429497    33A     -0.427159
      34A     -0.406217    35A     -0.372417    36A     -0.312697

  @DF-RHF Final Energy:  -401.77356119550581

   => Energetics <=

    Nuclear Repulsion Energy =            489.0480895017974490
    One-Electron Energy =               -1512.7376194288306124
    Two-Electron Energy =                 621.9159687315273004
    Total Energy =                       -401.7735611955058630
  Basis Set: (AUG-CC-PVTZ AUX)
    Blend: AUG-CC-PVTZ-RI
    Molecular point group: c1

    Geometry (in Angstrom), charge = 0, multiplicity = 1:

       Center              X                  Y                   Z               Mass
    ------------   -----------------  -----------------  -----------------  -----------------
         N            0.182345194514    -0.911830051405    -0.000168754687    14.003074004430
         C            2.079827194514     0.572671948595    -0.000169754687    12.000000000000
         C            2.958288194514    -0.404668051405    -0.747588754687    12.000000000000
         C            2.958287194514    -0.404660051405     0.747260245313    12.000000000000
         C            0.613059194514     0.365695948595    -0.000169754687    12.000000000000
         C           -0.280082805486     1.445884948595    -0.000168754687    12.000000000000
         C           -1.648786805486     1.197977948595    -0.000165754687    12.000000000000
         C           -2.113443805486    -0.122201051405    -0.000163754687    12.000000000000
         C           -1.142824805486    -1.129235051405    -0.000165754687    12.000000000000
         C           -3.582285805486    -0.445902051405    -0.000166754687    12.000000000000
         H            2.398844194514     1.612407948595    -0.000175754687     1.007825032230
         H            3.822933194514    -0.008308051405    -1.270567754687     1.007825032230
         H            2.440441194514    -1.219362051405    -1.242140754687     1.007825032230
         H            2.440442194514    -1.219350051405     1.241821245313     1.007825032230
         H            3.822931194514    -0.008294051405     1.270236245313     1.007825032230
         H            0.099132194514     2.465309948595    -0.000169754687     1.007825032230
         H           -2.355833805486     2.026737948595    -0.000165754687     1.007825032230
         H           -1.446756805486    -2.176900051405    -0.000164754687     1.007825032230
         H           -4.053998505486    -0.051019051405     0.905146145313     1.007825032230
         H           -3.742954805486    -1.527448051405    -0.000124754687     1.007825032230
         H           -4.077918805486    -0.031051051405    -0.883503754687     1.007825032230

  Basis Set: AUG-CC-PVTZ
    Blend: AUG-CC-PVTZ
  Basis Set: (AUG-CC-PVTZ AUX)
    Blend: AUG-CC-PVTZ-JKFIT
	 Reference Energy          =    -401.7735611955058062 [Eh]
	 Singles Energy            =      -0.0000000000000000 [Eh]
	 Same-Spin Energy          =      -0.4459672161795207 [Eh]
	 Opposite-Spin Energy      =      -1.4316977112655573 [Eh]
	 Correlation Energy        =      -1.8776649274450781 [Eh]
	 Total Energy              =    -403.6512261229509022 [Eh]

	 ================> DF-SCS-MP2 Energies <==================
	-----------------------------------------------------------
	 SCS Same-Spin Scale       =       0.3333333333333333 [-]
	 SCS Opposite-Spin Scale   =       1.2000000000000000 [-]
	 SCS Same-Spin Energy      =      -0.1486557387265069 [Eh]
	 SCS Opposite-Spin Energy  =      -1.7180372535186688 [Eh]
	 SCS Correlation Energy    =      -1.8666929922451756 [Eh]
	 SCS Total Energy          =    -403.6402541877509975 [Eh]
	-----------------------------------------------------------

  Dipole Moment: [D]
     X:    -1.3110      Y:     1.4447      Z:     0.0056     Total:     1.9509

*** Psi4 exiting successfully. Buy a developer a beer!
