                               Psi4 1.4a3.dev225

  ==> Input File <==

--------------------------------------------------------------------------
#psi4
#
memory 32 gb

molecule  {
0 1
  N        0.1871790    -0.9111820    -0.0000020
  C        2.0846610     0.5733200    -0.0000030
  C        2.9631220    -0.4040200    -0.7474220
  C        2.9631210    -0.4040120     0.7474270
  C        0.6178930     0.3663440    -0.0000030
  C       -0.2711309     1.4226081    -0.0000020
  C       -1.6439530     1.1986260     0.0000010
  C       -2.1086100    -0.1215530     0.0000030
  C       -1.1379910    -1.1285870     0.0000010
  C       -3.5774520    -0.4452540     0.0000000
  H        2.4036780     1.6130560    -0.0000090
  H        3.8277670    -0.0076600    -1.2704010
  H        2.4452750    -1.2187140    -1.2419740
  H        2.4452760    -1.2187020     1.2419880
  H        3.8277650    -0.0076460     1.2704030
  H        0.1039660     2.4659580    -0.0000030
  H       -2.3510000     2.0273860     0.0000010
  H       -1.4419230    -2.1762520     0.0000020
  H       -4.0731050    -0.0303320     0.8832920
  H       -3.7381210    -1.5268000     0.0000420
  H       -4.0730850    -0.0304030    -0.8833370
units angstrom
no_reorient  #important for SAPT in psi4, default
symmetry c1  #important for SAPT in psi4, default
}

set PROPERTIES_ORIGIN ["COM"]
properties('MP2/aug-cc-pvtz', properties = ['dipole'])
--------------------------------------------------------------------------

    Molecular point group: c1
  Charge       = 0
  Multiplicity = 1
  Basis Set: AUG-CC-PVTZ
    Blend: AUG-CC-PVTZ
  Basis Set: (AUG-CC-PVTZ AUX)
    Blend: AUG-CC-PVTZ-JKFIT

    Orbital Energies [Eh]
    ---------------------

    Doubly Occupied:

       1A    -15.555723     2A    -11.273090     3A    -11.267749
       4A    -11.251812     5A    -11.239812     6A    -11.233149
       7A    -11.231157     8A    -11.229443     9A    -11.221254
      10A    -11.220561    11A     -1.252428    12A     -1.140690
      13A     -1.091832    14A     -1.044093    15A     -0.951776
      16A     -0.868082    17A     -0.838753    18A     -0.814686
      19A     -0.782538    20A     -0.701254    21A     -0.668211
      22A     -0.638772    23A     -0.620569    24A     -0.602791
      25A     -0.584168    26A     -0.566242    27A     -0.549421
      28A     -0.536521    29A     -0.527405    30A     -0.504200
      31A     -0.496734    32A     -0.429394    33A     -0.426607
      34A     -0.407138    35A     -0.372056    36A     -0.314487

  @DF-RHF Final Energy:  -401.77303595350401

   => Energetics <=

    Nuclear Repulsion Energy =            489.4603660766791791
    One-Electron Energy =               -1513.5576098351743894
    Two-Electron Energy =                 622.3242078049910333
    Total Energy =                       -401.7730359535040634
  Basis Set: (AUG-CC-PVTZ AUX)
    Blend: AUG-CC-PVTZ-RI
    Molecular point group: c1

    Geometry (in Angstrom), charge = 0, multiplicity = 1:

       Center              X                  Y                   Z               Mass
    ------------   -----------------  -----------------  -----------------  -----------------
         N            0.182155174768    -0.909824606217    -0.000002000189    14.003074004430
         C            2.079637174768     0.574677393783    -0.000003000189    12.000000000000
         C            2.958098174768    -0.402662606217    -0.747422000189    12.000000000000
         C            2.958097174768    -0.402654606217     0.747426999811    12.000000000000
         C            0.612869174768     0.367701393783    -0.000003000189    12.000000000000
         C           -0.276154725232     1.423965493783    -0.000002000189    12.000000000000
         C           -1.648976825232     1.199983393783     0.000000999811    12.000000000000
         C           -2.113633825232    -0.120195606217     0.000002999811    12.000000000000
         C           -1.143014825232    -1.127229606217     0.000000999811    12.000000000000
         C           -3.582475825232    -0.443896606217    -0.000000000189    12.000000000000
         H            2.398654174768     1.614413393783    -0.000009000189     1.007825032230
         H            3.822743174768    -0.006302606217    -1.270401000189     1.007825032230
         H            2.440251174768    -1.217356606217    -1.241974000189     1.007825032230
         H            2.440252174768    -1.217344606217     1.241987999811     1.007825032230
         H            3.822741174768    -0.006288606217     1.270402999811     1.007825032230
         H            0.098942174768     2.467315393783    -0.000003000189     1.007825032230
         H           -2.356023825232     2.028743393783     0.000000999811     1.007825032230
         H           -1.446946825232    -2.174894606217     0.000001999811     1.007825032230
         H           -4.078128825232    -0.028974606217     0.883291999811     1.007825032230
         H           -3.743144825232    -1.525442606217     0.000041999811     1.007825032230
         H           -4.078108825232    -0.029045606217    -0.883337000189     1.007825032230

  Basis Set: AUG-CC-PVTZ
    Blend: AUG-CC-PVTZ
  Basis Set: (AUG-CC-PVTZ AUX)
    Blend: AUG-CC-PVTZ-JKFIT
	 Reference Energy          =    -401.7730359535040066 [Eh]
	 Singles Energy            =      -0.0000000000000000 [Eh]
	 Same-Spin Energy          =      -0.4460366139134105 [Eh]
	 Opposite-Spin Energy      =      -1.4317183337243327 [Eh]
	 Correlation Energy        =      -1.8777549476377431 [Eh]
	 Total Energy              =    -403.6507909011417610 [Eh]

	 ================> DF-SCS-MP2 Energies <==================
	-----------------------------------------------------------
	 SCS Same-Spin Scale       =       0.3333333333333333 [-]
	 SCS Opposite-Spin Scale   =       1.2000000000000000 [-]
	 SCS Same-Spin Energy      =      -0.1486788713044702 [Eh]
	 SCS Opposite-Spin Energy  =      -1.7180620004691991 [Eh]
	 SCS Correlation Energy    =      -1.8667408717736693 [Eh]
	 SCS Total Energy          =    -403.6397768252776928 [Eh]
	-----------------------------------------------------------

  Dipole Moment: [D]
     X:    -1.3421      Y:     1.4450      Z:    -0.0000     Total:     1.9721

*** Psi4 exiting successfully. Buy a developer a beer!
