                               Psi4 1.4a3.dev225

  ==> Input File <==

--------------------------------------------------------------------------
#psi4
#
memory 32 gb

molecule  {
0 1
  N        0.1871790    -0.9111820    -0.0000020
  C        2.0846610     0.5733200    -0.0000030
  C        2.9631220    -0.4040200    -0.7474220
  C        2.9156970    -0.4257517     0.7465165
  C        0.6178930     0.3663440    -0.0000030
  C       -0.2752490     1.4465330    -0.0000020
  C       -1.6439530     1.1986260     0.0000010
  C       -2.1086100    -0.1215530     0.0000030
  C       -1.1379910    -1.1285870     0.0000010
  C       -3.5774520    -0.4452540     0.0000000
  H        2.4036780     1.6130560    -0.0000090
  H        3.8277670    -0.0076600    -1.2704010
  H        2.4452750    -1.2187140    -1.2419740
  H        2.4452760    -1.2187020     1.2419880
  H        3.8277650    -0.0076460     1.2704030
  H        0.1039660     2.4659580    -0.0000030
  H       -2.3510000     2.0273860     0.0000010
  H       -1.4419230    -2.1762520     0.0000020
  H       -4.0731050    -0.0303320     0.8832920
  H       -3.7381210    -1.5268000     0.0000420
  H       -4.0730850    -0.0304030    -0.8833370
units angstrom
no_reorient  #important for SAPT in psi4, default
symmetry c1  #important for SAPT in psi4, default
}

set PROPERTIES_ORIGIN ["COM"]
properties('MP2/aug-cc-pvtz', properties = ['dipole'])
--------------------------------------------------------------------------

    Molecular point group: c1
  Charge       = 0
  Multiplicity = 1
  Basis Set: AUG-CC-PVTZ
    Blend: AUG-CC-PVTZ
  Basis Set: (AUG-CC-PVTZ AUX)
    Blend: AUG-CC-PVTZ-JKFIT

    Orbital Energies [Eh]
    ---------------------

    Doubly Occupied:

       1A    -15.555566     2A    -11.275845     3A    -11.267826
       4A    -11.251673     5A    -11.239271     6A    -11.233584
       7A    -11.231494     8A    -11.229220     9A    -11.221638
      10A    -11.220665    11A     -1.251464    12A     -1.143330
      13A     -1.091547    14A     -1.042346    15A     -0.950759
      16A     -0.867553    17A     -0.839794    18A     -0.815424
      19A     -0.781944    20A     -0.702139    21A     -0.667759
      22A     -0.636362    23A     -0.625497    24A     -0.604494
      25A     -0.583649    26A     -0.564608    27A     -0.549278
      28A     -0.534241    29A     -0.528006    30A     -0.503965
      31A     -0.498344    32A     -0.432640    33A     -0.425693
      34A     -0.405861    35A     -0.372403    36A     -0.312812

  @DF-RHF Final Energy:  -401.77051475907274

   => Energetics <=

    Nuclear Repulsion Energy =            489.5440079154966497
    One-Electron Energy =               -1513.7116551509195688
    Two-Electron Energy =                 622.3971324763501798
    Total Energy =                       -401.7705147590727393
  Basis Set: (AUG-CC-PVTZ AUX)
    Blend: AUG-CC-PVTZ-RI
    Molecular point group: c1

    Geometry (in Angstrom), charge = 0, multiplicity = 1:

       Center              X                  Y                   Z               Mass
    ------------   -----------------  -----------------  -----------------  -----------------
         N            0.186802474739    -0.910021635051     0.000080095159    14.003074004430
         C            2.084284474739     0.574480364949     0.000079095159    12.000000000000
         C            2.962745474739    -0.402859635051    -0.747339904841    12.000000000000
         C            2.915320474739    -0.424591335051     0.746598595159    12.000000000000
         C            0.617516474739     0.367504364949     0.000079095159    12.000000000000
         C           -0.275625525261     1.447693364949     0.000080095159    12.000000000000
         C           -1.644329525261     1.199786364949     0.000083095159    12.000000000000
         C           -2.108986525261    -0.120392635051     0.000085095159    12.000000000000
         C           -1.138367525261    -1.127426635051     0.000083095159    12.000000000000
         C           -3.577828525261    -0.444093635051     0.000082095159    12.000000000000
         H            2.403301474739     1.614216364949     0.000073095159     1.007825032230
         H            3.827390474739    -0.006499635051    -1.270318904841     1.007825032230
         H            2.444898474739    -1.217553635051    -1.241891904841     1.007825032230
         H            2.444899474739    -1.217541635051     1.242070095159     1.007825032230
         H            3.827388474739    -0.006485635051     1.270485095159     1.007825032230
         H            0.103589474739     2.467118364949     0.000079095159     1.007825032230
         H           -2.351376525261     2.028546364949     0.000083095159     1.007825032230
         H           -1.442299525261    -2.175091635051     0.000084095159     1.007825032230
         H           -4.073481525261    -0.029171635051     0.883374095159     1.007825032230
         H           -3.738497525261    -1.525639635051     0.000124095159     1.007825032230
         H           -4.073461525261    -0.029242635051    -0.883254904841     1.007825032230

  Basis Set: AUG-CC-PVTZ
    Blend: AUG-CC-PVTZ
  Basis Set: (AUG-CC-PVTZ AUX)
    Blend: AUG-CC-PVTZ-JKFIT
	 Reference Energy          =    -401.7705147590727393 [Eh]
	 Singles Energy            =      -0.0000000000000000 [Eh]
	 Same-Spin Energy          =      -0.4459942372875856 [Eh]
	 Opposite-Spin Energy      =      -1.4317671960596501 [Eh]
	 Correlation Energy        =      -1.8777614333472357 [Eh]
	 Total Energy              =    -403.6482761924199849 [Eh]

	 ================> DF-SCS-MP2 Energies <==================
	-----------------------------------------------------------
	 SCS Same-Spin Scale       =       0.3333333333333333 [-]
	 SCS Opposite-Spin Scale   =       1.2000000000000000 [-]
	 SCS Same-Spin Energy      =      -0.1486647457625285 [Eh]
	 SCS Opposite-Spin Energy  =      -1.7181206352715801 [Eh]
	 SCS Correlation Energy    =      -1.8667853810341086 [Eh]
	 SCS Total Energy          =    -403.6373001401068450 [Eh]
	-----------------------------------------------------------

  Dipole Moment: [D]
     X:    -1.3204      Y:     1.4469      Z:    -0.0095     Total:     1.9589

*** Psi4 exiting successfully. Buy a developer a beer!
