                               Psi4 1.4a3.dev225

  ==> Input File <==

--------------------------------------------------------------------------
#psi4
#
memory 32 gb

molecule  {
0 1
  N        0.1871790    -0.9111820    -0.0000020
  C        2.0846610     0.5733200    -0.0000030
  C        2.9631220    -0.4040200    -0.7474220
  C        2.9631210    -0.4040120     0.7474270
  C        0.6178930     0.3663440    -0.0000030
  C       -0.2752490     1.4465330    -0.0000020
  C       -1.6439530     1.1986260     0.0000010
  C       -2.1086100    -0.1215530     0.0000030
  C       -1.1379910    -1.1285870     0.0000010
  C       -3.5774520    -0.4452540     0.0000000
  H        2.4036780     1.6130560    -0.0000090
  H        3.8277670    -0.0076600    -1.2704010
  H        2.3975319    -1.2938250    -1.2875694
  H        2.4452760    -1.2187020     1.2419880
  H        3.8277650    -0.0076460     1.2704030
  H        0.1039660     2.4659580    -0.0000030
  H       -2.3510000     2.0273860     0.0000010
  H       -1.4419230    -2.1762520     0.0000020
  H       -4.0731050    -0.0303320     0.8832920
  H       -3.7381210    -1.5268000     0.0000420
  H       -4.0730850    -0.0304030    -0.8833370
units angstrom
no_reorient  #important for SAPT in psi4, default
symmetry c1  #important for SAPT in psi4, default
}

set PROPERTIES_ORIGIN ["COM"]
properties('MP2/aug-cc-pvtz', properties = ['dipole'])
--------------------------------------------------------------------------

    Molecular point group: c1
  Charge       = 0
  Multiplicity = 1
  Basis Set: AUG-CC-PVTZ
    Blend: AUG-CC-PVTZ
  Basis Set: (AUG-CC-PVTZ AUX)
    Blend: AUG-CC-PVTZ-JKFIT

    Orbital Energies [Eh]
    ---------------------

    Doubly Occupied:

       1A    -15.555719     2A    -11.276231     3A    -11.267730
       4A    -11.251681     5A    -11.239472     6A    -11.233936
       7A    -11.232337     8A    -11.231532     9A    -11.229292
      10A    -11.221952    11A     -1.251176    12A     -1.140170
      13A     -1.091598    14A     -1.042387    15A     -0.950940
      16A     -0.867091    17A     -0.839954    18A     -0.807898
      19A     -0.779696    20A     -0.699006    21A     -0.665472
      22A     -0.638443    23A     -0.626238    24A     -0.597316
      25A     -0.583753    26A     -0.564699    27A     -0.549204
      28A     -0.535287    29A     -0.526643    30A     -0.499699
      31A     -0.493172    32A     -0.429155    33A     -0.426596
      34A     -0.406635    35A     -0.372382    36A     -0.312923

  @DF-RHF Final Energy:  -401.76644028077880

   => Energetics <=

    Nuclear Repulsion Energy =            488.6383693991204495
    One-Electron Energy =               -1511.9347919438275767
    Two-Electron Energy =                 621.5299822639284457
    Total Energy =                       -401.7664402807787383
  Basis Set: (AUG-CC-PVTZ AUX)
    Blend: AUG-CC-PVTZ-RI
    Molecular point group: c1

    Geometry (in Angstrom), charge = 0, multiplicity = 1:

       Center              X                  Y                   Z               Mass
    ------------   -----------------  -----------------  -----------------  -----------------
         N            0.182888021072    -0.911413015603     0.000343273529    14.003074004430
         C            2.080370021072     0.573088984397     0.000342273529    12.000000000000
         C            2.958831021072    -0.404251015603    -0.747076726471    12.000000000000
         C            2.958830021072    -0.404243015603     0.747772273529    12.000000000000
         C            0.613602021072     0.366112984397     0.000342273529    12.000000000000
         C           -0.279539978928     1.446301984397     0.000343273529    12.000000000000
         C           -1.648243978928     1.198394984397     0.000346273529    12.000000000000
         C           -2.112900978928    -0.121784015603     0.000348273529    12.000000000000
         C           -1.142281978928    -1.128818015603     0.000346273529    12.000000000000
         C           -3.581742978928    -0.445485015603     0.000345273529    12.000000000000
         H            2.399387021072     1.612824984397     0.000336273529     1.007825032230
         H            3.823476021072    -0.007891015603    -1.270055726471     1.007825032230
         H            2.393240921072    -1.294056015603    -1.287224126471     1.007825032230
         H            2.440985021072    -1.218933015603     1.242333273529     1.007825032230
         H            3.823474021072    -0.007877015603     1.270748273529     1.007825032230
         H            0.099675021072     2.465726984397     0.000342273529     1.007825032230
         H           -2.355290978928     2.027154984397     0.000346273529     1.007825032230
         H           -1.446213978928    -2.176483015603     0.000347273529     1.007825032230
         H           -4.077395978928    -0.030563015603     0.883637273529     1.007825032230
         H           -3.742411978928    -1.527031015603     0.000387273529     1.007825032230
         H           -4.077375978928    -0.030634015603    -0.882991726471     1.007825032230

  Basis Set: AUG-CC-PVTZ
    Blend: AUG-CC-PVTZ
  Basis Set: (AUG-CC-PVTZ AUX)
    Blend: AUG-CC-PVTZ-JKFIT
	 Reference Energy          =    -401.7664402807787951 [Eh]
	 Singles Energy            =      -0.0000000000000000 [Eh]
	 Same-Spin Energy          =      -0.4461563948175375 [Eh]
	 Opposite-Spin Energy      =      -1.4325355520164114 [Eh]
	 Correlation Energy        =      -1.8786919468339489 [Eh]
	 Total Energy              =    -403.6451322276127485 [Eh]

	 ================> DF-SCS-MP2 Energies <==================
	-----------------------------------------------------------
	 SCS Same-Spin Scale       =       0.3333333333333333 [-]
	 SCS Opposite-Spin Scale   =       1.2000000000000000 [-]
	 SCS Same-Spin Energy      =      -0.1487187982725125 [Eh]
	 SCS Opposite-Spin Energy  =      -1.7190426624196935 [Eh]
	 SCS Correlation Energy    =      -1.8677614606922059 [Eh]
	 SCS Total Energy          =    -403.6342017414709744 [Eh]
	-----------------------------------------------------------

  Dipole Moment: [D]
     X:    -1.3221      Y:     1.4683      Z:     0.0268     Total:     1.9760

*** Psi4 exiting successfully. Buy a developer a beer!
