                               Psi4 1.4a3.dev225

  ==> Input File <==

--------------------------------------------------------------------------
#psi4
#
memory 32 gb

molecule  {
0 1
  N        0.1871790    -0.9111820    -0.0000020
  C        2.0846610     0.5733200    -0.0000030
  C        2.9631220    -0.4040200    -0.7474220
  C        2.9631210    -0.4040120     0.7474270
  C        0.6178930     0.3663440    -0.0000030
  C       -0.2752490     1.4465330    -0.0000020
  C       -1.5947535     1.2075373     0.0000009
  C       -2.1086100    -0.1215530     0.0000030
  C       -1.1379910    -1.1285870     0.0000010
  C       -3.5774520    -0.4452540     0.0000000
  H        2.4036780     1.6130560    -0.0000090
  H        3.8277670    -0.0076600    -1.2704010
  H        2.4452750    -1.2187140    -1.2419740
  H        2.4452760    -1.2187020     1.2419880
  H        3.8277650    -0.0076460     1.2704030
  H        0.1039660     2.4659580    -0.0000030
  H       -2.3510000     2.0273860     0.0000010
  H       -1.4419230    -2.1762520     0.0000020
  H       -4.0731050    -0.0303320     0.8832920
  H       -3.7381210    -1.5268000     0.0000420
  H       -4.0730850    -0.0304030    -0.8833370
units angstrom
no_reorient  #important for SAPT in psi4, default
symmetry c1  #important for SAPT in psi4, default
}

set PROPERTIES_ORIGIN ["COM"]
properties('MP2/aug-cc-pvtz', properties = ['dipole'])
--------------------------------------------------------------------------

    Molecular point group: c1
  Charge       = 0
  Multiplicity = 1
  Basis Set: AUG-CC-PVTZ
    Blend: AUG-CC-PVTZ
  Basis Set: (AUG-CC-PVTZ AUX)
    Blend: AUG-CC-PVTZ-JKFIT

    Orbital Energies [Eh]
    ---------------------

    Doubly Occupied:

       1A    -15.554332     2A    -11.277695     3A    -11.265120
       4A    -11.250581     5A    -11.240371     6A    -11.232073
       7A    -11.229921     8A    -11.229260     9A    -11.222305
      10A    -11.221612    11A     -1.251556    12A     -1.141204
      13A     -1.091607    14A     -1.047484    15A     -0.951986
      16A     -0.866367    17A     -0.838217    18A     -0.815519
      19A     -0.780470    20A     -0.700588    21A     -0.669848
      22A     -0.639235    23A     -0.625858    24A     -0.600190
      25A     -0.583186    26A     -0.562176    27A     -0.549184
      28A     -0.536734    29A     -0.524872    30A     -0.504976
      31A     -0.500563    32A     -0.429440    33A     -0.427219
      34A     -0.405024    35A     -0.378044    36A     -0.311088

  @DF-RHF Final Energy:  -401.77081238190306

   => Energetics <=

    Nuclear Repulsion Energy =            489.4558799061617265
    One-Electron Energy =               -1513.5415758312906291
    Two-Electron Energy =                 622.3148835432258466
    Total Energy =                       -401.7708123819030561
  Basis Set: (AUG-CC-PVTZ AUX)
    Blend: AUG-CC-PVTZ-RI
    Molecular point group: c1

    Geometry (in Angstrom), charge = 0, multiplicity = 1:

       Center              X                  Y                   Z               Mass
    ------------   -----------------  -----------------  -----------------  -----------------
         N            0.178090404630    -0.912785286346    -0.000001991172    14.003074004430
         C            2.075572404630     0.571716713654    -0.000002991172    12.000000000000
         C            2.954033404630    -0.405623286346    -0.747421991172    12.000000000000
         C            2.954032404630    -0.405615286346     0.747427008828    12.000000000000
         C            0.608804404630     0.364740713654    -0.000002991172    12.000000000000
         C           -0.284337595370     1.444929713654    -0.000001991172    12.000000000000
         C           -1.603842095370     1.205934013654     0.000000908828    12.000000000000
         C           -2.117698595370    -0.123156286346     0.000003008828    12.000000000000
         C           -1.147079595370    -1.130190286346     0.000001008828    12.000000000000
         C           -3.586540595370    -0.446857286346     0.000000008828    12.000000000000
         H            2.394589404630     1.611452713654    -0.000008991172     1.007825032230
         H            3.818678404630    -0.009263286346    -1.270400991172     1.007825032230
         H            2.436186404630    -1.220317286346    -1.241973991172     1.007825032230
         H            2.436187404630    -1.220305286346     1.241988008828     1.007825032230
         H            3.818676404630    -0.009249286346     1.270403008828     1.007825032230
         H            0.094877404630     2.464354713654    -0.000002991172     1.007825032230
         H           -2.360088595370     2.025782713654     0.000001008828     1.007825032230
         H           -1.451011595370    -2.177855286346     0.000002008828     1.007825032230
         H           -4.082193595370    -0.031935286346     0.883292008828     1.007825032230
         H           -3.747209595370    -1.528403286346     0.000042008828     1.007825032230
         H           -4.082173595370    -0.032006286346    -0.883336991172     1.007825032230

  Basis Set: AUG-CC-PVTZ
    Blend: AUG-CC-PVTZ
  Basis Set: (AUG-CC-PVTZ AUX)
    Blend: AUG-CC-PVTZ-JKFIT
	 Reference Energy          =    -401.7708123819030561 [Eh]
	 Singles Energy            =      -0.0000000000000000 [Eh]
	 Same-Spin Energy          =      -0.4458400012235019 [Eh]
	 Opposite-Spin Energy      =      -1.4315086225535503 [Eh]
	 Correlation Energy        =      -1.8773486237770523 [Eh]
	 Total Energy              =    -403.6481610056800946 [Eh]

	 ================> DF-SCS-MP2 Energies <==================
	-----------------------------------------------------------
	 SCS Same-Spin Scale       =       0.3333333333333333 [-]
	 SCS Opposite-Spin Scale   =       1.2000000000000000 [-]
	 SCS Same-Spin Energy      =      -0.1486133337411673 [Eh]
	 SCS Opposite-Spin Energy  =      -1.7178103470642603 [Eh]
	 SCS Correlation Energy    =      -1.8664236808054275 [Eh]
	 SCS Total Energy          =    -403.6372360627084959 [Eh]
	-----------------------------------------------------------

  Dipole Moment: [D]
     X:    -1.2964      Y:     1.4502      Z:    -0.0000     Total:     1.9452

*** Psi4 exiting successfully. Buy a developer a beer!
