                               Psi4 1.4a3.dev225

  ==> Input File <==

--------------------------------------------------------------------------
#psi4
#
memory 32 gb

molecule  {
0 1
  N        0.1787844    -0.8650667    -0.0000020
  C        2.0846610     0.5733200    -0.0000030
  C        2.9631220    -0.4040200    -0.7474220
  C        2.9631210    -0.4040120     0.7474270
  C        0.6178930     0.3663440    -0.0000030
  C       -0.2752490     1.4465330    -0.0000020
  C       -1.6439530     1.1986260     0.0000010
  C       -2.1086100    -0.1215530     0.0000030
  C       -1.1379910    -1.1285870     0.0000010
  C       -3.5774520    -0.4452540     0.0000000
  H        2.4036780     1.6130560    -0.0000090
  H        3.8277670    -0.0076600    -1.2704010
  H        2.4452750    -1.2187140    -1.2419740
  H        2.4452760    -1.2187020     1.2419880
  H        3.8277650    -0.0076460     1.2704030
  H        0.1039660     2.4659580    -0.0000030
  H       -2.3510000     2.0273860     0.0000010
  H       -1.4419230    -2.1762520     0.0000020
  H       -4.0731050    -0.0303320     0.8832920
  H       -3.7381210    -1.5268000     0.0000420
  H       -4.0730850    -0.0304030    -0.8833370
units angstrom
no_reorient  #important for SAPT in psi4, default
symmetry c1  #important for SAPT in psi4, default
}

set PROPERTIES_ORIGIN ["COM"]
properties('MP2/aug-cc-pvtz', properties = ['dipole'])
--------------------------------------------------------------------------

    Molecular point group: c1
  Charge       = 0
  Multiplicity = 1
  Basis Set: AUG-CC-PVTZ
    Blend: AUG-CC-PVTZ
  Basis Set: (AUG-CC-PVTZ AUX)
    Blend: AUG-CC-PVTZ-JKFIT

    Orbital Energies [Eh]
    ---------------------

    Doubly Occupied:

       1A    -15.549513     2A    -11.270940     3A    -11.267496
       4A    -11.250185     5A    -11.239530     6A    -11.233067
       7A    -11.230307     8A    -11.229080     9A    -11.221208
      10A    -11.220517    11A     -1.260610    12A     -1.140478
      13A     -1.091967    14A     -1.042132    15A     -0.952967
      16A     -0.868445    17A     -0.840786    18A     -0.814612
      19A     -0.781616    20A     -0.703371    21A     -0.667484
      22A     -0.641825    23A     -0.625787    24A     -0.601529
      25A     -0.584234    26A     -0.564838    27A     -0.549044
      28A     -0.539216    29A     -0.529040    30A     -0.504507
      31A     -0.501572    32A     -0.428760    33A     -0.425967
      34A     -0.399586    35A     -0.371948    36A     -0.314456

  @DF-RHF Final Energy:  -401.77437982194289

   => Energetics <=

    Nuclear Repulsion Energy =            490.0304035244653278
    One-Electron Energy =               -1514.6923235584474696
    Two-Electron Energy =                 622.8875402120393119
    Total Energy =                       -401.7743798219428299
  Basis Set: (AUG-CC-PVTZ AUX)
    Blend: AUG-CC-PVTZ-RI
    Molecular point group: c1

    Geometry (in Angstrom), charge = 0, multiplicity = 1:

       Center              X                  Y                   Z               Mass
    ------------   -----------------  -----------------  -----------------  -----------------
         N            0.175015127869    -0.870718553500    -0.000002000189    14.003074004430
         C            2.080891727869     0.567668146500    -0.000003000189    12.000000000000
         C            2.959352727869    -0.409671853500    -0.747422000189    12.000000000000
         C            2.959351727869    -0.409663853500     0.747426999811    12.000000000000
         C            0.614123727869     0.360692146500    -0.000003000189    12.000000000000
         C           -0.279018272131     1.440881146500    -0.000002000189    12.000000000000
         C           -1.647722272131     1.192974146500     0.000000999811    12.000000000000
         C           -2.112379272131    -0.127204853500     0.000002999811    12.000000000000
         C           -1.141760272131    -1.134238853500     0.000000999811    12.000000000000
         C           -3.581221272131    -0.450905853500    -0.000000000189    12.000000000000
         H            2.399908727869     1.607404146500    -0.000009000189     1.007825032230
         H            3.823997727869    -0.013311853500    -1.270401000189     1.007825032230
         H            2.441505727869    -1.224365853500    -1.241974000189     1.007825032230
         H            2.441506727869    -1.224353853500     1.241987999811     1.007825032230
         H            3.823995727869    -0.013297853500     1.270402999811     1.007825032230
         H            0.100196727869     2.460306146500    -0.000003000189     1.007825032230
         H           -2.354769272131     2.021734146500     0.000000999811     1.007825032230
         H           -1.445692272131    -2.181903853500     0.000001999811     1.007825032230
         H           -4.076874272131    -0.035983853500     0.883291999811     1.007825032230
         H           -3.741890272131    -1.532451853500     0.000041999811     1.007825032230
         H           -4.076854272131    -0.036054853500    -0.883337000189     1.007825032230

  Basis Set: AUG-CC-PVTZ
    Blend: AUG-CC-PVTZ
  Basis Set: (AUG-CC-PVTZ AUX)
    Blend: AUG-CC-PVTZ-JKFIT
	 Reference Energy          =    -401.7743798219428868 [Eh]
	 Singles Energy            =      -0.0000000000000000 [Eh]
	 Same-Spin Energy          =      -0.4455713738078220 [Eh]
	 Opposite-Spin Energy      =      -1.4304445623402953 [Eh]
	 Correlation Energy        =      -1.8760159361481172 [Eh]
	 Total Energy              =    -403.6503957580910082 [Eh]

	 ================> DF-SCS-MP2 Energies <==================
	-----------------------------------------------------------
	 SCS Same-Spin Scale       =       0.3333333333333333 [-]
	 SCS Opposite-Spin Scale   =       1.2000000000000000 [-]
	 SCS Same-Spin Energy      =      -0.1485237912692740 [Eh]
	 SCS Opposite-Spin Energy  =      -1.7165334748083543 [Eh]
	 SCS Correlation Energy    =      -1.8650572660776283 [Eh]
	 SCS Total Energy          =    -403.6394370880205429 [Eh]
	-----------------------------------------------------------

  Dipole Moment: [D]
     X:    -1.3129      Y:     1.3728      Z:    -0.0000     Total:     1.8995

*** Psi4 exiting successfully. Buy a developer a beer!
