                               Psi4 1.4a3.dev225

  ==> Input File <==

--------------------------------------------------------------------------
#psi4
#
memory 32 gb

molecule  {
0 1
  N        0.1871790    -0.9111820    -0.0000020
  C        2.0846610     0.5733200    -0.0000030
  C        2.9631220    -0.4040200    -0.7474220
  C        2.9631210    -0.4040120     0.7474270
  C        0.6178930     0.3663440    -0.0000030
  C       -0.2674309     1.3986149    -0.0000020
  C       -1.6439530     1.1986260     0.0000010
  C       -2.1086100    -0.1215530     0.0000030
  C       -1.1379910    -1.1285870     0.0000010
  C       -3.5774520    -0.4452540     0.0000000
  H        2.4036780     1.6130560    -0.0000090
  H        3.8277670    -0.0076600    -1.2704010
  H        2.4452750    -1.2187140    -1.2419740
  H        2.4452760    -1.2187020     1.2419880
  H        3.8277650    -0.0076460     1.2704030
  H        0.1039660     2.4659580    -0.0000030
  H       -2.3510000     2.0273860     0.0000010
  H       -1.4419230    -2.1762520     0.0000020
  H       -4.0731050    -0.0303320     0.8832920
  H       -3.7381210    -1.5268000     0.0000420
  H       -4.0730850    -0.0304030    -0.8833370
units angstrom
no_reorient  #important for SAPT in psi4, default
symmetry c1  #important for SAPT in psi4, default
}

set PROPERTIES_ORIGIN ["COM"]
properties('MP2/aug-cc-pvtz', properties = ['dipole'])
--------------------------------------------------------------------------

    Molecular point group: c1
  Charge       = 0
  Multiplicity = 1
  Basis Set: AUG-CC-PVTZ
    Blend: AUG-CC-PVTZ
  Basis Set: (AUG-CC-PVTZ AUX)
    Blend: AUG-CC-PVTZ-JKFIT

    Orbital Energies [Eh]
    ---------------------

    Doubly Occupied:

       1A    -15.555776     2A    -11.270001     3A    -11.267781
       4A    -11.252021     5A    -11.240263     6A    -11.232531
       7A    -11.230956     8A    -11.229641     9A    -11.220970
      10A    -11.220278    11A     -1.253809    12A     -1.140554
      13A     -1.092098    14A     -1.045846    15A     -0.952584
      16A     -0.868874    17A     -0.837651    18A     -0.814468
      19A     -0.783698    20A     -0.701425    21A     -0.669820
      22A     -0.638529    23A     -0.615078    24A     -0.604683
      25A     -0.584657    26A     -0.567729    27A     -0.549367
      28A     -0.537736    29A     -0.526785    30A     -0.504272
      31A     -0.494228    32A     -0.429356    33A     -0.425882
      34A     -0.407782    35A     -0.371723    36A     -0.316342

  @DF-RHF Final Energy:  -401.77078822195239

   => Energetics <=

    Nuclear Repulsion Energy =            489.9095243482341289
    One-Electron Energy =               -1514.4502289466986440
    Two-Electron Energy =                 622.7699163765121284
    Total Energy =                       -401.7707882219524436
  Basis Set: (AUG-CC-PVTZ AUX)
    Blend: AUG-CC-PVTZ-RI
    Molecular point group: c1

    Geometry (in Angstrom), charge = 0, multiplicity = 1:

       Center              X                  Y                   Z               Mass
    ------------   -----------------  -----------------  -----------------  -----------------
         N            0.181821563799    -0.907661256301    -0.000002000189    14.003074004430
         C            2.079303563799     0.576840743699    -0.000003000189    12.000000000000
         C            2.957764563799    -0.400499256301    -0.747422000189    12.000000000000
         C            2.957763563799    -0.400491256301     0.747426999811    12.000000000000
         C            0.612535563799     0.369864743699    -0.000003000189    12.000000000000
         C           -0.272788336201     1.402135643699    -0.000002000189    12.000000000000
         C           -1.649310436201     1.202146743699     0.000000999811    12.000000000000
         C           -2.113967436201    -0.118032256301     0.000002999811    12.000000000000
         C           -1.143348436201    -1.125066256301     0.000000999811    12.000000000000
         C           -3.582809436201    -0.441733256301    -0.000000000189    12.000000000000
         H            2.398320563799     1.616576743699    -0.000009000189     1.007825032230
         H            3.822409563799    -0.004139256301    -1.270401000189     1.007825032230
         H            2.439917563799    -1.215193256301    -1.241974000189     1.007825032230
         H            2.439918563799    -1.215181256301     1.241987999811     1.007825032230
         H            3.822407563799    -0.004125256301     1.270402999811     1.007825032230
         H            0.098608563799     2.469478743699    -0.000003000189     1.007825032230
         H           -2.356357436201     2.030906743699     0.000000999811     1.007825032230
         H           -1.447280436201    -2.172731256301     0.000001999811     1.007825032230
         H           -4.078462436201    -0.026811256301     0.883291999811     1.007825032230
         H           -3.743478436201    -1.523279256301     0.000041999811     1.007825032230
         H           -4.078442436201    -0.026882256301    -0.883337000189     1.007825032230

  Basis Set: AUG-CC-PVTZ
    Blend: AUG-CC-PVTZ
  Basis Set: (AUG-CC-PVTZ AUX)
    Blend: AUG-CC-PVTZ-JKFIT
	 Reference Energy          =    -401.7707882219523867 [Eh]
	 Singles Energy            =      -0.0000000000000000 [Eh]
	 Same-Spin Energy          =      -0.4461383142210205 [Eh]
	 Opposite-Spin Energy      =      -1.4318517151394086 [Eh]
	 Correlation Energy        =      -1.8779900293604290 [Eh]
	 Total Energy              =    -403.6487782513128195 [Eh]

	 ================> DF-SCS-MP2 Energies <==================
	-----------------------------------------------------------
	 SCS Same-Spin Scale       =       0.3333333333333333 [-]
	 SCS Opposite-Spin Scale   =       1.2000000000000000 [-]
	 SCS Same-Spin Energy      =      -0.1487127714070068 [Eh]
	 SCS Opposite-Spin Energy  =      -1.7182220581672902 [Eh]
	 SCS Correlation Energy    =      -1.8669348295742971 [Eh]
	 SCS Total Energy          =    -403.6377230515266774 [Eh]
	-----------------------------------------------------------

  Dipole Moment: [D]
     X:    -1.3718      Y:     1.4309      Z:    -0.0000     Total:     1.9822

*** Psi4 exiting successfully. Buy a developer a beer!
