                               Psi4 1.4a3.dev225

  ==> Input File <==

--------------------------------------------------------------------------
#psi4
#
memory 32 gb

molecule  {
0 1
  N        0.1871790    -0.9111820    -0.0000020
  C        2.0846610     0.5733200    -0.0000030
  C        2.9631220    -0.4040200    -0.7474220
  C        2.9631210    -0.4040120     0.7474270
  C        0.6178930     0.3663440    -0.0000030
  C       -0.2752490     1.4465330    -0.0000020
  C       -1.6439530     1.1986260     0.0000010
  C       -2.1086100    -0.1215530     0.0000030
  C       -1.1379910    -1.1285870     0.0000010
  C       -3.5774520    -0.4452540     0.0000000
  H        2.4036780     1.6130560    -0.0000090
  H        3.8277670    -0.0076600    -1.2704010
  H        2.4452750    -1.2187140    -1.2419740
  H        2.4452760    -1.2187020     1.2419880
  H        3.9074221     0.0288700     1.3185832
  H        0.1039660     2.4659580    -0.0000030
  H       -2.3510000     2.0273860     0.0000010
  H       -1.4419230    -2.1762520     0.0000020
  H       -4.0731050    -0.0303320     0.8832920
  H       -3.7381210    -1.5268000     0.0000420
  H       -4.0730850    -0.0304030    -0.8833370
units angstrom
no_reorient  #important for SAPT in psi4, default
symmetry c1  #important for SAPT in psi4, default
}

set PROPERTIES_ORIGIN ["COM"]
properties('MP2/aug-cc-pvtz', properties = ['dipole'])
--------------------------------------------------------------------------

    Molecular point group: c1
  Charge       = 0
  Multiplicity = 1
  Basis Set: AUG-CC-PVTZ
    Blend: AUG-CC-PVTZ
  Basis Set: (AUG-CC-PVTZ AUX)
    Blend: AUG-CC-PVTZ-JKFIT

    Orbital Energies [Eh]
    ---------------------

    Doubly Occupied:

       1A    -15.556308     2A    -11.276623     3A    -11.268170
       4A    -11.252082     5A    -11.239885     6A    -11.234292
       7A    -11.232758     8A    -11.231979     9A    -11.229575
      10A    -11.222120    11A     -1.251727    12A     -1.140564
      13A     -1.091957    14A     -1.042696    15A     -0.951097
      16A     -0.867559    17A     -0.839984    18A     -0.807598
      19A     -0.780787    20A     -0.700684    21A     -0.666125
      22A     -0.634440    23A     -0.624536    24A     -0.601425
      25A     -0.583984    26A     -0.564960    27A     -0.549505
      28A     -0.533891    29A     -0.527321    30A     -0.500750
      31A     -0.494930    32A     -0.429592    33A     -0.427525
      34A     -0.406941    35A     -0.372845    36A     -0.313115

  @DF-RHF Final Energy:  -401.76669376036836

   => Energetics <=

    Nuclear Repulsion Energy =            488.5529302087313113
    One-Electron Energy =               -1511.7385858079358059
    Two-Electron Energy =                 621.4189618388360259
    Total Energy =                       -401.7666937603684119
  Basis Set: (AUG-CC-PVTZ AUX)
    Blend: AUG-CC-PVTZ-RI
    Molecular point group: c1

    Geometry (in Angstrom), charge = 0, multiplicity = 1:

       Center              X                  Y                   Z               Mass
    ------------   -----------------  -----------------  -----------------  -----------------
         N            0.181923275927    -0.912258317308    -0.000366847450    14.003074004430
         C            2.079405275927     0.572243682692    -0.000367847450    12.000000000000
         C            2.957866275927    -0.405096317308    -0.747786847450    12.000000000000
         C            2.957865275927    -0.405088317308     0.747062152550    12.000000000000
         C            0.612637275927     0.365267682692    -0.000367847450    12.000000000000
         C           -0.280504724073     1.445456682692    -0.000366847450    12.000000000000
         C           -1.649208724073     1.197549682692    -0.000363847450    12.000000000000
         C           -2.113865724073    -0.122629317308    -0.000361847450    12.000000000000
         C           -1.143246724073    -1.129663317308    -0.000363847450    12.000000000000
         C           -3.582707724073    -0.446330317308    -0.000364847450    12.000000000000
         H            2.398422275927     1.611979682692    -0.000373847450     1.007825032230
         H            3.822511275927    -0.008736317308    -1.270765847450     1.007825032230
         H            2.440019275927    -1.219790317308    -1.242338847450     1.007825032230
         H            2.440020275927    -1.219778317308     1.241623152550     1.007825032230
         H            3.902166375927     0.027793682692     1.318218352550     1.007825032230
         H            0.098710275927     2.464881682692    -0.000367847450     1.007825032230
         H           -2.356255724073     2.026309682692    -0.000363847450     1.007825032230
         H           -1.447178724073    -2.177328317308    -0.000362847450     1.007825032230
         H           -4.078360724073    -0.031408317308     0.882927152550     1.007825032230
         H           -3.743376724073    -1.527876317308    -0.000322847450     1.007825032230
         H           -4.078340724073    -0.031479317308    -0.883701847450     1.007825032230

  Basis Set: AUG-CC-PVTZ
    Blend: AUG-CC-PVTZ
  Basis Set: (AUG-CC-PVTZ AUX)
    Blend: AUG-CC-PVTZ-JKFIT
	 Reference Energy          =    -401.7666937603683550 [Eh]
	 Singles Energy            =      -0.0000000000000000 [Eh]
	 Same-Spin Energy          =      -0.4459941698807975 [Eh]
	 Opposite-Spin Energy      =      -1.4323890469567051 [Eh]
	 Correlation Energy        =      -1.8783832168375025 [Eh]
	 Total Energy              =    -403.6450769772058607 [Eh]

	 ================> DF-SCS-MP2 Energies <==================
	-----------------------------------------------------------
	 SCS Same-Spin Scale       =       0.3333333333333333 [-]
	 SCS Opposite-Spin Scale   =       1.2000000000000000 [-]
	 SCS Same-Spin Energy      =      -0.1486647232935992 [Eh]
	 SCS Opposite-Spin Energy  =      -1.7188668563480460 [Eh]
	 SCS Correlation Energy    =      -1.8675315796416452 [Eh]
	 SCS Total Energy          =    -403.6342253400100049 [Eh]
	-----------------------------------------------------------

  Dipole Moment: [D]
     X:    -1.3697      Y:     1.4538      Z:    -0.0400     Total:     1.9978

*** Psi4 exiting successfully. Buy a developer a beer!
