                               Psi4 1.4a3.dev225

  ==> Input File <==

--------------------------------------------------------------------------
#psi4
#
memory 32 gb

molecule  {
0 1
  N        0.1871790    -0.9111820    -0.0000020
  C        2.0846610     0.5733200    -0.0000030
  C        2.9631220    -0.4040200    -0.7474220
  C        2.9631210    -0.4040120     0.7474270
  C        0.6019191     0.3189643    -0.0000030
  C       -0.2752490     1.4465330    -0.0000020
  C       -1.6439530     1.1986260     0.0000010
  C       -2.1086100    -0.1215530     0.0000030
  C       -1.1379910    -1.1285870     0.0000010
  C       -3.5774520    -0.4452540     0.0000000
  H        2.4036780     1.6130560    -0.0000090
  H        3.8277670    -0.0076600    -1.2704010
  H        2.4452750    -1.2187140    -1.2419740
  H        2.4452760    -1.2187020     1.2419880
  H        3.8277650    -0.0076460     1.2704030
  H        0.1039660     2.4659580    -0.0000030
  H       -2.3510000     2.0273860     0.0000010
  H       -1.4419230    -2.1762520     0.0000020
  H       -4.0731050    -0.0303320     0.8832920
  H       -3.7381210    -1.5268000     0.0000420
  H       -4.0730850    -0.0304030    -0.8833370
units angstrom
no_reorient  #important for SAPT in psi4, default
symmetry c1  #important for SAPT in psi4, default
}

set PROPERTIES_ORIGIN ["COM"]
properties('MP2/aug-cc-pvtz', properties = ['dipole'])
--------------------------------------------------------------------------

    Molecular point group: c1
  Charge       = 0
  Multiplicity = 1
  Basis Set: AUG-CC-PVTZ
    Blend: AUG-CC-PVTZ
  Basis Set: (AUG-CC-PVTZ AUX)
    Blend: AUG-CC-PVTZ-JKFIT

    Orbital Energies [Eh]
    ---------------------

    Doubly Occupied:

       1A    -15.552843     2A    -11.276115     3A    -11.267519
       4A    -11.251325     5A    -11.239716     6A    -11.236545
       7A    -11.231196     8A    -11.229415     9A    -11.220367
      10A    -11.219672    11A     -1.264584    12A     -1.139346
      13A     -1.095273    14A     -1.038269    15A     -0.950849
      16A     -0.867188    17A     -0.839534    18A     -0.814068
      19A     -0.780428    20A     -0.702258    21A     -0.666085
      22A     -0.643270    23A     -0.626504    24A     -0.597270
      25A     -0.584512    26A     -0.565660    27A     -0.549427
      28A     -0.539594    29A     -0.528442    30A     -0.503975
      31A     -0.500150    32A     -0.427491    33A     -0.427369
      34A     -0.402344    35A     -0.375568    36A     -0.313133

  @DF-RHF Final Energy:  -401.77288298513577

   => Energetics <=

    Nuclear Repulsion Energy =            489.4044567501835559
    One-Electron Energy =               -1513.4200703220699324
    Two-Electron Energy =                 622.2427305867506675
    Total Energy =                       -401.7728829851357659
  Basis Set: (AUG-CC-PVTZ AUX)
    Blend: AUG-CC-PVTZ-RI
    Molecular point group: c1

    Geometry (in Angstrom), charge = 0, multiplicity = 1:

       Center              X                  Y                   Z               Mass
    ------------   -----------------  -----------------  -----------------  -----------------
         N            0.183966772491    -0.907709801205    -0.000002000189    14.003074004430
         C            2.081448772491     0.576792198795    -0.000003000189    12.000000000000
         C            2.959909772491    -0.400547801205    -0.747422000189    12.000000000000
         C            2.959908772491    -0.400539801205     0.747426999811    12.000000000000
         C            0.598706872491     0.322436498795    -0.000003000189    12.000000000000
         C           -0.278461227509     1.450005198795    -0.000002000189    12.000000000000
         C           -1.647165227509     1.202098198795     0.000000999811    12.000000000000
         C           -2.111822227509    -0.118080801205     0.000002999811    12.000000000000
         C           -1.141203227509    -1.125114801205     0.000000999811    12.000000000000
         C           -3.580664227509    -0.441781801205    -0.000000000189    12.000000000000
         H            2.400465772491     1.616528198795    -0.000009000189     1.007825032230
         H            3.824554772491    -0.004187801205    -1.270401000189     1.007825032230
         H            2.442062772491    -1.215241801205    -1.241974000189     1.007825032230
         H            2.442063772491    -1.215229801205     1.241987999811     1.007825032230
         H            3.824552772491    -0.004173801205     1.270402999811     1.007825032230
         H            0.100753772491     2.469430198795    -0.000003000189     1.007825032230
         H           -2.354212227509     2.030858198795     0.000000999811     1.007825032230
         H           -1.445135227509    -2.172779801205     0.000001999811     1.007825032230
         H           -4.076317227509    -0.026859801205     0.883291999811     1.007825032230
         H           -3.741333227509    -1.523327801205     0.000041999811     1.007825032230
         H           -4.076297227509    -0.026930801205    -0.883337000189     1.007825032230

  Basis Set: AUG-CC-PVTZ
    Blend: AUG-CC-PVTZ
  Basis Set: (AUG-CC-PVTZ AUX)
    Blend: AUG-CC-PVTZ-JKFIT
	 Reference Energy          =    -401.7728829851357659 [Eh]
	 Singles Energy            =      -0.0000000000000000 [Eh]
	 Same-Spin Energy          =      -0.4452562987883451 [Eh]
	 Opposite-Spin Energy      =      -1.4305307026763128 [Eh]
	 Correlation Energy        =      -1.8757870014646578 [Eh]
	 Total Energy              =    -403.6486699866003960 [Eh]

	 ================> DF-SCS-MP2 Energies <==================
	-----------------------------------------------------------
	 SCS Same-Spin Scale       =       0.3333333333333333 [-]
	 SCS Opposite-Spin Scale   =       1.2000000000000000 [-]
	 SCS Same-Spin Energy      =      -0.1484187662627817 [Eh]
	 SCS Opposite-Spin Energy  =      -1.7166368432115753 [Eh]
	 SCS Correlation Energy    =      -1.8650556094743569 [Eh]
	 SCS Total Energy          =    -403.6379385946101479 [Eh]
	-----------------------------------------------------------

  Dipole Moment: [D]
     X:    -1.3720      Y:     1.4658      Z:    -0.0000     Total:     2.0077

*** Psi4 exiting successfully. Buy a developer a beer!
