                               Psi4 1.4a3.dev225

  ==> Input File <==

--------------------------------------------------------------------------
#psi4
#
memory 32 gb

molecule  {
0 1
  N        0.1871790    -0.9111820    -0.0000020
  C        2.0846610     0.5733200    -0.0000030
  C        2.9631220    -0.4040200    -0.7474220
  C        2.9631210    -0.4040120     0.7474270
  C        0.6178930     0.3663440    -0.0000030
  C       -0.2752490     1.4465330    -0.0000020
  C       -1.6439530     1.1986260     0.0000010
  C       -2.1086100    -0.1215530     0.0000030
  C       -1.1726895    -1.0925868     0.0000011
  C       -3.5774520    -0.4452540     0.0000000
  H        2.4036780     1.6130560    -0.0000090
  H        3.8277670    -0.0076600    -1.2704010
  H        2.4452750    -1.2187140    -1.2419740
  H        2.4452760    -1.2187020     1.2419880
  H        3.8277650    -0.0076460     1.2704030
  H        0.1039660     2.4659580    -0.0000030
  H       -2.3510000     2.0273860     0.0000010
  H       -1.4419230    -2.1762520     0.0000020
  H       -4.0731050    -0.0303320     0.8832920
  H       -3.7381210    -1.5268000     0.0000420
  H       -4.0730850    -0.0304030    -0.8833370
units angstrom
no_reorient  #important for SAPT in psi4, default
symmetry c1  #important for SAPT in psi4, default
}

set PROPERTIES_ORIGIN ["COM"]
properties('MP2/aug-cc-pvtz', properties = ['dipole'])
--------------------------------------------------------------------------

    Molecular point group: c1
  Charge       = 0
  Multiplicity = 1
  Basis Set: AUG-CC-PVTZ
    Blend: AUG-CC-PVTZ
  Basis Set: (AUG-CC-PVTZ AUX)
    Blend: AUG-CC-PVTZ-JKFIT

    Orbital Energies [Eh]
    ---------------------

    Doubly Occupied:

       1A    -15.556402     2A    -11.276784     3A    -11.264302
       4A    -11.253855     5A    -11.234649     6A    -11.234183
       7A    -11.231753     8A    -11.229141     9A    -11.222116
      10A    -11.221424    11A     -1.246986    12A     -1.141776
      13A     -1.093802    14A     -1.043635    15A     -0.950969
      16A     -0.872892    17A     -0.838796    18A     -0.815320
      19A     -0.780416    20A     -0.699013    21A     -0.667877
      22A     -0.639554    23A     -0.623421    24A     -0.600952
      25A     -0.584994    26A     -0.563202    27A     -0.548205
      28A     -0.534387    29A     -0.528456    30A     -0.504441
      31A     -0.492875    32A     -0.430991    33A     -0.429186
      34A     -0.409716    35A     -0.368259    36A     -0.319796

  @DF-RHF Final Energy:  -401.77012711091777

   => Energetics <=

    Nuclear Repulsion Energy =            489.3838107490041693
    One-Electron Energy =               -1513.3988224601514503
    Two-Electron Energy =                 622.2448846002295113
    Total Energy =                       -401.7701271109177696
  Basis Set: (AUG-CC-PVTZ AUX)
    Blend: AUG-CC-PVTZ-RI
    Molecular point group: c1

    Geometry (in Angstrom), charge = 0, multiplicity = 1:

       Center              X                  Y                   Z               Mass
    ------------   -----------------  -----------------  -----------------  -----------------
         N            0.185655078421    -0.915227760444    -0.000002009205    14.003074004430
         C            2.083137078421     0.569274239556    -0.000003009205    12.000000000000
         C            2.961598078421    -0.408065760444    -0.747422009205    12.000000000000
         C            2.961597078421    -0.408057760444     0.747426990795    12.000000000000
         C            0.616369078421     0.362298239556    -0.000003009205    12.000000000000
         C           -0.276772921579     1.442487239556    -0.000002009205    12.000000000000
         C           -1.645476921579     1.194580239556     0.000000990795    12.000000000000
         C           -2.110133921579    -0.125598760444     0.000002990795    12.000000000000
         C           -1.174213421579    -1.096632560444     0.000001090795    12.000000000000
         C           -3.578975921579    -0.449299760444    -0.000000009205    12.000000000000
         H            2.402154078421     1.609010239556    -0.000009009205     1.007825032230
         H            3.826243078421    -0.011705760444    -1.270401009205     1.007825032230
         H            2.443751078421    -1.222759760444    -1.241974009205     1.007825032230
         H            2.443752078421    -1.222747760444     1.241987990795     1.007825032230
         H            3.826241078421    -0.011691760444     1.270402990795     1.007825032230
         H            0.102442078421     2.461912239556    -0.000003009205     1.007825032230
         H           -2.352523921579     2.023340239556     0.000000990795     1.007825032230
         H           -1.443446921579    -2.180297760444     0.000001990795     1.007825032230
         H           -4.074628921579    -0.034377760444     0.883291990795     1.007825032230
         H           -3.739644921579    -1.530845760444     0.000041990795     1.007825032230
         H           -4.074608921579    -0.034448760444    -0.883337009205     1.007825032230

  Basis Set: AUG-CC-PVTZ
    Blend: AUG-CC-PVTZ
  Basis Set: (AUG-CC-PVTZ AUX)
    Blend: AUG-CC-PVTZ-JKFIT
	 Reference Energy          =    -401.7701271109177696 [Eh]
	 Singles Energy            =      -0.0000000000000000 [Eh]
	 Same-Spin Energy          =      -0.4459376761041267 [Eh]
	 Opposite-Spin Energy      =      -1.4321423885482270 [Eh]
	 Correlation Energy        =      -1.8780800646523537 [Eh]
	 Total Energy              =    -403.6482071755701213 [Eh]

	 ================> DF-SCS-MP2 Energies <==================
	-----------------------------------------------------------
	 SCS Same-Spin Scale       =       0.3333333333333333 [-]
	 SCS Opposite-Spin Scale   =       1.2000000000000000 [-]
	 SCS Same-Spin Energy      =      -0.1486458920347089 [Eh]
	 SCS Opposite-Spin Energy  =      -1.7185708662578723 [Eh]
	 SCS Correlation Energy    =      -1.8672167582925812 [Eh]
	 SCS Total Energy          =    -403.6373438692103264 [Eh]
	-----------------------------------------------------------

  Dipole Moment: [D]
     X:    -1.2801      Y:     1.5254      Z:    -0.0000     Total:     1.9913

*** Psi4 exiting successfully. Buy a developer a beer!
