                               Psi4 1.4a3.dev225

  ==> Input File <==

--------------------------------------------------------------------------
#psi4
#
memory 32 gb

molecule  {
0 1
  N        0.1871790    -0.9111820    -0.0000020
  C        2.0846610     0.5733200    -0.0000030
  C        2.9631220    -0.4040200    -0.7474220
  C        2.9631210    -0.4040120     0.7474270
  C        0.6178930     0.3663440    -0.0000030
  C       -0.2752490     1.4465330    -0.0000020
  C       -1.6439530     1.1986260     0.0000010
  C       -2.1086100    -0.1215530     0.0000030
  C       -1.1379910    -1.1285870     0.0000010
  C       -3.5774520    -0.4452540     0.0000000
  H        2.4036780     1.6130560    -0.0000090
  H        3.8277670    -0.0076600    -1.2704010
  H        2.4452750    -1.2187140    -1.2419740
  H        2.4452760    -1.2187020     1.2419880
  H        3.8277650    -0.0076460     1.2704030
  H        0.1039660     2.4659580    -0.0000030
  H       -2.3510000     2.0273860     0.0000010
  H       -1.4279922    -2.1282319     0.0000020
  H       -4.0731050    -0.0303320     0.8832920
  H       -3.7381210    -1.5268000     0.0000420
  H       -4.0730850    -0.0304030    -0.8833370
units angstrom
no_reorient  #important for SAPT in psi4, default
symmetry c1  #important for SAPT in psi4, default
}

set PROPERTIES_ORIGIN ["COM"]
properties('MP2/aug-cc-pvtz', properties = ['dipole'])
--------------------------------------------------------------------------

    Molecular point group: c1
  Charge       = 0
  Multiplicity = 1
  Basis Set: AUG-CC-PVTZ
    Blend: AUG-CC-PVTZ
  Basis Set: (AUG-CC-PVTZ AUX)
    Blend: AUG-CC-PVTZ-JKFIT

    Orbital Energies [Eh]
    ---------------------

    Doubly Occupied:

       1A    -15.555188     2A    -11.275681     3A    -11.261758
       4A    -11.251287     5A    -11.238879     6A    -11.233617
       7A    -11.231175     8A    -11.229378     9A    -11.221410
      10A    -11.220717    11A     -1.251015    12A     -1.140797
      13A     -1.091275    14A     -1.043340    15A     -0.951383
      16A     -0.869815    17A     -0.840948    18A     -0.814778
      19A     -0.781880    20A     -0.704075    21A     -0.666810
      22A     -0.638987    23A     -0.629168    24A     -0.602975
      25A     -0.583706    26A     -0.566318    27A     -0.549727
      28A     -0.535163    29A     -0.527971    30A     -0.503968
      31A     -0.499857    32A     -0.429257    33A     -0.427280
      34A     -0.406480    35A     -0.372127    36A     -0.312467

  @DF-RHF Final Energy:  -401.77305767616423

   => Energetics <=

    Nuclear Repulsion Energy =            489.2902017393614074
    One-Electron Energy =               -1513.2052044781555651
    Two-Electron Energy =                 622.1419450626299295
    Total Energy =                       -401.7730576761641714
  Basis Set: (AUG-CC-PVTZ AUX)
    Blend: AUG-CC-PVTZ-RI
    Molecular point group: c1

    Geometry (in Angstrom), charge = 0, multiplicity = 1:

       Center              X                  Y                   Z               Mass
    ------------   -----------------  -----------------  -----------------  -----------------
         N            0.182420992013    -0.912345432749    -0.000002000189    14.003074004430
         C            2.079902992013     0.572156567251    -0.000003000189    12.000000000000
         C            2.958363992013    -0.405183432749    -0.747422000189    12.000000000000
         C            2.958362992013    -0.405175432749     0.747426999811    12.000000000000
         C            0.613134992013     0.365180567251    -0.000003000189    12.000000000000
         C           -0.280007007987     1.445369567251    -0.000002000189    12.000000000000
         C           -1.648711007987     1.197462567251     0.000000999811    12.000000000000
         C           -2.113368007987    -0.122716432749     0.000002999811    12.000000000000
         C           -1.142749007987    -1.129750432749     0.000000999811    12.000000000000
         C           -3.582210007987    -0.446417432749    -0.000000000189    12.000000000000
         H            2.398919992013     1.611892567251    -0.000009000189     1.007825032230
         H            3.823008992013    -0.008823432749    -1.270401000189     1.007825032230
         H            2.440516992013    -1.219877432749    -1.241974000189     1.007825032230
         H            2.440517992013    -1.219865432749     1.241987999811     1.007825032230
         H            3.823006992013    -0.008809432749     1.270402999811     1.007825032230
         H            0.099207992013     2.464794567251    -0.000003000189     1.007825032230
         H           -2.355758007987     2.026222567251     0.000000999811     1.007825032230
         H           -1.432750207987    -2.129395332749     0.000001999811     1.007825032230
         H           -4.077863007987    -0.031495432749     0.883291999811     1.007825032230
         H           -3.742879007987    -1.527963432749     0.000041999811     1.007825032230
         H           -4.077843007987    -0.031566432749    -0.883337000189     1.007825032230

  Basis Set: AUG-CC-PVTZ
    Blend: AUG-CC-PVTZ
  Basis Set: (AUG-CC-PVTZ AUX)
    Blend: AUG-CC-PVTZ-JKFIT
	 Reference Energy          =    -401.7730576761642283 [Eh]
	 Singles Energy            =      -0.0000000000000000 [Eh]
	 Same-Spin Energy          =      -0.4458174884058684 [Eh]
	 Opposite-Spin Energy      =      -1.4312855397224546 [Eh]
	 Correlation Energy        =      -1.8771030281283230 [Eh]
	 Total Energy              =    -403.6501607042925457 [Eh]

	 ================> DF-SCS-MP2 Energies <==================
	-----------------------------------------------------------
	 SCS Same-Spin Scale       =       0.3333333333333333 [-]
	 SCS Opposite-Spin Scale   =       1.2000000000000000 [-]
	 SCS Same-Spin Energy      =      -0.1486058294686228 [Eh]
	 SCS Opposite-Spin Energy  =      -1.7175426476669455 [Eh]
	 SCS Correlation Energy    =      -1.8661484771355683 [Eh]
	 SCS Total Energy          =    -403.6392061532998241 [Eh]
	-----------------------------------------------------------

  Dipole Moment: [D]
     X:    -1.3325      Y:     1.4363      Z:    -0.0000     Total:     1.9592

*** Psi4 exiting successfully. Buy a developer a beer!
