                               Psi4 1.4a3.dev225

  ==> Input File <==

--------------------------------------------------------------------------
#psi4
#
memory 32 gb

molecule  {
0 1
  N        0.1871790    -0.9111820    -0.0000020
  C        2.0846610     0.5733200    -0.0000030
  C        2.9631220    -0.4040200    -0.7474220
  C        2.9868366    -0.3931405     0.7471993
  C        0.6178930     0.3663440    -0.0000030
  C       -0.2752490     1.4465330    -0.0000020
  C       -1.6439530     1.1986260     0.0000010
  C       -2.1086100    -0.1215530     0.0000030
  C       -1.1379910    -1.1285870     0.0000010
  C       -3.5774520    -0.4452540     0.0000000
  H        2.4036780     1.6130560    -0.0000090
  H        3.8277670    -0.0076600    -1.2704010
  H        2.4452750    -1.2187140    -1.2419740
  H        2.4452760    -1.2187020     1.2419880
  H        3.8277650    -0.0076460     1.2704030
  H        0.1039660     2.4659580    -0.0000030
  H       -2.3510000     2.0273860     0.0000010
  H       -1.4419230    -2.1762520     0.0000020
  H       -4.0731050    -0.0303320     0.8832920
  H       -3.7381210    -1.5268000     0.0000420
  H       -4.0730850    -0.0304030    -0.8833370
units angstrom
no_reorient  #important for SAPT in psi4, default
symmetry c1  #important for SAPT in psi4, default
}

set PROPERTIES_ORIGIN ["COM"]
properties('MP2/aug-cc-pvtz', properties = ['dipole'])
--------------------------------------------------------------------------

    Molecular point group: c1
  Charge       = 0
  Multiplicity = 1
  Basis Set: AUG-CC-PVTZ
    Blend: AUG-CC-PVTZ
  Basis Set: (AUG-CC-PVTZ AUX)
    Blend: AUG-CC-PVTZ-JKFIT

    Orbital Energies [Eh]
    ---------------------

    Doubly Occupied:

       1A    -15.555815     2A    -11.276332     3A    -11.267740
       4A    -11.251714     5A    -11.239493     6A    -11.233938
       7A    -11.231478     8A    -11.229299     9A    -11.221824
      10A    -11.221077    11A     -1.251108    12A     -1.139693
      13A     -1.091640    14A     -1.042530    15A     -0.951202
      16A     -0.867328    17A     -0.840313    18A     -0.815393
      19A     -0.781165    20A     -0.700440    21A     -0.666761
      22A     -0.640587    23A     -0.626516    24A     -0.599660
      25A     -0.583773    26A     -0.564766    27A     -0.549498
      28A     -0.536111    29A     -0.527922    30A     -0.503691
      31A     -0.499007    32A     -0.428758    33A     -0.426720
      34A     -0.406577    35A     -0.372494    36A     -0.312629

  @DF-RHF Final Energy:  -401.77285755412697

   => Energetics <=

    Nuclear Repulsion Energy =            488.7611693810837892
    One-Electron Energy =               -1512.1580751325025176
    Two-Electron Energy =                 621.6240481972916996
    Total Energy =                       -401.7728575541269720
  Basis Set: (AUG-CC-PVTZ AUX)
    Blend: AUG-CC-PVTZ-RI
    Molecular point group: c1

    Geometry (in Angstrom), charge = 0, multiplicity = 1:

       Center              X                  Y                   Z               Mass
    ------------   -----------------  -----------------  -----------------  -----------------
         N            0.180388163699    -0.912962028028     0.000018530410    14.003074004430
         C            2.077870163699     0.571539971972     0.000017530410    12.000000000000
         C            2.956331163699    -0.405800028028    -0.747401469590    12.000000000000
         C            2.980045763699    -0.394920528028     0.747219830410    12.000000000000
         C            0.611102163699     0.364563971972     0.000017530410    12.000000000000
         C           -0.282039836301     1.444752971972     0.000018530410    12.000000000000
         C           -1.650743836301     1.196845971972     0.000021530410    12.000000000000
         C           -2.115400836301    -0.123333028028     0.000023530410    12.000000000000
         C           -1.144781836301    -1.130367028028     0.000021530410    12.000000000000
         C           -3.584242836301    -0.447034028028     0.000020530410    12.000000000000
         H            2.396887163699     1.611275971972     0.000011530410     1.007825032230
         H            3.820976163699    -0.009440028028    -1.270380469590     1.007825032230
         H            2.438484163699    -1.220494028028    -1.241953469590     1.007825032230
         H            2.438485163699    -1.220482028028     1.242008530410     1.007825032230
         H            3.820974163699    -0.009426028028     1.270423530410     1.007825032230
         H            0.097175163699     2.464177971972     0.000017530410     1.007825032230
         H           -2.357790836301     2.025605971972     0.000021530410     1.007825032230
         H           -1.448713836301    -2.178032028028     0.000022530410     1.007825032230
         H           -4.079895836301    -0.032112028028     0.883312530410     1.007825032230
         H           -3.744911836301    -1.528580028028     0.000062530410     1.007825032230
         H           -4.079875836301    -0.032183028028    -0.883316469590     1.007825032230

  Basis Set: AUG-CC-PVTZ
    Blend: AUG-CC-PVTZ
  Basis Set: (AUG-CC-PVTZ AUX)
    Blend: AUG-CC-PVTZ-JKFIT
	 Reference Energy          =    -401.7728575541269720 [Eh]
	 Singles Energy            =      -0.0000000000000000 [Eh]
	 Same-Spin Energy          =      -0.4459686130630902 [Eh]
	 Opposite-Spin Energy      =      -1.4317366171567933 [Eh]
	 Correlation Energy        =      -1.8777052302198836 [Eh]
	 Total Energy              =    -403.6505627843468460 [Eh]

	 ================> DF-SCS-MP2 Energies <==================
	-----------------------------------------------------------
	 SCS Same-Spin Scale       =       0.3333333333333333 [-]
	 SCS Opposite-Spin Scale   =       1.2000000000000000 [-]
	 SCS Same-Spin Energy      =      -0.1486562043543634 [Eh]
	 SCS Opposite-Spin Energy  =      -1.7180839405881521 [Eh]
	 SCS Correlation Energy    =      -1.8667401449425154 [Eh]
	 SCS Total Energy          =    -403.6395976990694976 [Eh]
	-----------------------------------------------------------

  Dipole Moment: [D]
     X:    -1.3136      Y:     1.4607      Z:     0.0001     Total:     1.9644

*** Psi4 exiting successfully. Buy a developer a beer!
