                               Psi4 1.4a3.dev225

  ==> Input File <==

--------------------------------------------------------------------------
#psi4
#
memory 32 gb

molecule  {
0 1
  N        0.1871790    -0.9111820    -0.0000020
  C        2.0846610     0.5733200    -0.0000030
  C        2.9631220    -0.4040200    -0.7474220
  C        2.9631210    -0.4040120     0.7474270
  C        0.6178930     0.3663440    -0.0000030
  C       -0.2752490     1.4465330    -0.0000020
  C       -1.6439530     1.1986260     0.0000010
  C       -2.1086100    -0.1215530     0.0000030
  C       -1.1379910    -1.1285870     0.0000010
  C       -3.7727654    -0.4882968    -0.0000004
  H        2.4036780     1.6130560    -0.0000090
  H        3.8277670    -0.0076600    -1.2704010
  H        2.4452750    -1.2187140    -1.2419740
  H        2.4452760    -1.2187020     1.2419880
  H        3.8277650    -0.0076460     1.2704030
  H        0.1039660     2.4659580    -0.0000030
  H       -2.3510000     2.0273860     0.0000010
  H       -1.4419230    -2.1762520     0.0000020
  H       -4.0731050    -0.0303320     0.8832920
  H       -3.7381210    -1.5268000     0.0000420
  H       -4.0730850    -0.0304030    -0.8833370
units angstrom
no_reorient  #important for SAPT in psi4, default
symmetry c1  #important for SAPT in psi4, default
}

set PROPERTIES_ORIGIN ["COM"]
properties('MP2/aug-cc-pvtz', properties = ['dipole'])
--------------------------------------------------------------------------

    Molecular point group: c1
  Charge       = 0
  Multiplicity = 1
  Basis Set: AUG-CC-PVTZ
    Blend: AUG-CC-PVTZ
  Basis Set: (AUG-CC-PVTZ AUX)
    Blend: AUG-CC-PVTZ-JKFIT

    Orbital Energies [Eh]
    ---------------------

    Doubly Occupied:

       1A    -15.555065     2A    -11.275191     3A    -11.267477
       4A    -11.251283     5A    -11.245221     6A    -11.232785
       7A    -11.230795     8A    -11.229853     9A    -11.221035
      10A    -11.220343    11A     -1.249833    12A     -1.139436
      13A     -1.080946    14A     -1.033999    15A     -0.954941
      16A     -0.867249    17A     -0.841236    18A     -0.814426
      19A     -0.779952    20A     -0.699613    21A     -0.663092
      22A     -0.636769    23A     -0.617697    24A     -0.605556
      25A     -0.597620    26A     -0.581948    27A     -0.557134
      28A     -0.540362    29A     -0.515807    30A     -0.504548
      31A     -0.467502    32A     -0.430571    33A     -0.426204
      34A     -0.402463    35A     -0.372249    36A     -0.314064

  @DF-RHF Final Energy:  -401.74654239881920

   => Energetics <=

    Nuclear Repulsion Energy =            485.8159885423364130
    One-Electron Energy =               -1506.2765292489038984
    Two-Electron Energy =                 618.7139983077482839
    Total Energy =                       -401.7465423988192015
  Basis Set: (AUG-CC-PVTZ AUX)
    Blend: AUG-CC-PVTZ-RI
    Molecular point group: c1

    Geometry (in Angstrom), charge = 0, multiplicity = 1:

       Center              X                  Y                   Z               Mass
    ------------   -----------------  -----------------  -----------------  -----------------
         N            0.200136941212    -0.908100838343    -0.000001964123    14.003074004430
         C            2.097618941212     0.576401161657    -0.000002964123    12.000000000000
         C            2.976079941212    -0.400938838343    -0.747421964123    12.000000000000
         C            2.976078941212    -0.400930838343     0.747427035877    12.000000000000
         C            0.630850941212     0.369425161657    -0.000002964123    12.000000000000
         C           -0.262291058788     1.449614161657    -0.000001964123    12.000000000000
         C           -1.630995058788     1.201707161657     0.000001035877    12.000000000000
         C           -2.095652058788    -0.118471838343     0.000003035877    12.000000000000
         C           -1.125033058788    -1.125505838343     0.000001035877    12.000000000000
         C           -3.759807458788    -0.485215638343    -0.000000364123    12.000000000000
         H            2.416635941212     1.616137161657    -0.000008964123     1.007825032230
         H            3.840724941212    -0.004578838343    -1.270400964123     1.007825032230
         H            2.458232941212    -1.215632838343    -1.241973964123     1.007825032230
         H            2.458233941212    -1.215620838343     1.241988035877     1.007825032230
         H            3.840722941212    -0.004564838343     1.270403035877     1.007825032230
         H            0.116923941212     2.469039161657    -0.000002964123     1.007825032230
         H           -2.338042058788     2.030467161657     0.000001035877     1.007825032230
         H           -1.428965058788    -2.173170838343     0.000002035877     1.007825032230
         H           -4.060147058788    -0.027250838343     0.883292035877     1.007825032230
         H           -3.725163058788    -1.523718838343     0.000042035877     1.007825032230
         H           -4.060127058788    -0.027321838343    -0.883336964123     1.007825032230

  Basis Set: AUG-CC-PVTZ
    Blend: AUG-CC-PVTZ
  Basis Set: (AUG-CC-PVTZ AUX)
    Blend: AUG-CC-PVTZ-JKFIT
	 Reference Energy          =    -401.7465423988192015 [Eh]
	 Singles Energy            =      -0.0000000000000000 [Eh]
	 Same-Spin Energy          =      -0.4457311598570591 [Eh]
	 Opposite-Spin Energy      =      -1.4327344700182025 [Eh]
	 Correlation Energy        =      -1.8784656298752616 [Eh]
	 Total Energy              =    -403.6250080286944808 [Eh]

	 ================> DF-SCS-MP2 Energies <==================
	-----------------------------------------------------------
	 SCS Same-Spin Scale       =       0.3333333333333333 [-]
	 SCS Opposite-Spin Scale   =       1.2000000000000000 [-]
	 SCS Same-Spin Energy      =      -0.1485770532856864 [Eh]
	 SCS Opposite-Spin Energy  =      -1.7192813640218430 [Eh]
	 SCS Correlation Energy    =      -1.8678584173075292 [Eh]
	 SCS Total Energy          =    -403.6144008161267038 [Eh]
	-----------------------------------------------------------

  Dipole Moment: [D]
     X:    -1.2680      Y:     1.4582      Z:    -0.0000     Total:     1.9324

*** Psi4 exiting successfully. Buy a developer a beer!
