                               Psi4 1.4a3.dev225

  ==> Input File <==

--------------------------------------------------------------------------
#psi4
#
memory 32 gb

molecule  {
0 1
  N        0.1871790    -0.9111820    -0.0000020
  C        2.0846610     0.5733200    -0.0000030
  C        2.9631220    -0.4040200    -0.7474220
  C        2.9631210    -0.4040120     0.7474270
  C        0.6178930     0.3663440    -0.0000030
  C       -0.2625045     1.4311195    -0.0000020
  C       -1.6439530     1.1986260     0.0000010
  C       -2.1086100    -0.1215530     0.0000030
  C       -1.1379910    -1.1285870     0.0000010
  C       -3.5774520    -0.4452540     0.0000000
  H        2.4036780     1.6130560    -0.0000090
  H        3.8277670    -0.0076600    -1.2704010
  H        2.4452750    -1.2187140    -1.2419740
  H        2.4452760    -1.2187020     1.2419880
  H        3.8277650    -0.0076460     1.2704030
  H        0.1039660     2.4659580    -0.0000030
  H       -2.3510000     2.0273860     0.0000010
  H       -1.4419230    -2.1762520     0.0000020
  H       -4.0731050    -0.0303320     0.8832920
  H       -3.7381210    -1.5268000     0.0000420
  H       -4.0730850    -0.0304030    -0.8833370
units angstrom
no_reorient  #important for SAPT in psi4, default
symmetry c1  #important for SAPT in psi4, default
}

set PROPERTIES_ORIGIN ["COM"]
properties('MP2/aug-cc-pvtz', properties = ['dipole'])
--------------------------------------------------------------------------

    Molecular point group: c1
  Charge       = 0
  Multiplicity = 1
  Basis Set: AUG-CC-PVTZ
    Blend: AUG-CC-PVTZ
  Basis Set: (AUG-CC-PVTZ AUX)
    Blend: AUG-CC-PVTZ-JKFIT

    Orbital Energies [Eh]
    ---------------------

    Doubly Occupied:

       1A    -15.555836     2A    -11.273165     3A    -11.268320
       4A    -11.252984     5A    -11.239927     6A    -11.233261
       7A    -11.230742     8A    -11.229556     9A    -11.220998
      10A    -11.220306    11A     -1.252074    12A     -1.140441
      13A     -1.091016    14A     -1.043771    15A     -0.951374
      16A     -0.868183    17A     -0.839363    18A     -0.814468
      19A     -0.781995    20A     -0.701105    21A     -0.667207
      22A     -0.638782    23A     -0.623499    24A     -0.602195
      25A     -0.584120    26A     -0.565332    27A     -0.549763
      28A     -0.536198    29A     -0.527826    30A     -0.503927
      31A     -0.496805    32A     -0.429166    33A     -0.426680
      34A     -0.407217    35A     -0.370950    36A     -0.314670

  @DF-RHF Final Energy:  -401.77322976528228

   => Energetics <=

    Nuclear Repulsion Energy =            489.2901857890471433
    One-Electron Energy =               -1513.2203882239928134
    Two-Electron Energy =                 622.1569726696633325
    Total Energy =                       -401.7732297652822808
  Basis Set: (AUG-CC-PVTZ AUX)
    Blend: AUG-CC-PVTZ-RI
    Molecular point group: c1

    Geometry (in Angstrom), charge = 0, multiplicity = 1:

       Center              X                  Y                   Z               Mass
    ------------   -----------------  -----------------  -----------------  -----------------
         N            0.181377374320    -0.910592037675    -0.000002000189    14.003074004430
         C            2.078859374320     0.573909962325    -0.000003000189    12.000000000000
         C            2.957320374320    -0.403430037675    -0.747422000189    12.000000000000
         C            2.957319374320    -0.403422037675     0.747426999811    12.000000000000
         C            0.612091374320     0.366933962325    -0.000003000189    12.000000000000
         C           -0.268306125680     1.431709462325    -0.000002000189    12.000000000000
         C           -1.649754625680     1.199215962325     0.000000999811    12.000000000000
         C           -2.114411625680    -0.120963037675     0.000002999811    12.000000000000
         C           -1.143792625680    -1.127997037675     0.000000999811    12.000000000000
         C           -3.583253625680    -0.444664037675    -0.000000000189    12.000000000000
         H            2.397876374320     1.613645962325    -0.000009000189     1.007825032230
         H            3.821965374320    -0.007070037675    -1.270401000189     1.007825032230
         H            2.439473374320    -1.218124037675    -1.241974000189     1.007825032230
         H            2.439474374320    -1.218112037675     1.241987999811     1.007825032230
         H            3.821963374320    -0.007056037675     1.270402999811     1.007825032230
         H            0.098164374320     2.466547962325    -0.000003000189     1.007825032230
         H           -2.356801625680     2.027975962325     0.000000999811     1.007825032230
         H           -1.447724625680    -2.175662037675     0.000001999811     1.007825032230
         H           -4.078906625680    -0.029742037675     0.883291999811     1.007825032230
         H           -3.743922625680    -1.526210037675     0.000041999811     1.007825032230
         H           -4.078886625680    -0.029813037675    -0.883337000189     1.007825032230

  Basis Set: AUG-CC-PVTZ
    Blend: AUG-CC-PVTZ
  Basis Set: (AUG-CC-PVTZ AUX)
    Blend: AUG-CC-PVTZ-JKFIT
	 Reference Energy          =    -401.7732297652822808 [Eh]
	 Singles Energy            =      -0.0000000000000000 [Eh]
	 Same-Spin Energy          =      -0.4460008125511123 [Eh]
	 Opposite-Spin Energy      =      -1.4317266290115660 [Eh]
	 Correlation Energy        =      -1.8777274415626783 [Eh]
	 Total Energy              =    -403.6509572068449643 [Eh]

	 ================> DF-SCS-MP2 Energies <==================
	-----------------------------------------------------------
	 SCS Same-Spin Scale       =       0.3333333333333333 [-]
	 SCS Opposite-Spin Scale   =       1.2000000000000000 [-]
	 SCS Same-Spin Energy      =      -0.1486669375170374 [Eh]
	 SCS Opposite-Spin Energy  =      -1.7180719548138792 [Eh]
	 SCS Correlation Energy    =      -1.8667388923309167 [Eh]
	 SCS Total Energy          =    -403.6399686576132240 [Eh]
	-----------------------------------------------------------

  Dipole Moment: [D]
     X:    -1.3502      Y:     1.4493      Z:    -0.0000     Total:     1.9808

*** Psi4 exiting successfully. Buy a developer a beer!
