                               Psi4 1.4a3.dev225

  ==> Input File <==

--------------------------------------------------------------------------
#psi4
#
memory 32 gb

molecule  {
0 1
  N        0.1871790    -0.9111820    -0.0000020
  C        2.0846610     0.5733200    -0.0000030
  C        2.9631220    -0.4040200    -0.7474220
  C        2.9631210    -0.4040120     0.7474270
  C        0.6178930     0.3663440    -0.0000030
  C       -0.2752490     1.4465330    -0.0000020
  C       -1.6439530     1.1986260     0.0000010
  C       -2.1086100    -0.1215530     0.0000030
  C       -1.1379910    -1.1285870     0.0000010
  C       -3.5774520    -0.4452540     0.0000000
  H        2.4036780     1.6130560    -0.0000090
  H        3.8277670    -0.0076600    -1.2704010
  H        2.4452750    -1.2187140    -1.2419740
  H        2.4452760    -1.2187020     1.2419880
  H        3.8277650    -0.0076460     1.2704030
  H        0.1039660     2.4659580    -0.0000030
  H       -2.3510000     2.0273860     0.0000010
  H       -1.4363507    -2.1570440     0.0000020
  H       -4.0731050    -0.0303320     0.8832920
  H       -3.7381210    -1.5268000     0.0000420
  H       -4.0730850    -0.0304030    -0.8833370
units angstrom
no_reorient  #important for SAPT in psi4, default
symmetry c1  #important for SAPT in psi4, default
}

set PROPERTIES_ORIGIN ["COM"]
properties('MP2/aug-cc-pvtz', properties = ['dipole'])
--------------------------------------------------------------------------

    Molecular point group: c1
  Charge       = 0
  Multiplicity = 1
  Basis Set: AUG-CC-PVTZ
    Blend: AUG-CC-PVTZ
  Basis Set: (AUG-CC-PVTZ AUX)
    Blend: AUG-CC-PVTZ-JKFIT

    Orbital Energies [Eh]
    ---------------------

    Doubly Occupied:

       1A    -15.555487     2A    -11.275947     3A    -11.265370
       4A    -11.251516     5A    -11.239180     6A    -11.233719
       7A    -11.231295     8A    -11.229306     9A    -11.221496
      10A    -11.220803    11A     -1.251104    12A     -1.140822
      13A     -1.091457    14A     -1.042772    15A     -0.951151
      16A     -0.868248    17A     -0.840413    18A     -0.814861
      19A     -0.781515    20A     -0.702205    21A     -0.666796
      22A     -0.639073    23A     -0.627299    24A     -0.601782
      25A     -0.583709    26A     -0.565367    27A     -0.549561
      28A     -0.535310    29A     -0.528039    30A     -0.504064
      31A     -0.499293    32A     -0.429374    33A     -0.427263
      34A     -0.406412    35A     -0.372313    36A     -0.312603

  @DF-RHF Final Energy:  -401.77388309078219

   => Energetics <=

    Nuclear Repulsion Energy =            489.1249230618272463
    One-Electron Energy =               -1512.8837548056471860
    Two-Electron Energy =                 621.9849486530376907
    Total Energy =                       -401.7738830907821921
  Basis Set: (AUG-CC-PVTZ AUX)
    Blend: AUG-CC-PVTZ-RI
    Molecular point group: c1

    Geometry (in Angstrom), charge = 0, multiplicity = 1:

       Center              X                  Y                   Z               Mass
    ------------   -----------------  -----------------  -----------------  -----------------
         N            0.182484287222    -0.912127251509    -0.000002000189    14.003074004430
         C            2.079966287222     0.572374748491    -0.000003000189    12.000000000000
         C            2.958427287222    -0.404965251509    -0.747422000189    12.000000000000
         C            2.958426287222    -0.404957251509     0.747426999811    12.000000000000
         C            0.613198287222     0.365398748491    -0.000003000189    12.000000000000
         C           -0.279943712778     1.445587748491    -0.000002000189    12.000000000000
         C           -1.648647712778     1.197680748491     0.000000999811    12.000000000000
         C           -2.113304712778    -0.122498251509     0.000002999811    12.000000000000
         C           -1.142685712778    -1.129532251509     0.000000999811    12.000000000000
         C           -3.582146712778    -0.446199251509    -0.000000000189    12.000000000000
         H            2.398983287222     1.612110748491    -0.000009000189     1.007825032230
         H            3.823072287222    -0.008605251509    -1.270401000189     1.007825032230
         H            2.440580287222    -1.219659251509    -1.241974000189     1.007825032230
         H            2.440581287222    -1.219647251509     1.241987999811     1.007825032230
         H            3.823070287222    -0.008591251509     1.270402999811     1.007825032230
         H            0.099271287222     2.465012748491    -0.000003000189     1.007825032230
         H           -2.355694712778     2.026440748491     0.000000999811     1.007825032230
         H           -1.441045412778    -2.157989251509     0.000001999811     1.007825032230
         H           -4.077799712778    -0.031277251509     0.883291999811     1.007825032230
         H           -3.742815712778    -1.527745251509     0.000041999811     1.007825032230
         H           -4.077779712778    -0.031348251509    -0.883337000189     1.007825032230

  Basis Set: AUG-CC-PVTZ
    Blend: AUG-CC-PVTZ
  Basis Set: (AUG-CC-PVTZ AUX)
    Blend: AUG-CC-PVTZ-JKFIT
	 Reference Energy          =    -401.7738830907821921 [Eh]
	 Singles Energy            =      -0.0000000000000000 [Eh]
	 Same-Spin Energy          =      -0.4458945309619076 [Eh]
	 Opposite-Spin Energy      =      -1.4314969257169170 [Eh]
	 Correlation Energy        =      -1.8773914566788246 [Eh]
	 Total Energy              =    -403.6512745474610142 [Eh]

	 ================> DF-SCS-MP2 Energies <==================
	-----------------------------------------------------------
	 SCS Same-Spin Scale       =       0.3333333333333333 [-]
	 SCS Opposite-Spin Scale   =       1.2000000000000000 [-]
	 SCS Same-Spin Energy      =      -0.1486315103206358 [Eh]
	 SCS Opposite-Spin Energy  =      -1.7177963108603003 [Eh]
	 SCS Correlation Energy    =      -1.8664278211809362 [Eh]
	 SCS Total Energy          =    -403.6403109119631267 [Eh]
	-----------------------------------------------------------

  Dipole Moment: [D]
     X:    -1.3212      Y:     1.4471      Z:    -0.0000     Total:     1.9595

*** Psi4 exiting successfully. Buy a developer a beer!
