                               Psi4 1.4a3.dev225

  ==> Input File <==

--------------------------------------------------------------------------
#psi4
#
memory 32 gb

molecule  {
0 1
  N        0.1871790    -0.9111820    -0.0000020
  C        2.0846610     0.5733200    -0.0000030
  C        2.9631220    -0.4040200    -0.7474220
  C        2.9631210    -0.4040120     0.7474270
  C        0.6178930     0.3663440    -0.0000030
  C       -0.2752490     1.4465330    -0.0000020
  C       -1.5085022     1.1428240     0.0000015
  C       -2.1086100    -0.1215530     0.0000030
  C       -1.1379910    -1.1285870     0.0000010
  C       -3.5774520    -0.4452540     0.0000000
  H        2.4036780     1.6130560    -0.0000090
  H        3.8277670    -0.0076600    -1.2704010
  H        2.4452750    -1.2187140    -1.2419740
  H        2.4452760    -1.2187020     1.2419880
  H        3.8277650    -0.0076460     1.2704030
  H        0.1039660     2.4659580    -0.0000030
  H       -2.3510000     2.0273860     0.0000010
  H       -1.4419230    -2.1762520     0.0000020
  H       -4.0731050    -0.0303320     0.8832920
  H       -3.7381210    -1.5268000     0.0000420
  H       -4.0730850    -0.0304030    -0.8833370
units angstrom
no_reorient  #important for SAPT in psi4, default
symmetry c1  #important for SAPT in psi4, default
}

set PROPERTIES_ORIGIN ["COM"]
properties('MP2/aug-cc-pvtz', properties = ['dipole'])
--------------------------------------------------------------------------

    Molecular point group: c1
  Charge       = 0
  Multiplicity = 1
  Basis Set: AUG-CC-PVTZ
    Blend: AUG-CC-PVTZ
  Basis Set: (AUG-CC-PVTZ AUX)
    Blend: AUG-CC-PVTZ-JKFIT

    Orbital Energies [Eh]
    ---------------------

    Doubly Occupied:

       1A    -15.552708     2A    -11.279494     3A    -11.264502
       4A    -11.247696     5A    -11.237286     6A    -11.232765
       7A    -11.232107     8A    -11.223427     9A    -11.222734
      10A    -11.221136    11A     -1.256257    12A     -1.142945
      13A     -1.100600    14A     -1.055465    15A     -0.954524
      16A     -0.866910    17A     -0.841690    18A     -0.816460
      19A     -0.775272    20A     -0.701057    21A     -0.676486
      22A     -0.641998    23A     -0.627249    24A     -0.597544
      25A     -0.585427    26A     -0.554560    27A     -0.547781
      28A     -0.540997    29A     -0.510022    30A     -0.507031
      31A     -0.505427    32A     -0.431657    33A     -0.427781
      34A     -0.399379    35A     -0.388852    36A     -0.312389

  @DF-RHF Final Energy:  -401.74605298718257

   => Energetics <=

    Nuclear Repulsion Energy =            491.4915513444499879
    One-Electron Energy =               -1517.5159793734123923
    Two-Electron Energy =                 624.2783750417797819
    Total Energy =                       -401.7460529871825656
  Basis Set: (AUG-CC-PVTZ AUX)
    Blend: AUG-CC-PVTZ-RI
    Molecular point group: c1

    Geometry (in Angstrom), charge = 0, multiplicity = 1:

       Center              X                  Y                   Z               Mass
    ------------   -----------------  -----------------  -----------------  -----------------
         N            0.170313545246    -0.906950403460    -0.000002045272    14.003074004430
         C            2.067795545246     0.577551596540    -0.000003045272    12.000000000000
         C            2.946256545246    -0.399788403460    -0.747422045272    12.000000000000
         C            2.946255545246    -0.399780403460     0.747426954728    12.000000000000
         C            0.601027545246     0.370575596540    -0.000003045272    12.000000000000
         C           -0.292114454754     1.450764596540    -0.000002045272    12.000000000000
         C           -1.525367654754     1.147055596540     0.000001454728    12.000000000000
         C           -2.125475454754    -0.117321403460     0.000002954728    12.000000000000
         C           -1.154856454754    -1.124355403460     0.000000954728    12.000000000000
         C           -3.594317454754    -0.441022403460    -0.000000045272    12.000000000000
         H            2.386812545246     1.617287596540    -0.000009045272     1.007825032230
         H            3.810901545246    -0.003428403460    -1.270401045272     1.007825032230
         H            2.428409545246    -1.214482403460    -1.241974045272     1.007825032230
         H            2.428410545246    -1.214470403460     1.241987954728     1.007825032230
         H            3.810899545246    -0.003414403460     1.270402954728     1.007825032230
         H            0.087100545246     2.470189596540    -0.000003045272     1.007825032230
         H           -2.367865454754     2.031617596540     0.000000954728     1.007825032230
         H           -1.458788454754    -2.172020403460     0.000001954728     1.007825032230
         H           -4.089970454754    -0.026100403460     0.883291954728     1.007825032230
         H           -3.754986454754    -1.522568403460     0.000041954728     1.007825032230
         H           -4.089950454754    -0.026171403460    -0.883337045272     1.007825032230

  Basis Set: AUG-CC-PVTZ
    Blend: AUG-CC-PVTZ
  Basis Set: (AUG-CC-PVTZ AUX)
    Blend: AUG-CC-PVTZ-JKFIT
	 Reference Energy          =    -401.7460529871825656 [Eh]
	 Singles Energy            =      -0.0000000000000000 [Eh]
	 Same-Spin Energy          =      -0.4460810107367245 [Eh]
	 Opposite-Spin Energy      =      -1.4318655964223463 [Eh]
	 Correlation Energy        =      -1.8779466071590707 [Eh]
	 Total Energy              =    -403.6239995943416261 [Eh]

	 ================> DF-SCS-MP2 Energies <==================
	-----------------------------------------------------------
	 SCS Same-Spin Scale       =       0.3333333333333333 [-]
	 SCS Opposite-Spin Scale   =       1.2000000000000000 [-]
	 SCS Same-Spin Energy      =      -0.1486936702455748 [Eh]
	 SCS Opposite-Spin Energy  =      -1.7182387157068155 [Eh]
	 SCS Correlation Energy    =      -1.8669323859523903 [Eh]
	 SCS Total Energy          =    -403.6129853731349613 [Eh]
	-----------------------------------------------------------

  Dipole Moment: [D]
     X:    -1.1957      Y:     1.3513      Z:    -0.0000     Total:     1.8044

*** Psi4 exiting successfully. Buy a developer a beer!
