                               Psi4 1.4a3.dev225

  ==> Input File <==

--------------------------------------------------------------------------
#psi4
#
memory 32 gb

molecule  {
0 1
  N        0.1871790    -0.9111820    -0.0000020
  C        2.0846610     0.5733200    -0.0000030
  C        2.9631220    -0.4040200    -0.7474220
  C        2.9631210    -0.4040120     0.7474270
  C        0.6042932     0.5207968    -0.0000039
  C       -0.2752490     1.4465330    -0.0000020
  C       -1.6439530     1.1986260     0.0000010
  C       -2.1086100    -0.1215530     0.0000030
  C       -1.1379910    -1.1285870     0.0000010
  C       -3.5774520    -0.4452540     0.0000000
  H        2.4036780     1.6130560    -0.0000090
  H        3.8277670    -0.0076600    -1.2704010
  H        2.4452750    -1.2187140    -1.2419740
  H        2.4452760    -1.2187020     1.2419880
  H        3.8277650    -0.0076460     1.2704030
  H        0.1039660     2.4659580    -0.0000030
  H       -2.3510000     2.0273860     0.0000010
  H       -1.4419230    -2.1762520     0.0000020
  H       -4.0731050    -0.0303320     0.8832920
  H       -3.7381210    -1.5268000     0.0000420
  H       -4.0730850    -0.0304030    -0.8833370
units angstrom
no_reorient  #important for SAPT in psi4, default
symmetry c1  #important for SAPT in psi4, default
}

set PROPERTIES_ORIGIN ["COM"]
properties('MP2/aug-cc-pvtz', properties = ['dipole'])
--------------------------------------------------------------------------

    Molecular point group: c1
  Charge       = 0
  Multiplicity = 1
  Basis Set: AUG-CC-PVTZ
    Blend: AUG-CC-PVTZ
  Basis Set: (AUG-CC-PVTZ AUX)
    Blend: AUG-CC-PVTZ-JKFIT

    Orbital Energies [Eh]
    ---------------------

    Doubly Occupied:

       1A    -15.563041     2A    -11.269652     3A    -11.267474
       4A    -11.253468     5A    -11.242137     6A    -11.231735
       7A    -11.230775     8A    -11.221147     9A    -11.220455
      10A    -11.219851    11A     -1.227754    12A     -1.137891
      13A     -1.086423    14A     -1.062095    15A     -0.951611
      16A     -0.866139    17A     -0.842860    18A     -0.813423
      19A     -0.780893    20A     -0.694553    21A     -0.672335
      22A     -0.630405    23A     -0.625357    24A     -0.607425
      25A     -0.584490    26A     -0.564260    27A     -0.550666
      28A     -0.529601    29A     -0.525612    30A     -0.503423
      31A     -0.481546    32A     -0.430028    33A     -0.426262
      34A     -0.410100    35A     -0.373134    36A     -0.317872

  @DF-RHF Final Energy:  -401.74144912889295

   => Energetics <=

    Nuclear Repulsion Energy =            488.2805928840009528
    One-Electron Energy =               -1511.2122953842372226
    Two-Electron Energy =                 621.1902533713433741
    Total Energy =                       -401.7414491288928957
  Basis Set: (AUG-CC-PVTZ AUX)
    Blend: AUG-CC-PVTZ-RI
    Molecular point group: c1

    Geometry (in Angstrom), charge = 0, multiplicity = 1:

       Center              X                  Y                   Z               Mass
    ------------   -----------------  -----------------  -----------------  -----------------
         N            0.183752711464    -0.925908054118    -0.000001919040    14.003074004430
         C            2.081234711464     0.558593945882    -0.000002919040    12.000000000000
         C            2.959695711464    -0.418746054118    -0.747421919040    12.000000000000
         C            2.959694711464    -0.418738054118     0.747427080960    12.000000000000
         C            0.600866911464     0.506070745882    -0.000003819040    12.000000000000
         C           -0.278675288536     1.431806945882    -0.000001919040    12.000000000000
         C           -1.647379288536     1.183899945882     0.000001080960    12.000000000000
         C           -2.112036288536    -0.136279054118     0.000003080960    12.000000000000
         C           -1.141417288536    -1.143313054118     0.000001080960    12.000000000000
         C           -3.580878288536    -0.459980054118     0.000000080960    12.000000000000
         H            2.400251711464     1.598329945882    -0.000008919040     1.007825032230
         H            3.824340711464    -0.022386054118    -1.270400919040     1.007825032230
         H            2.441848711464    -1.233440054118    -1.241973919040     1.007825032230
         H            2.441849711464    -1.233428054118     1.241988080960     1.007825032230
         H            3.824338711464    -0.022372054118     1.270403080960     1.007825032230
         H            0.100539711464     2.451231945882    -0.000002919040     1.007825032230
         H           -2.354426288536     2.012659945882     0.000001080960     1.007825032230
         H           -1.445349288536    -2.190978054118     0.000002080960     1.007825032230
         H           -4.076531288536    -0.045058054118     0.883292080960     1.007825032230
         H           -3.741547288536    -1.541526054118     0.000042080960     1.007825032230
         H           -4.076511288536    -0.045129054118    -0.883336919040     1.007825032230

  Basis Set: AUG-CC-PVTZ
    Blend: AUG-CC-PVTZ
  Basis Set: (AUG-CC-PVTZ AUX)
    Blend: AUG-CC-PVTZ-JKFIT
	 Reference Energy          =    -401.7414491288929526 [Eh]
	 Singles Energy            =      -0.0000000000000000 [Eh]
	 Same-Spin Energy          =      -0.4462422650605936 [Eh]
	 Opposite-Spin Energy      =      -1.4354053701163849 [Eh]
	 Correlation Energy        =      -1.8816476351769786 [Eh]
	 Total Energy              =    -403.6230967640699419 [Eh]

	 ================> DF-SCS-MP2 Energies <==================
	-----------------------------------------------------------
	 SCS Same-Spin Scale       =       0.3333333333333333 [-]
	 SCS Opposite-Spin Scale   =       1.2000000000000000 [-]
	 SCS Same-Spin Energy      =      -0.1487474216868645 [Eh]
	 SCS Opposite-Spin Energy  =      -1.7224864441396619 [Eh]
	 SCS Correlation Energy    =      -1.8712338658265264 [Eh]
	 SCS Total Energy          =    -403.6126829947194778 [Eh]
	-----------------------------------------------------------

  Dipole Moment: [D]
     X:    -1.4266      Y:     1.3699      Z:    -0.0000     Total:     1.9778

*** Psi4 exiting successfully. Buy a developer a beer!
