                               Psi4 1.4a3.dev225

  ==> Input File <==

--------------------------------------------------------------------------
#psi4
#
memory 32 gb

molecule  {
0 1
  N        0.1571946    -0.7738550    -0.0000020
  C        2.0846610     0.5733200    -0.0000030
  C        2.9631220    -0.4040200    -0.7474220
  C        2.9631210    -0.4040120     0.7474270
  C        0.6178930     0.3663440    -0.0000030
  C       -0.2752490     1.4465330    -0.0000020
  C       -1.6439530     1.1986260     0.0000010
  C       -2.1086100    -0.1215530     0.0000030
  C       -1.1379910    -1.1285870     0.0000010
  C       -3.5774520    -0.4452540     0.0000000
  H        2.4036780     1.6130560    -0.0000090
  H        3.8277670    -0.0076600    -1.2704010
  H        2.4452750    -1.2187140    -1.2419740
  H        2.4452760    -1.2187020     1.2419880
  H        3.8277650    -0.0076460     1.2704030
  H        0.1039660     2.4659580    -0.0000030
  H       -2.3510000     2.0273860     0.0000010
  H       -1.4419230    -2.1762520     0.0000020
  H       -4.0731050    -0.0303320     0.8832920
  H       -3.7381210    -1.5268000     0.0000420
  H       -4.0730850    -0.0304030    -0.8833370
units angstrom
no_reorient  #important for SAPT in psi4, default
symmetry c1  #important for SAPT in psi4, default
}

set PROPERTIES_ORIGIN ["COM"]
properties('MP2/aug-cc-pvtz', properties = ['dipole'])
--------------------------------------------------------------------------

    Molecular point group: c1
  Charge       = 0
  Multiplicity = 1
  Basis Set: AUG-CC-PVTZ
    Blend: AUG-CC-PVTZ
  Basis Set: (AUG-CC-PVTZ AUX)
    Blend: AUG-CC-PVTZ-JKFIT

    Orbital Energies [Eh]
    ---------------------

    Doubly Occupied:

       1A    -15.536748     2A    -11.267415     3A    -11.260070
       4A    -11.246957     5A    -11.240001     6A    -11.231412
       7A    -11.228683     8A    -11.227811     9A    -11.220635
      10A    -11.219952    11A     -1.281643    12A     -1.139821
      13A     -1.093560    14A     -1.040971    15A     -0.957341
      16A     -0.871469    17A     -0.840857    18A     -0.814105
      19A     -0.781960    20A     -0.708595    21A     -0.669666
      22A     -0.646368    23A     -0.624796    24A     -0.602530
      25A     -0.585999    26A     -0.565480    27A     -0.548100
      28A     -0.547278    29A     -0.531547    30A     -0.506253
      31A     -0.505142    32A     -0.427517    33A     -0.424444
      34A     -0.382224    35A     -0.371844    36A     -0.317578

  @DF-RHF Final Energy:  -401.76233708326981

   => Energetics <=

    Nuclear Repulsion Energy =            492.0940528196268815
    One-Electron Energy =               -1518.7792404494300627
    Two-Electron Energy =                 624.9228505465334820
    Total Energy =                       -401.7623370832698129
  Basis Set: (AUG-CC-PVTZ AUX)
    Blend: AUG-CC-PVTZ-RI
    Molecular point group: c1

    Geometry (in Angstrom), charge = 0, multiplicity = 1:

       Center              X                  Y                   Z               Mass
    ------------   -----------------  -----------------  -----------------  -----------------
         N            0.155696914761    -0.789103760471    -0.000002000189    14.003074004430
         C            2.083163314761     0.558071239529    -0.000003000189    12.000000000000
         C            2.961624314761    -0.419268760471    -0.747422000189    12.000000000000
         C            2.961623314761    -0.419260760471     0.747426999811    12.000000000000
         C            0.616395314761     0.351095239529    -0.000003000189    12.000000000000
         C           -0.276746685239     1.431284239529    -0.000002000189    12.000000000000
         C           -1.645450685239     1.183377239529     0.000000999811    12.000000000000
         C           -2.110107685239    -0.136801760471     0.000002999811    12.000000000000
         C           -1.139488685239    -1.143835760471     0.000000999811    12.000000000000
         C           -3.578949685239    -0.460502760471    -0.000000000189    12.000000000000
         H            2.402180314761     1.597807239529    -0.000009000189     1.007825032230
         H            3.826269314761    -0.022908760471    -1.270401000189     1.007825032230
         H            2.443777314761    -1.233962760471    -1.241974000189     1.007825032230
         H            2.443778314761    -1.233950760471     1.241987999811     1.007825032230
         H            3.826267314761    -0.022894760471     1.270402999811     1.007825032230
         H            0.102468314761     2.450709239529    -0.000003000189     1.007825032230
         H           -2.352497685239     2.012137239529     0.000000999811     1.007825032230
         H           -1.443420685239    -2.191500760471     0.000001999811     1.007825032230
         H           -4.074602685239    -0.045580760471     0.883291999811     1.007825032230
         H           -3.739618685239    -1.542048760471     0.000041999811     1.007825032230
         H           -4.074582685239    -0.045651760471    -0.883337000189     1.007825032230

  Basis Set: AUG-CC-PVTZ
    Blend: AUG-CC-PVTZ
  Basis Set: (AUG-CC-PVTZ AUX)
    Blend: AUG-CC-PVTZ-JKFIT
	 Reference Energy          =    -401.7623370832698129 [Eh]
	 Singles Energy            =      -0.0000000000000000 [Eh]
	 Same-Spin Energy          =      -0.4449369739186242 [Eh]
	 Opposite-Spin Energy      =      -1.4287323944790074 [Eh]
	 Correlation Energy        =      -1.8736693683976315 [Eh]
	 Total Energy              =    -403.6360064516674697 [Eh]

	 ================> DF-SCS-MP2 Energies <==================
	-----------------------------------------------------------
	 SCS Same-Spin Scale       =       0.3333333333333333 [-]
	 SCS Opposite-Spin Scale   =       1.2000000000000000 [-]
	 SCS Same-Spin Energy      =      -0.1483123246395414 [Eh]
	 SCS Opposite-Spin Energy  =      -1.7144788733748089 [Eh]
	 SCS Correlation Energy    =      -1.8627911980143503 [Eh]
	 SCS Total Energy          =    -403.6251282812841623 [Eh]
	-----------------------------------------------------------

  Dipole Moment: [D]
     X:    -1.3060      Y:     1.1777      Z:    -0.0000     Total:     1.7585

*** Psi4 exiting successfully. Buy a developer a beer!
