                               Psi4 1.4a3.dev225

  ==> Input File <==

--------------------------------------------------------------------------
#psi4
#
memory 32 gb

molecule  {
0 1
  N        0.1871790    -0.9111820    -0.0000020
  C        2.0846610     0.5733200    -0.0000030
  C        2.9631220    -0.4040200    -0.7474220
  C        2.9631210    -0.4040120     0.7474270
  C        0.6178930     0.3663440    -0.0000030
  C       -0.2752490     1.4465330    -0.0000020
  C       -1.6439530     1.1986260     0.0000010
  C       -2.1086100    -0.1215530     0.0000030
  C       -1.1379910    -1.1285870     0.0000010
  C       -3.5774520    -0.4452540     0.0000000
  H        2.4036780     1.6130560    -0.0000090
  H        3.8277670    -0.0076600    -1.2704010
  H        2.4452750    -1.2187140    -1.2419740
  H        2.4452760    -1.2187020     1.2419880
  H        3.8277650    -0.0076460     1.2704030
  H        0.1039660     2.4659580    -0.0000030
  H       -2.3510000     2.0273860     0.0000010
  H       -1.4419230    -2.1762520     0.0000020
  H       -4.0731050    -0.0303320     0.8832920
  H       -3.7381210    -1.5268000     0.0000420
  H       -4.0957260    -0.0114522    -0.9236886
units angstrom
no_reorient  #important for SAPT in psi4, default
symmetry c1  #important for SAPT in psi4, default
}

set PROPERTIES_ORIGIN ["COM"]
properties('MP2/aug-cc-pvtz', properties = ['dipole'])
--------------------------------------------------------------------------

    Molecular point group: c1
  Charge       = 0
  Multiplicity = 1
  Basis Set: AUG-CC-PVTZ
    Blend: AUG-CC-PVTZ
  Basis Set: (AUG-CC-PVTZ AUX)
    Blend: AUG-CC-PVTZ-JKFIT

    Orbital Energies [Eh]
    ---------------------

    Doubly Occupied:

       1A    -15.555902     2A    -11.276398     3A    -11.268091
       4A    -11.251877     5A    -11.239802     6A    -11.235200
       7A    -11.233960     8A    -11.231533     9A    -11.221699
      10A    -11.221006    11A     -1.251413    12A     -1.140990
      13A     -1.091360    14A     -1.042234    15A     -0.948395
      16A     -0.866959    17A     -0.839514    18A     -0.815053
      19A     -0.781292    20A     -0.701058    21A     -0.667028
      22A     -0.638926    23A     -0.626308    24A     -0.601081
      25A     -0.578955    26A     -0.564893    27A     -0.546870
      28A     -0.533694    29A     -0.528331    30A     -0.504036
      31A     -0.499159    32A     -0.429382    33A     -0.427383
      34A     -0.406533    35A     -0.372531    36A     -0.312712

  @DF-RHF Final Energy:  -401.77165808704729

   => Energetics <=

    Nuclear Repulsion Energy =            488.8074820042215833
    One-Electron Energy =               -1512.2551653028856435
    Two-Electron Energy =                 621.6760252116167749
    Total Energy =                       -401.7716580870472853
  Basis Set: (AUG-CC-PVTZ AUX)
    Blend: AUG-CC-PVTZ-RI
    Molecular point group: c1

    Geometry (in Angstrom), charge = 0, multiplicity = 1:

       Center              X                  Y                   Z               Mass
    ------------   -----------------  -----------------  -----------------  -----------------
         N            0.182697934015    -0.912125303847     0.000303564560    14.003074004430
         C            2.080179934015     0.572376696153     0.000302564560    12.000000000000
         C            2.958640934015    -0.404963303847    -0.747116435440    12.000000000000
         C            2.958639934015    -0.404955303847     0.747732564560    12.000000000000
         C            0.613411934015     0.365400696153     0.000302564560    12.000000000000
         C           -0.279730065985     1.445589696153     0.000303564560    12.000000000000
         C           -1.648434065985     1.197682696153     0.000306564560    12.000000000000
         C           -2.113091065985    -0.122496303847     0.000308564560    12.000000000000
         C           -1.142472065985    -1.129530303847     0.000306564560    12.000000000000
         C           -3.581933065985    -0.446197303847     0.000305564560    12.000000000000
         H            2.399196934015     1.612112696153     0.000296564560     1.007825032230
         H            3.823285934015    -0.008603303847    -1.270095435440     1.007825032230
         H            2.440793934015    -1.219657303847    -1.241668435440     1.007825032230
         H            2.440794934015    -1.219645303847     1.242293564560     1.007825032230
         H            3.823283934015    -0.008589303847     1.270708564560     1.007825032230
         H            0.099484934015     2.465014696153     0.000302564560     1.007825032230
         H           -2.355481065985     2.026442696153     0.000306564560     1.007825032230
         H           -1.446404065985    -2.177195303847     0.000307564560     1.007825032230
         H           -4.077586065985    -0.031275303847     0.883597564560     1.007825032230
         H           -3.742602065985    -1.527743303847     0.000347564560     1.007825032230
         H           -4.100207065985    -0.012395503847    -0.923383035440     1.007825032230

  Basis Set: AUG-CC-PVTZ
    Blend: AUG-CC-PVTZ
  Basis Set: (AUG-CC-PVTZ AUX)
    Blend: AUG-CC-PVTZ-JKFIT
	 Reference Energy          =    -401.7716580870472853 [Eh]
	 Singles Energy            =      -0.0000000000000000 [Eh]
	 Same-Spin Energy          =      -0.4459352136446484 [Eh]
	 Opposite-Spin Energy      =      -1.4319628375697753 [Eh]
	 Correlation Energy        =      -1.8778980512144237 [Eh]
	 Total Energy              =    -403.6495561382616870 [Eh]

	 ================> DF-SCS-MP2 Energies <==================
	-----------------------------------------------------------
	 SCS Same-Spin Scale       =       0.3333333333333333 [-]
	 SCS Opposite-Spin Scale   =       1.2000000000000000 [-]
	 SCS Same-Spin Energy      =      -0.1486450712148828 [Eh]
	 SCS Opposite-Spin Energy  =      -1.7183554050837302 [Eh]
	 SCS Correlation Energy    =      -1.8670004762986130 [Eh]
	 SCS Total Energy          =    -403.6386585633458708 [Eh]
	-----------------------------------------------------------

  Dipole Moment: [D]
     X:    -1.2859      Y:     1.4510      Z:     0.0156     Total:     1.9389

*** Psi4 exiting successfully. Buy a developer a beer!
