                               Psi4 1.4a3.dev225

  ==> Input File <==

--------------------------------------------------------------------------
#psi4
#
memory 32 gb

molecule  {
0 1
  N        0.1871790    -0.9111820    -0.0000020
  C        2.0846610     0.5733200    -0.0000030
  C        2.9631220    -0.4040200    -0.7474220
  C        2.9631210    -0.4040120     0.7474270
  C        0.6178930     0.3663440    -0.0000030
  C       -0.2752490     1.4465330    -0.0000020
  C       -1.4471551     1.2342711     0.0000006
  C       -2.1086100    -0.1215530     0.0000030
  C       -1.1379910    -1.1285870     0.0000010
  C       -3.5774520    -0.4452540     0.0000000
  H        2.4036780     1.6130560    -0.0000090
  H        3.8277670    -0.0076600    -1.2704010
  H        2.4452750    -1.2187140    -1.2419740
  H        2.4452760    -1.2187020     1.2419880
  H        3.8277650    -0.0076460     1.2704030
  H        0.1039660     2.4659580    -0.0000030
  H       -2.3510000     2.0273860     0.0000010
  H       -1.4419230    -2.1762520     0.0000020
  H       -4.0731050    -0.0303320     0.8832920
  H       -3.7381210    -1.5268000     0.0000420
  H       -4.0730850    -0.0304030    -0.8833370
units angstrom
no_reorient  #important for SAPT in psi4, default
symmetry c1  #important for SAPT in psi4, default
}

set PROPERTIES_ORIGIN ["COM"]
properties('MP2/aug-cc-pvtz', properties = ['dipole'])
--------------------------------------------------------------------------

    Molecular point group: c1
  Charge       = 0
  Multiplicity = 1
  Basis Set: AUG-CC-PVTZ
    Blend: AUG-CC-PVTZ
  Basis Set: (AUG-CC-PVTZ AUX)
    Blend: AUG-CC-PVTZ-JKFIT

    Orbital Energies [Eh]
    ---------------------

    Doubly Occupied:

       1A    -15.551132     2A    -11.282969     3A    -11.257887
       4A    -11.244357     5A    -11.243154     6A    -11.234468
       7A    -11.231599     8A    -11.224810     9A    -11.224116
      10A    -11.211986    11A     -1.254668    12A     -1.143038
      13A     -1.110193    14A     -1.052198    15A     -0.954585
      16A     -0.869255    17A     -0.824973    18A     -0.817574
      19A     -0.779491    20A     -0.702329    21A     -0.677100
      22A     -0.643159    23A     -0.626263    24A     -0.596063
      25A     -0.582383    26A     -0.564703    27A     -0.547705
      28A     -0.542947    29A     -0.512507    30A     -0.508378
      31A     -0.486524    32A     -0.431273    33A     -0.428001
      34A     -0.401778    35A     -0.397010    36A     -0.304938

  @DF-RHF Final Energy:  -401.71037734762882

   => Energetics <=

    Nuclear Repulsion Energy =            491.0636355966528299
    One-Electron Energy =               -1516.6169929410980330
    Two-Electron Energy =                 623.8429799968164389
    Total Energy =                       -401.7103773476287643
  Basis Set: (AUG-CC-PVTZ AUX)
    Blend: AUG-CC-PVTZ-RI
    Molecular point group: c1

    Geometry (in Angstrom), charge = 0, multiplicity = 1:

       Center              X                  Y                   Z               Mass
    ------------   -----------------  -----------------  -----------------  -----------------
         N            0.164782176209    -0.915195742808    -0.000001964123    14.003074004430
         C            2.062264176209     0.569306257192    -0.000002964123    12.000000000000
         C            2.940725176209    -0.408033742808    -0.747421964123    12.000000000000
         C            2.940724176209    -0.408025742808     0.747427035877    12.000000000000
         C            0.595496176209     0.362330257192    -0.000002964123    12.000000000000
         C           -0.297645823791     1.442519257192    -0.000001964123    12.000000000000
         C           -1.469551923791     1.230257357192     0.000000635877    12.000000000000
         C           -2.131006823791    -0.125566742808     0.000003035877    12.000000000000
         C           -1.160387823791    -1.132600742808     0.000001035877    12.000000000000
         C           -3.599848823791    -0.449267742808     0.000000035877    12.000000000000
         H            2.381281176209     1.609042257192    -0.000008964123     1.007825032230
         H            3.805370176209    -0.011673742808    -1.270400964123     1.007825032230
         H            2.422878176209    -1.222727742808    -1.241973964123     1.007825032230
         H            2.422879176209    -1.222715742808     1.241988035877     1.007825032230
         H            3.805368176209    -0.011659742808     1.270403035877     1.007825032230
         H            0.081569176209     2.461944257192    -0.000002964123     1.007825032230
         H           -2.373396823791     2.023372257192     0.000001035877     1.007825032230
         H           -1.464319823791    -2.180265742808     0.000002035877     1.007825032230
         H           -4.095501823791    -0.034345742808     0.883292035877     1.007825032230
         H           -3.760517823791    -1.530813742808     0.000042035877     1.007825032230
         H           -4.095481823791    -0.034416742808    -0.883336964123     1.007825032230

  Basis Set: AUG-CC-PVTZ
    Blend: AUG-CC-PVTZ
  Basis Set: (AUG-CC-PVTZ AUX)
    Blend: AUG-CC-PVTZ-JKFIT
	 Reference Energy          =    -401.7103773476288211 [Eh]
	 Singles Energy            =      -0.0000000000000000 [Eh]
	 Same-Spin Energy          =      -0.4454207902483428 [Eh]
	 Opposite-Spin Energy      =      -1.4325869655513848 [Eh]
	 Correlation Energy        =      -1.8780077557997275 [Eh]
	 Total Energy              =    -403.5883851034285499 [Eh]

	 ================> DF-SCS-MP2 Energies <==================
	-----------------------------------------------------------
	 SCS Same-Spin Scale       =       0.3333333333333333 [-]
	 SCS Opposite-Spin Scale   =       1.2000000000000000 [-]
	 SCS Same-Spin Energy      =      -0.1484735967494476 [Eh]
	 SCS Opposite-Spin Energy  =      -1.7191043586616617 [Eh]
	 SCS Correlation Energy    =      -1.8675779554111092 [Eh]
	 SCS Total Energy          =    -403.5779553030399143 [Eh]
	-----------------------------------------------------------

  Dipole Moment: [D]
     X:    -1.1818      Y:     1.4203      Z:    -0.0000     Total:     1.8477

*** Psi4 exiting successfully. Buy a developer a beer!
