                               Psi4 1.4a3.dev225

  ==> Input File <==

--------------------------------------------------------------------------
#psi4
#
memory 32 gb

molecule  {
0 1
  N        0.1871790    -0.9111820    -0.0000020
  C        2.0846610     0.5733200    -0.0000030
  C        2.9631220    -0.4040200    -0.7474220
  C        2.9631210    -0.4040120     0.7474270
  C        0.6217286     0.3407769    -0.0000028
  C       -0.2752490     1.4465330    -0.0000020
  C       -1.6439530     1.1986260     0.0000010
  C       -2.1086100    -0.1215530     0.0000030
  C       -1.1379910    -1.1285870     0.0000010
  C       -3.5774520    -0.4452540     0.0000000
  H        2.4036780     1.6130560    -0.0000090
  H        3.8277670    -0.0076600    -1.2704010
  H        2.4452750    -1.2187140    -1.2419740
  H        2.4452760    -1.2187020     1.2419880
  H        3.8277650    -0.0076460     1.2704030
  H        0.1039660     2.4659580    -0.0000030
  H       -2.3510000     2.0273860     0.0000010
  H       -1.4419230    -2.1762520     0.0000020
  H       -4.0731050    -0.0303320     0.8832920
  H       -3.7381210    -1.5268000     0.0000420
  H       -4.0730850    -0.0304030    -0.8833370
units angstrom
no_reorient  #important for SAPT in psi4, default
symmetry c1  #important for SAPT in psi4, default
}

set PROPERTIES_ORIGIN ["COM"]
properties('MP2/aug-cc-pvtz', properties = ['dipole'])
--------------------------------------------------------------------------

    Molecular point group: c1
  Charge       = 0
  Multiplicity = 1
  Basis Set: AUG-CC-PVTZ
    Blend: AUG-CC-PVTZ
  Basis Set: (AUG-CC-PVTZ AUX)
    Blend: AUG-CC-PVTZ-JKFIT

    Orbital Energies [Eh]
    ---------------------

    Doubly Occupied:

       1A    -15.553954     2A    -11.277002     3A    -11.267235
       4A    -11.251096     5A    -11.239180     6A    -11.235777
       7A    -11.231479     8A    -11.229057     9A    -11.221721
      10A    -11.221028    11A     -1.256291    12A     -1.141462
      13A     -1.092765    14A     -1.039126    15A     -0.951264
      16A     -0.867619    17A     -0.839923    18A     -0.815265
      19A     -0.780787    20A     -0.702066    21A     -0.666162
      22A     -0.641334    23A     -0.626054    24A     -0.599084
      25A     -0.583693    26A     -0.564823    27A     -0.549019
      28A     -0.537059    29A     -0.528707    30A     -0.504428
      31A     -0.501453    32A     -0.429525    33A     -0.427551
      34A     -0.403629    35A     -0.373420    36A     -0.311563

  @DF-RHF Final Energy:  -401.77374050375568

   => Energetics <=

    Nuclear Repulsion Energy =            489.1598173274020951
    One-Electron Energy =               -1512.9439131977021589
    Two-Electron Energy =                 622.0103553665443314
    Total Energy =                       -401.7737405037556755
  Basis Set: (AUG-CC-PVTZ AUX)
    Blend: AUG-CC-PVTZ-RI
    Molecular point group: c1

    Geometry (in Angstrom), charge = 0, multiplicity = 1:

       Center              X                  Y                   Z               Mass
    ------------   -----------------  -----------------  -----------------  -----------------
         N            0.182180646416    -0.909676537046    -0.000002018222    14.003074004430
         C            2.079662646416     0.574825462954    -0.000003018222    12.000000000000
         C            2.958123646416    -0.402514537046    -0.747422018222    12.000000000000
         C            2.958122646416    -0.402506537046     0.747426981778    12.000000000000
         C            0.616730246416     0.342282362954    -0.000002818222    12.000000000000
         C           -0.280247353584     1.448038462954    -0.000002018222    12.000000000000
         C           -1.648951353584     1.200131462954     0.000000981778    12.000000000000
         C           -2.113608353584    -0.120047537046     0.000002981778    12.000000000000
         C           -1.142989353584    -1.127081537046     0.000000981778    12.000000000000
         C           -3.582450353584    -0.443748537046    -0.000000018222    12.000000000000
         H            2.398679646416     1.614561462954    -0.000009018222     1.007825032230
         H            3.822768646416    -0.006154537046    -1.270401018222     1.007825032230
         H            2.440276646416    -1.217208537046    -1.241974018222     1.007825032230
         H            2.440277646416    -1.217196537046     1.241987981778     1.007825032230
         H            3.822766646416    -0.006140537046     1.270402981778     1.007825032230
         H            0.098967646416     2.467463462954    -0.000003018222     1.007825032230
         H           -2.355998353584     2.028891462954     0.000000981778     1.007825032230
         H           -1.446921353584    -2.174746537046     0.000001981778     1.007825032230
         H           -4.078103353584    -0.028826537046     0.883291981778     1.007825032230
         H           -3.743119353584    -1.525294537046     0.000041981778     1.007825032230
         H           -4.078083353584    -0.028897537046    -0.883337018222     1.007825032230

  Basis Set: AUG-CC-PVTZ
    Blend: AUG-CC-PVTZ
  Basis Set: (AUG-CC-PVTZ AUX)
    Blend: AUG-CC-PVTZ-JKFIT
	 Reference Energy          =    -401.7737405037556755 [Eh]
	 Singles Energy            =      -0.0000000000000000 [Eh]
	 Same-Spin Energy          =      -0.4457467679566856 [Eh]
	 Opposite-Spin Energy      =      -1.4312425449031183 [Eh]
	 Correlation Energy        =      -1.8769893128598039 [Eh]
	 Total Energy              =    -403.6507298166154669 [Eh]

	 ================> DF-SCS-MP2 Energies <==================
	-----------------------------------------------------------
	 SCS Same-Spin Scale       =       0.3333333333333333 [-]
	 SCS Opposite-Spin Scale   =       1.2000000000000000 [-]
	 SCS Same-Spin Energy      =      -0.1485822559855619 [Eh]
	 SCS Opposite-Spin Energy  =      -1.7174910538837420 [Eh]
	 SCS Correlation Energy    =      -1.8660733098693039 [Eh]
	 SCS Total Energy          =    -403.6398138136249827 [Eh]
	-----------------------------------------------------------

  Dipole Moment: [D]
     X:    -1.2824      Y:     1.4609      Z:    -0.0000     Total:     1.9439

*** Psi4 exiting successfully. Buy a developer a beer!
