                               Psi4 1.4a3.dev225

  ==> Input File <==

--------------------------------------------------------------------------
#psi4
#
memory 32 gb

molecule  {
0 1
  N        0.1871790    -0.9111820    -0.0000020
  C        2.0846610     0.5733200    -0.0000030
  C        2.9631220    -0.4040200    -0.7474220
  C        2.9340674    -0.3716884     0.7227070
  C        0.6178930     0.3663440    -0.0000030
  C       -0.2752490     1.4465330    -0.0000020
  C       -1.6439530     1.1986260     0.0000010
  C       -2.1086100    -0.1215530     0.0000030
  C       -1.1379910    -1.1285870     0.0000010
  C       -3.5774520    -0.4452540     0.0000000
  H        2.4036780     1.6130560    -0.0000090
  H        3.8277670    -0.0076600    -1.2704010
  H        2.4452750    -1.2187140    -1.2419740
  H        2.4452760    -1.2187020     1.2419880
  H        3.8277650    -0.0076460     1.2704030
  H        0.1039660     2.4659580    -0.0000030
  H       -2.3510000     2.0273860     0.0000010
  H       -1.4419230    -2.1762520     0.0000020
  H       -4.0731050    -0.0303320     0.8832920
  H       -3.7381210    -1.5268000     0.0000420
  H       -4.0730850    -0.0304030    -0.8833370
units angstrom
no_reorient  #important for SAPT in psi4, default
symmetry c1  #important for SAPT in psi4, default
}

set PROPERTIES_ORIGIN ["COM"]
properties('MP2/aug-cc-pvtz', properties = ['dipole'])
--------------------------------------------------------------------------

    Molecular point group: c1
  Charge       = 0
  Multiplicity = 1
  Basis Set: AUG-CC-PVTZ
    Blend: AUG-CC-PVTZ
  Basis Set: (AUG-CC-PVTZ AUX)
    Blend: AUG-CC-PVTZ-JKFIT

    Orbital Energies [Eh]
    ---------------------

    Doubly Occupied:

       1A    -15.555971     2A    -11.276125     3A    -11.267864
       4A    -11.251776     5A    -11.239661     6A    -11.234014
       7A    -11.229397     8A    -11.229270     9A    -11.220808
      10A    -11.218078    11A     -1.251906    12A     -1.152458
      13A     -1.092163    14A     -1.043185    15A     -0.951383
      16A     -0.867471    17A     -0.840272    18A     -0.811003
      19A     -0.781203    20A     -0.702254    21A     -0.668815
      22A     -0.639598    23A     -0.626979    24A     -0.603347
      25A     -0.583847    26A     -0.564909    27A     -0.549251
      28A     -0.534944    29A     -0.526701    30A     -0.500271
      31A     -0.491837    32A     -0.440331    33A     -0.424811
      34A     -0.406782    35A     -0.372495    36A     -0.314003

  @DF-RHF Final Energy:  -401.77105807921322

   => Energetics <=

    Nuclear Repulsion Energy =            489.9657124965983712
    One-Electron Energy =               -1514.5431703780084263
    Two-Electron Energy =                 622.8063998021967791
    Total Energy =                       -401.7710580792132760
  Basis Set: (AUG-CC-PVTZ AUX)
    Blend: AUG-CC-PVTZ-RI
    Molecular point group: c1

    Geometry (in Angstrom), charge = 0, multiplicity = 1:

       Center              X                  Y                   Z               Mass
    ------------   -----------------  -----------------  -----------------  -----------------
         N            0.185146105297    -0.914896259340     0.002226881740    14.003074004430
         C            2.082628105297     0.569605740660     0.002225881740    12.000000000000
         C            2.961089105297    -0.407734259340    -0.745193118260    12.000000000000
         C            2.932034505297    -0.375402659340     0.724935881740    12.000000000000
         C            0.615860105297     0.362629740660     0.002225881740    12.000000000000
         C           -0.277281894703     1.442818740660     0.002226881740    12.000000000000
         C           -1.645985894703     1.194911740660     0.002229881740    12.000000000000
         C           -2.110642894703    -0.125267259340     0.002231881740    12.000000000000
         C           -1.140023894703    -1.132301259340     0.002229881740    12.000000000000
         C           -3.579484894703    -0.448968259340     0.002228881740    12.000000000000
         H            2.401645105297     1.609341740660     0.002219881740     1.007825032230
         H            3.825734105297    -0.011374259340    -1.268172118260     1.007825032230
         H            2.443242105297    -1.222428259340    -1.239745118260     1.007825032230
         H            2.443243105297    -1.222416259340     1.244216881740     1.007825032230
         H            3.825732105297    -0.011360259340     1.272631881740     1.007825032230
         H            0.101933105297     2.462243740660     0.002225881740     1.007825032230
         H           -2.353032894703     2.023671740660     0.002229881740     1.007825032230
         H           -1.443955894703    -2.179966259340     0.002230881740     1.007825032230
         H           -4.075137894703    -0.034046259340     0.885520881740     1.007825032230
         H           -3.740153894703    -1.530514259340     0.002270881740     1.007825032230
         H           -4.075117894703    -0.034117259340    -0.881108118260     1.007825032230

  Basis Set: AUG-CC-PVTZ
    Blend: AUG-CC-PVTZ
  Basis Set: (AUG-CC-PVTZ AUX)
    Blend: AUG-CC-PVTZ-JKFIT
	 Reference Energy          =    -401.7710580792132191 [Eh]
	 Singles Energy            =      -0.0000000000000000 [Eh]
	 Same-Spin Energy          =      -0.4461910438789370 [Eh]
	 Opposite-Spin Energy      =      -1.4315756431711213 [Eh]
	 Correlation Energy        =      -1.8777666870500582 [Eh]
	 Total Energy              =    -403.6488247662632602 [Eh]

	 ================> DF-SCS-MP2 Energies <==================
	-----------------------------------------------------------
	 SCS Same-Spin Scale       =       0.3333333333333333 [-]
	 SCS Opposite-Spin Scale   =       1.2000000000000000 [-]
	 SCS Same-Spin Energy      =      -0.1487303479596457 [Eh]
	 SCS Opposite-Spin Energy  =      -1.7178907718053456 [Eh]
	 SCS Correlation Energy    =      -1.8666211197649911 [Eh]
	 SCS Total Energy          =    -403.6376791989782191 [Eh]
	-----------------------------------------------------------

  Dipole Moment: [D]
     X:    -1.3278      Y:     1.4462      Z:     0.0236     Total:     1.9634

*** Psi4 exiting successfully. Buy a developer a beer!
