                               Psi4 1.4a3.dev225

  ==> Input File <==

--------------------------------------------------------------------------
#psi4
#
memory 32 gb

molecule  {
0 1
  N        0.1871790    -0.9111820    -0.0000020
  C        2.0846610     0.5733200    -0.0000030
  C        2.9631220    -0.4040200    -0.7474220
  C        2.9631210    -0.4040120     0.7474270
  C        0.6178930     0.3663440    -0.0000030
  C       -0.2752490     1.4465330    -0.0000020
  C       -1.5529938     1.1629973     0.0000013
  C       -2.1086100    -0.1215530     0.0000030
  C       -1.1379910    -1.1285870     0.0000010
  C       -3.5774520    -0.4452540     0.0000000
  H        2.4036780     1.6130560    -0.0000090
  H        3.8277670    -0.0076600    -1.2704010
  H        2.4452750    -1.2187140    -1.2419740
  H        2.4452760    -1.2187020     1.2419880
  H        3.8277650    -0.0076460     1.2704030
  H        0.1039660     2.4659580    -0.0000030
  H       -2.3510000     2.0273860     0.0000010
  H       -1.4419230    -2.1762520     0.0000020
  H       -4.0731050    -0.0303320     0.8832920
  H       -3.7381210    -1.5268000     0.0000420
  H       -4.0730850    -0.0304030    -0.8833370
units angstrom
no_reorient  #important for SAPT in psi4, default
symmetry c1  #important for SAPT in psi4, default
}

set PROPERTIES_ORIGIN ["COM"]
properties('MP2/aug-cc-pvtz', properties = ['dipole'])
--------------------------------------------------------------------------

    Molecular point group: c1
  Charge       = 0
  Multiplicity = 1
  Basis Set: AUG-CC-PVTZ
    Blend: AUG-CC-PVTZ
  Basis Set: (AUG-CC-PVTZ AUX)
    Blend: AUG-CC-PVTZ-JKFIT

    Orbital Energies [Eh]
    ---------------------

    Doubly Occupied:

       1A    -15.553532     2A    -11.278193     3A    -11.265354
       4A    -11.248787     5A    -11.237572     6A    -11.232216
       7A    -11.231129     8A    -11.225268     9A    -11.222727
      10A    -11.222034    11A     -1.254050    12A     -1.142101
      13A     -1.096434    14A     -1.051453    15A     -0.953398
      16A     -0.865594    17A     -0.841886    18A     -0.815871
      19A     -0.776972    20A     -0.700513    21A     -0.673214
      22A     -0.640434    23A     -0.626704    24A     -0.598616
      25A     -0.584658    26A     -0.553058    27A     -0.548603
      28A     -0.538771    29A     -0.521170    30A     -0.505940
      31A     -0.504385    32A     -0.430690    33A     -0.427470
      34A     -0.402291    35A     -0.383098    36A     -0.312363

  @DF-RHF Final Energy:  -401.76196357204833

   => Energetics <=

    Nuclear Repulsion Energy =            490.6281120968930054
    One-Electron Energy =               -1515.8470589235880652
    Two-Electron Energy =                 623.4569832546468433
    Total Energy =                       -401.7619635720483302
  Basis Set: (AUG-CC-PVTZ AUX)
    Blend: AUG-CC-PVTZ-RI
    Molecular point group: c1

    Geometry (in Angstrom), charge = 0, multiplicity = 1:

       Center              X                  Y                   Z               Mass
    ------------   -----------------  -----------------  -----------------  -----------------
         N            0.174325135993    -0.908769331608    -0.000002027239    14.003074004430
         C            2.071807135993     0.575732668392    -0.000003027239    12.000000000000
         C            2.950268135993    -0.401607331608    -0.747422027239    12.000000000000
         C            2.950267135993    -0.401599331608     0.747426972761    12.000000000000
         C            0.605039135993     0.368756668392    -0.000003027239    12.000000000000
         C           -0.288102864007     1.448945668392    -0.000002027239    12.000000000000
         C           -1.565847664007     1.165409968392     0.000001272761    12.000000000000
         C           -2.121463864007    -0.119140331608     0.000002972761    12.000000000000
         C           -1.150844864007    -1.126174331608     0.000000972761    12.000000000000
         C           -3.590305864007    -0.442841331608    -0.000000027239    12.000000000000
         H            2.390824135993     1.615468668392    -0.000009027239     1.007825032230
         H            3.814913135993    -0.005247331608    -1.270401027239     1.007825032230
         H            2.432421135993    -1.216301331608    -1.241974027239     1.007825032230
         H            2.432422135993    -1.216289331608     1.241987972761     1.007825032230
         H            3.814911135993    -0.005233331608     1.270402972761     1.007825032230
         H            0.091112135993     2.468370668392    -0.000003027239     1.007825032230
         H           -2.363853864007     2.029798668392     0.000000972761     1.007825032230
         H           -1.454776864007    -2.173839331608     0.000001972761     1.007825032230
         H           -4.085958864007    -0.027919331608     0.883291972761     1.007825032230
         H           -3.750974864007    -1.524387331608     0.000041972761     1.007825032230
         H           -4.085938864007    -0.027990331608    -0.883337027239     1.007825032230

  Basis Set: AUG-CC-PVTZ
    Blend: AUG-CC-PVTZ
  Basis Set: (AUG-CC-PVTZ AUX)
    Blend: AUG-CC-PVTZ-JKFIT
	 Reference Energy          =    -401.7619635720483302 [Eh]
	 Singles Energy            =      -0.0000000000000000 [Eh]
	 Same-Spin Energy          =      -0.4459417626414531 [Eh]
	 Opposite-Spin Energy      =      -1.4314779533114428 [Eh]
	 Correlation Energy        =      -1.8774197159528958 [Eh]
	 Total Energy              =    -403.6393832880012269 [Eh]

	 ================> DF-SCS-MP2 Energies <==================
	-----------------------------------------------------------
	 SCS Same-Spin Scale       =       0.3333333333333333 [-]
	 SCS Opposite-Spin Scale   =       1.2000000000000000 [-]
	 SCS Same-Spin Energy      =      -0.1486472542138177 [Eh]
	 SCS Opposite-Spin Energy  =      -1.7177735439737314 [Eh]
	 SCS Correlation Energy    =      -1.8664207981875491 [Eh]
	 SCS Total Energy          =    -403.6283843702358922 [Eh]
	-----------------------------------------------------------

  Dipole Moment: [D]
     X:    -1.2497      Y:     1.3986      Z:    -0.0000     Total:     1.8756

*** Psi4 exiting successfully. Buy a developer a beer!
