                               Psi4 1.4a3.dev225

  ==> Input File <==

--------------------------------------------------------------------------
#psi4
#
memory 32 gb

molecule  {
0 1
  N        0.1871790    -0.9111820    -0.0000020
  C        2.0846610     0.5733200    -0.0000030
  C        2.9631220    -0.4040200    -0.7474220
  C        2.8469068    -0.2747177     0.6485471
  C        0.6178930     0.3663440    -0.0000030
  C       -0.2752490     1.4465330    -0.0000020
  C       -1.6439530     1.1986260     0.0000010
  C       -2.1086100    -0.1215530     0.0000030
  C       -1.1379910    -1.1285870     0.0000010
  C       -3.5774520    -0.4452540     0.0000000
  H        2.4036780     1.6130560    -0.0000090
  H        3.8277670    -0.0076600    -1.2704010
  H        2.4452750    -1.2187140    -1.2419740
  H        2.4452760    -1.2187020     1.2419880
  H        3.8277650    -0.0076460     1.2704030
  H        0.1039660     2.4659580    -0.0000030
  H       -2.3510000     2.0273860     0.0000010
  H       -1.4419230    -2.1762520     0.0000020
  H       -4.0731050    -0.0303320     0.8832920
  H       -3.7381210    -1.5268000     0.0000420
  H       -4.0730850    -0.0304030    -0.8833370
units angstrom
no_reorient  #important for SAPT in psi4, default
symmetry c1  #important for SAPT in psi4, default
}

set PROPERTIES_ORIGIN ["COM"]
properties('MP2/aug-cc-pvtz', properties = ['dipole'])
--------------------------------------------------------------------------

    Molecular point group: c1
  Charge       = 0
  Multiplicity = 1
  Basis Set: AUG-CC-PVTZ
    Blend: AUG-CC-PVTZ
  Basis Set: (AUG-CC-PVTZ AUX)
    Blend: AUG-CC-PVTZ-JKFIT

    Orbital Energies [Eh]
    ---------------------

    Doubly Occupied:

       1A    -15.557395     2A    -11.276887     3A    -11.268649
       4A    -11.252466     5A    -11.240964     6A    -11.235330
       7A    -11.230130     8A    -11.223469     9A    -11.221028
      10A    -11.210294    11A     -1.256610    12A     -1.193448
      13A     -1.093858    14A     -1.045476    15A     -0.953029
      16A     -0.869421    17A     -0.843227    18A     -0.808025
      19A     -0.774122    20A     -0.708337    21A     -0.674906
      22A     -0.643984    23A     -0.629714    24A     -0.608155
      25A     -0.584628    26A     -0.566129    27A     -0.549623
      28A     -0.537797    29A     -0.526383    30A     -0.501877
      31A     -0.479286    32A     -0.450443    33A     -0.416322
      34A     -0.402254    35A     -0.372783    36A     -0.316490

  @DF-RHF Final Energy:  -401.72499512990606

   => Energetics <=

    Nuclear Repulsion Energy =            492.9868470894766688
    One-Electron Energy =               -1520.3778022972790041
    Two-Electron Energy =                 625.6659600778963295
    Total Energy =                       -401.7249951299060058
  Basis Set: (AUG-CC-PVTZ AUX)
    Blend: AUG-CC-PVTZ-RI
    Molecular point group: c1

    Geometry (in Angstrom), charge = 0, multiplicity = 1:

       Center              X                  Y                   Z               Mass
    ------------   -----------------  -----------------  -----------------  -----------------
         N            0.193004951830    -0.923639634781     0.008913518512    14.003074004430
         C            2.090486951830     0.560862365219     0.008912518512    12.000000000000
         C            2.968947951830    -0.416477634781    -0.738506481488    12.000000000000
         C            2.852732751830    -0.287175334781     0.657462618512    12.000000000000
         C            0.623718951830     0.353886365219     0.008912518512    12.000000000000
         C           -0.269423048170     1.434075365219     0.008913518512    12.000000000000
         C           -1.638127048170     1.186168365219     0.008916518512    12.000000000000
         C           -2.102784048170    -0.134010634781     0.008918518512    12.000000000000
         C           -1.132165048170    -1.141044634781     0.008916518512    12.000000000000
         C           -3.571626048170    -0.457711634781     0.008915518512    12.000000000000
         H            2.409503951830     1.600598365219     0.008906518512     1.007825032230
         H            3.833592951830    -0.020117634781    -1.261485481488     1.007825032230
         H            2.451100951830    -1.231171634781    -1.233058481488     1.007825032230
         H            2.451101951830    -1.231159634781     1.250903518512     1.007825032230
         H            3.833590951830    -0.020103634781     1.279318518512     1.007825032230
         H            0.109791951830     2.453500365219     0.008912518512     1.007825032230
         H           -2.345174048170     2.014928365219     0.008916518512     1.007825032230
         H           -1.436097048170    -2.188709634781     0.008917518512     1.007825032230
         H           -4.067279048170    -0.042789634781     0.892207518512     1.007825032230
         H           -3.732295048170    -1.539257634781     0.008957518512     1.007825032230
         H           -4.067259048170    -0.042860634781    -0.874421481488     1.007825032230

  Basis Set: AUG-CC-PVTZ
    Blend: AUG-CC-PVTZ
  Basis Set: (AUG-CC-PVTZ AUX)
    Blend: AUG-CC-PVTZ-JKFIT
	 Reference Energy          =    -401.7249951299060626 [Eh]
	 Singles Energy            =      -0.0000000000000000 [Eh]
	 Same-Spin Energy          =      -0.4479128033165867 [Eh]
	 Opposite-Spin Energy      =      -1.4333490390165387 [Eh]
	 Correlation Energy        =      -1.8812618423331253 [Eh]
	 Total Energy              =    -403.6062569722391800 [Eh]

	 ================> DF-SCS-MP2 Energies <==================
	-----------------------------------------------------------
	 SCS Same-Spin Scale       =       0.3333333333333333 [-]
	 SCS Opposite-Spin Scale   =       1.2000000000000000 [-]
	 SCS Same-Spin Energy      =      -0.1493042677721955 [Eh]
	 SCS Opposite-Spin Energy  =      -1.7200188468198463 [Eh]
	 SCS Correlation Energy    =      -1.8693231145920419 [Eh]
	 SCS Total Energy          =    -403.5943182444980835 [Eh]
	-----------------------------------------------------------

  Dipole Moment: [D]
     X:    -1.4410      Y:     1.4500      Z:     0.0559     Total:     2.0450

*** Psi4 exiting successfully. Buy a developer a beer!
