                               Psi4 1.4a3.dev225

  ==> Input File <==

--------------------------------------------------------------------------
#psi4
#
memory 32 gb

molecule  {
0 1
  N        0.1871790    -0.9111820    -0.0000020
  C        2.0846610     0.5733200    -0.0000030
  C        2.9631220    -0.4040200    -0.7474220
  C        2.9631210    -0.4040120     0.7474270
  C        0.6178930     0.3663440    -0.0000030
  C       -0.2752490     1.4465330    -0.0000020
  C       -1.7423520     1.1808035     0.0000012
  C       -2.1086100    -0.1215530     0.0000030
  C       -1.1379910    -1.1285870     0.0000010
  C       -3.5774520    -0.4452540     0.0000000
  H        2.4036780     1.6130560    -0.0000090
  H        3.8277670    -0.0076600    -1.2704010
  H        2.4452750    -1.2187140    -1.2419740
  H        2.4452760    -1.2187020     1.2419880
  H        3.8277650    -0.0076460     1.2704030
  H        0.1039660     2.4659580    -0.0000030
  H       -2.3510000     2.0273860     0.0000010
  H       -1.4419230    -2.1762520     0.0000020
  H       -4.0731050    -0.0303320     0.8832920
  H       -3.7381210    -1.5268000     0.0000420
  H       -4.0730850    -0.0304030    -0.8833370
units angstrom
no_reorient  #important for SAPT in psi4, default
symmetry c1  #important for SAPT in psi4, default
}

set PROPERTIES_ORIGIN ["COM"]
properties('MP2/aug-cc-pvtz', properties = ['dipole'])
--------------------------------------------------------------------------

    Molecular point group: c1
  Charge       = 0
  Multiplicity = 1
  Basis Set: AUG-CC-PVTZ
    Blend: AUG-CC-PVTZ
  Basis Set: (AUG-CC-PVTZ AUX)
    Blend: AUG-CC-PVTZ-JKFIT

    Orbital Energies [Eh]
    ---------------------

    Doubly Occupied:

       1A    -15.558729     2A    -11.273320     3A    -11.272920
       4A    -11.252816     5A    -11.240835     6A    -11.237623
       7A    -11.230169     8A    -11.227840     9A    -11.220238
      10A    -11.219546    11A     -1.251058    12A     -1.140472
      13A     -1.096256    14A     -1.031672    15A     -0.948890
      16A     -0.872615    17A     -0.839674    18A     -0.813878
      19A     -0.783848    20A     -0.703788    21A     -0.661909
      22A     -0.642353    23A     -0.626362    24A     -0.601167
      25A     -0.585046    26A     -0.573672    27A     -0.549701
      28A     -0.533410    29A     -0.526004    30A     -0.502783
      31A     -0.490191    32A     -0.429931    33A     -0.427829
      34A     -0.407509    35A     -0.365959    36A     -0.314259

  @DF-RHF Final Energy:  -401.76107024534554

   => Energetics <=

    Nuclear Repulsion Energy =            488.2498764171014045
    One-Electron Energy =               -1511.1133483227795296
    Two-Electron Energy =                 621.1024016603325890
    Total Energy =                       -401.7610702453455360
  Basis Set: (AUG-CC-PVTZ AUX)
    Blend: AUG-CC-PVTZ-RI
    Molecular point group: c1

    Geometry (in Angstrom), charge = 0, multiplicity = 1:

       Center              X                  Y                   Z               Mass
    ------------   -----------------  -----------------  -----------------  -----------------
         N            0.191398642067    -0.910374829885    -0.000002018222    14.003074004430
         C            2.088880642067     0.574127170115    -0.000003018222    12.000000000000
         C            2.967341642067    -0.403212829885    -0.747422018222    12.000000000000
         C            2.967340642067    -0.403204829885     0.747426981778    12.000000000000
         C            0.622112642067     0.367151170115    -0.000003018222    12.000000000000
         C           -0.271029357933     1.447340170115    -0.000002018222    12.000000000000
         C           -1.738132357933     1.181610670115     0.000001181778    12.000000000000
         C           -2.104390357933    -0.120745829885     0.000002981778    12.000000000000
         C           -1.133771357933    -1.127779829885     0.000000981778    12.000000000000
         C           -3.573232357933    -0.444446829885    -0.000000018222    12.000000000000
         H            2.407897642067     1.613863170115    -0.000009018222     1.007825032230
         H            3.831986642067    -0.006852829885    -1.270401018222     1.007825032230
         H            2.449494642067    -1.217906829885    -1.241974018222     1.007825032230
         H            2.449495642067    -1.217894829885     1.241987981778     1.007825032230
         H            3.831984642067    -0.006838829885     1.270402981778     1.007825032230
         H            0.108185642067     2.466765170115    -0.000003018222     1.007825032230
         H           -2.346780357933     2.028193170115     0.000000981778     1.007825032230
         H           -1.437703357933    -2.175444829885     0.000001981778     1.007825032230
         H           -4.068885357933    -0.029524829885     0.883291981778     1.007825032230
         H           -3.733901357933    -1.525992829885     0.000041981778     1.007825032230
         H           -4.068865357933    -0.029595829885    -0.883337018222     1.007825032230

  Basis Set: AUG-CC-PVTZ
    Blend: AUG-CC-PVTZ
  Basis Set: (AUG-CC-PVTZ AUX)
    Blend: AUG-CC-PVTZ-JKFIT
	 Reference Energy          =    -401.7610702453455360 [Eh]
	 Singles Energy            =      -0.0000000000000000 [Eh]
	 Same-Spin Energy          =      -0.4460812572300172 [Eh]
	 Opposite-Spin Energy      =      -1.4327307383750869 [Eh]
	 Correlation Energy        =      -1.8788119956051041 [Eh]
	 Total Energy              =    -403.6398822409506124 [Eh]

	 ================> DF-SCS-MP2 Energies <==================
	-----------------------------------------------------------
	 SCS Same-Spin Scale       =       0.3333333333333333 [-]
	 SCS Opposite-Spin Scale   =       1.2000000000000000 [-]
	 SCS Same-Spin Energy      =      -0.1486937524100057 [Eh]
	 SCS Opposite-Spin Energy  =      -1.7192768860501042 [Eh]
	 SCS Correlation Energy    =      -1.8679706384601100 [Eh]
	 SCS Total Energy          =    -403.6290408838056578 [Eh]
	-----------------------------------------------------------

  Dipole Moment: [D]
     X:    -1.3321      Y:     1.4571      Z:    -0.0000     Total:     1.9743

*** Psi4 exiting successfully. Buy a developer a beer!
