                               Psi4 1.4a3.dev225

  ==> Input File <==

--------------------------------------------------------------------------
#psi4
#
memory 32 gb

molecule  {
0 1
  N        0.1871790    -0.9111820    -0.0000020
  C        2.0846610     0.5733200    -0.0000030
  C        2.9631220    -0.4040200    -0.7474220
  C        2.9631210    -0.4040120     0.7474270
  C        0.6178930     0.3663440    -0.0000030
  C       -0.2752490     1.4465330    -0.0000020
  C       -1.6439530     1.1986260     0.0000010
  C       -2.1086100    -0.1215530     0.0000030
  C       -1.1379910    -1.1285870     0.0000010
  C       -3.5774520    -0.4452540     0.0000000
  H        2.4036780     1.6130560    -0.0000090
  H        3.8277670    -0.0076600    -1.2704010
  H        2.4452750    -1.2187140    -1.2419740
  H        2.4452760    -1.2187020     1.2419880
  H        3.8277650    -0.0076460     1.2704030
  H        0.1039660     2.4659580    -0.0000030
  H       -2.3510000     2.0273860     0.0000010
  H       -1.3861997    -1.9841715     0.0000018
  H       -4.0731050    -0.0303320     0.8832920
  H       -3.7381210    -1.5268000     0.0000420
  H       -4.0730850    -0.0304030    -0.8833370
units angstrom
no_reorient  #important for SAPT in psi4, default
symmetry c1  #important for SAPT in psi4, default
}

set PROPERTIES_ORIGIN ["COM"]
properties('MP2/aug-cc-pvtz', properties = ['dipole'])
--------------------------------------------------------------------------

    Molecular point group: c1
  Charge       = 0
  Multiplicity = 1
  Basis Set: AUG-CC-PVTZ
    Blend: AUG-CC-PVTZ
  Basis Set: (AUG-CC-PVTZ AUX)
    Blend: AUG-CC-PVTZ-JKFIT

    Orbital Energies [Eh]
    ---------------------

    Doubly Occupied:

       1A    -15.554214     2A    -11.274646     3A    -11.250409
       4A    -11.243599     5A    -11.237856     6A    -11.233391
       7A    -11.230723     8A    -11.229750     9A    -11.221086
      10A    -11.220393    11A     -1.251281    12A     -1.141039
      13A     -1.090621    14A     -1.047932    15A     -0.953591
      16A     -0.882363    17A     -0.843472    18A     -0.814469
      19A     -0.784463    20A     -0.715814    21A     -0.667204
      22A     -0.640243    23A     -0.638008    24A     -0.606858
      25A     -0.583787    26A     -0.569511    27A     -0.550149
      28A     -0.534644    29A     -0.527763    30A     -0.503619
      31A     -0.501932    32A     -0.428866    33A     -0.427393
      34A     -0.406813    35A     -0.371479    36A     -0.312074

  @DF-RHF Final Energy:  -401.74013633339422

   => Energetics <=

    Nuclear Repulsion Energy =            490.2175847873546672
    One-Electron Energy =               -1514.9325316946426483
    Two-Electron Energy =                 622.9748105738935919
    Total Energy =                       -401.7401363333942754
  Basis Set: (AUG-CC-PVTZ AUX)
    Blend: AUG-CC-PVTZ-RI
    Molecular point group: c1

    Geometry (in Angstrom), charge = 0, multiplicity = 1:

       Center              X                  Y                   Z               Mass
    ------------   -----------------  -----------------  -----------------  -----------------
         N            0.182104515967    -0.913436338190    -0.000001998674    14.003074004430
         C            2.079586515967     0.571065661810    -0.000002998674    12.000000000000
         C            2.958047515967    -0.406274338190    -0.747421998674    12.000000000000
         C            2.958046515967    -0.406266338190     0.747427001326    12.000000000000
         C            0.612818515967     0.364089661810    -0.000002998674    12.000000000000
         C           -0.280323484033     1.444278661810    -0.000001998674    12.000000000000
         C           -1.649027484033     1.196371661810     0.000001001326    12.000000000000
         C           -2.113684484033    -0.123807338190     0.000003001326    12.000000000000
         C           -1.143065484033    -1.130841338190     0.000001001326    12.000000000000
         C           -3.582526484033    -0.447508338190     0.000000001326    12.000000000000
         H            2.398603515967     1.610801661810    -0.000008998674     1.007825032230
         H            3.822692515967    -0.009914338190    -1.270400998674     1.007825032230
         H            2.440200515967    -1.220968338190    -1.241973998674     1.007825032230
         H            2.440201515967    -1.220956338190     1.241988001326     1.007825032230
         H            3.822690515967    -0.009900338190     1.270403001326     1.007825032230
         H            0.098891515967     2.463703661810    -0.000002998674     1.007825032230
         H           -2.356074484033     2.025131661810     0.000001001326     1.007825032230
         H           -1.391274184033    -1.986425838190     0.000001801326     1.007825032230
         H           -4.078179484033    -0.032586338190     0.883292001326     1.007825032230
         H           -3.743195484033    -1.529054338190     0.000042001326     1.007825032230
         H           -4.078159484033    -0.032657338190    -0.883336998674     1.007825032230

  Basis Set: AUG-CC-PVTZ
    Blend: AUG-CC-PVTZ
  Basis Set: (AUG-CC-PVTZ AUX)
    Blend: AUG-CC-PVTZ-JKFIT
	 Reference Energy          =    -401.7401363333942186 [Eh]
	 Singles Energy            =      -0.0000000000000000 [Eh]
	 Same-Spin Energy          =      -0.4456044451905405 [Eh]
	 Opposite-Spin Energy      =      -1.4308592791267971 [Eh]
	 Correlation Energy        =      -1.8764637243173377 [Eh]
	 Total Energy              =    -403.6166000577115369 [Eh]

	 ================> DF-SCS-MP2 Energies <==================
	-----------------------------------------------------------
	 SCS Same-Spin Scale       =       0.3333333333333333 [-]
	 SCS Opposite-Spin Scale   =       1.2000000000000000 [-]
	 SCS Same-Spin Energy      =      -0.1485348150635135 [Eh]
	 SCS Opposite-Spin Energy  =      -1.7170311349521565 [Eh]
	 SCS Correlation Energy    =      -1.8655659500156700 [Eh]
	 SCS Total Energy          =    -403.6057022834098689 [Eh]
	-----------------------------------------------------------

  Dipole Moment: [D]
     X:    -1.3767      Y:     1.4089      Z:    -0.0000     Total:     1.9699

*** Psi4 exiting successfully. Buy a developer a beer!
