                               Psi4 1.4a3.dev225

  ==> Input File <==

--------------------------------------------------------------------------
#psi4
#
memory 32 gb

molecule  {
0 1
  N        0.1871790    -0.9111820    -0.0000020
  C        2.0846610     0.5733200    -0.0000030
  C        2.9631220    -0.4040200    -0.7474220
  C        2.9631210    -0.4040120     0.7474270
  C        0.6178930     0.3663440    -0.0000030
  C       -0.2879935     1.4619465    -0.0000020
  C       -1.6439530     1.1986260     0.0000010
  C       -2.1086100    -0.1215530     0.0000030
  C       -1.1379910    -1.1285870     0.0000010
  C       -3.5774520    -0.4452540     0.0000000
  H        2.4036780     1.6130560    -0.0000090
  H        3.8277670    -0.0076600    -1.2704010
  H        2.4452750    -1.2187140    -1.2419740
  H        2.4452760    -1.2187020     1.2419880
  H        3.8277650    -0.0076460     1.2704030
  H        0.1039660     2.4659580    -0.0000030
  H       -2.3510000     2.0273860     0.0000010
  H       -1.4419230    -2.1762520     0.0000020
  H       -4.0731050    -0.0303320     0.8832920
  H       -3.7381210    -1.5268000     0.0000420
  H       -4.0730850    -0.0304030    -0.8833370
units angstrom
no_reorient  #important for SAPT in psi4, default
symmetry c1  #important for SAPT in psi4, default
}

set PROPERTIES_ORIGIN ["COM"]
properties('MP2/aug-cc-pvtz', properties = ['dipole'])
--------------------------------------------------------------------------

    Molecular point group: c1
  Charge       = 0
  Multiplicity = 1
  Basis Set: AUG-CC-PVTZ
    Blend: AUG-CC-PVTZ
  Basis Set: (AUG-CC-PVTZ AUX)
    Blend: AUG-CC-PVTZ-JKFIT

    Orbital Energies [Eh]
    ---------------------

    Doubly Occupied:

       1A    -15.555568     2A    -11.278955     3A    -11.267200
       4A    -11.250378     5A    -11.238884     6A    -11.234292
       7A    -11.232007     8A    -11.228965     9A    -11.222109
      10A    -11.221416    11A     -1.250349    12A     -1.141256
      13A     -1.092183    14A     -1.041279    15A     -0.950661
      16A     -0.866622    17A     -0.840736    18A     -0.815366
      19A     -0.780548    20A     -0.700992    21A     -0.666597
      22A     -0.639518    23A     -0.628868    24A     -0.599498
      25A     -0.583322    26A     -0.563961    27A     -0.548990
      28A     -0.534701    29A     -0.528327    30A     -0.504325
      31A     -0.500749    32A     -0.429774    33A     -0.427788
      34A     -0.405395    35A     -0.373986    36A     -0.310847

  @DF-RHF Final Energy:  -401.77321385189185

   => Energetics <=

    Nuclear Repulsion Energy =            488.7513863842911519
    One-Electron Energy =               -1512.1363792259919592
    Two-Electron Energy =                 621.6117789898088404
    Total Energy =                       -401.7732138518919101
  Basis Set: (AUG-CC-PVTZ AUX)
    Blend: AUG-CC-PVTZ-RI
    Molecular point group: c1

    Geometry (in Angstrom), charge = 0, multiplicity = 1:

       Center              X                  Y                   Z               Mass
    ------------   -----------------  -----------------  -----------------  -----------------
         N            0.183675593231    -0.913371558033    -0.000002000189    14.003074004430
         C            2.081157593231     0.571130441967    -0.000003000189    12.000000000000
         C            2.959618593231    -0.406209558033    -0.747422000189    12.000000000000
         C            2.959617593231    -0.406201558033     0.747426999811    12.000000000000
         C            0.614389593231     0.364154441967    -0.000003000189    12.000000000000
         C           -0.291496906769     1.459756941967    -0.000002000189    12.000000000000
         C           -1.647456406769     1.196436441967     0.000000999811    12.000000000000
         C           -2.112113406769    -0.123742558033     0.000002999811    12.000000000000
         C           -1.141494406769    -1.130776558033     0.000000999811    12.000000000000
         C           -3.580955406769    -0.447443558033    -0.000000000189    12.000000000000
         H            2.400174593231     1.610866441967    -0.000009000189     1.007825032230
         H            3.824263593231    -0.009849558033    -1.270401000189     1.007825032230
         H            2.441771593231    -1.220903558033    -1.241974000189     1.007825032230
         H            2.441772593231    -1.220891558033     1.241987999811     1.007825032230
         H            3.824261593231    -0.009835558033     1.270402999811     1.007825032230
         H            0.100462593231     2.463768441967    -0.000003000189     1.007825032230
         H           -2.354503406769     2.025196441967     0.000000999811     1.007825032230
         H           -1.445426406769    -2.178441558033     0.000001999811     1.007825032230
         H           -4.076608406769    -0.032521558033     0.883291999811     1.007825032230
         H           -3.741624406769    -1.528989558033     0.000041999811     1.007825032230
         H           -4.076588406769    -0.032592558033    -0.883337000189     1.007825032230

  Basis Set: AUG-CC-PVTZ
    Blend: AUG-CC-PVTZ
  Basis Set: (AUG-CC-PVTZ AUX)
    Blend: AUG-CC-PVTZ-JKFIT
	 Reference Energy          =    -401.7732138518918532 [Eh]
	 Singles Energy            =      -0.0000000000000000 [Eh]
	 Same-Spin Energy          =      -0.4458907916020090 [Eh]
	 Opposite-Spin Energy      =      -1.4316302390833462 [Eh]
	 Correlation Energy        =      -1.8775210306853551 [Eh]
	 Total Energy              =    -403.6507348825771828 [Eh]

	 ================> DF-SCS-MP2 Energies <==================
	-----------------------------------------------------------
	 SCS Same-Spin Scale       =       0.3333333333333333 [-]
	 SCS Opposite-Spin Scale   =       1.2000000000000000 [-]
	 SCS Same-Spin Energy      =      -0.1486302638673363 [Eh]
	 SCS Opposite-Spin Energy  =      -1.7179562869000153 [Eh]
	 SCS Correlation Energy    =      -1.8665865507673516 [Eh]
	 SCS Total Energy          =    -403.6398004026592048 [Eh]
	-----------------------------------------------------------

  Dipole Moment: [D]
     X:    -1.2768      Y:     1.4602      Z:    -0.0000     Total:     1.9397

*** Psi4 exiting successfully. Buy a developer a beer!
