                               Psi4 1.4a3.dev225

  ==> Input File <==

--------------------------------------------------------------------------
#psi4
#
memory 32 gb

molecule  {
0 1
  N        0.1871790    -0.9111820    -0.0000020
  C        2.0846610     0.5733200    -0.0000030
  C        2.9631220    -0.4040200    -0.7474220
  C        2.9631210    -0.4040120     0.7474270
  C        0.6115034     0.3473921    -0.0000030
  C       -0.2752490     1.4465330    -0.0000020
  C       -1.6439530     1.1986260     0.0000010
  C       -2.1086100    -0.1215530     0.0000030
  C       -1.1379910    -1.1285870     0.0000010
  C       -3.5774520    -0.4452540     0.0000000
  H        2.4036780     1.6130560    -0.0000090
  H        3.8277670    -0.0076600    -1.2704010
  H        2.4452750    -1.2187140    -1.2419740
  H        2.4452760    -1.2187020     1.2419880
  H        3.8277650    -0.0076460     1.2704030
  H        0.1039660     2.4659580    -0.0000030
  H       -2.3510000     2.0273860     0.0000010
  H       -1.4419230    -2.1762520     0.0000020
  H       -4.0731050    -0.0303320     0.8832920
  H       -3.7381210    -1.5268000     0.0000420
  H       -4.0730850    -0.0304030    -0.8833370
units angstrom
no_reorient  #important for SAPT in psi4, default
symmetry c1  #important for SAPT in psi4, default
}

set PROPERTIES_ORIGIN ["COM"]
properties('MP2/aug-cc-pvtz', properties = ['dipole'])
--------------------------------------------------------------------------

    Molecular point group: c1
  Charge       = 0
  Multiplicity = 1
  Basis Set: AUG-CC-PVTZ
    Blend: AUG-CC-PVTZ
  Basis Set: (AUG-CC-PVTZ AUX)
    Blend: AUG-CC-PVTZ-JKFIT

    Orbital Energies [Eh]
    ---------------------

    Doubly Occupied:

       1A    -15.554618     2A    -11.276199     3A    -11.267655
       4A    -11.251558     5A    -11.239484     6A    -11.234907
       7A    -11.231336     8A    -11.229305     9A    -11.221086
      10A    -11.220393    11A     -1.256259    12A     -1.140265
      13A     -1.093048    14A     -1.040768    15A     -0.950870
      16A     -0.867295    17A     -0.839836    18A     -0.814588
      19A     -0.781018    20A     -0.701518    21A     -0.666433
      22A     -0.640885    23A     -0.626328    24A     -0.599429
      25A     -0.583991    26A     -0.565027    27A     -0.549402
      28A     -0.536948    29A     -0.528237    30A     -0.504073
      31A     -0.499431    32A     -0.428626    33A     -0.427309
      34A     -0.405061    35A     -0.373566    36A     -0.312907

  @DF-RHF Final Energy:  -401.77414542500583

   => Energetics <=

    Nuclear Repulsion Energy =            489.1681652194183130
    One-Electron Energy =               -1512.9652988965867735
    Two-Electron Energy =                 622.0229882521625768
    Total Energy =                       -401.7741454250058268
  Basis Set: (AUG-CC-PVTZ AUX)
    Blend: AUG-CC-PVTZ-RI
    Molecular point group: c1

    Geometry (in Angstrom), charge = 0, multiplicity = 1:

       Center              X                  Y                   Z               Mass
    ------------   -----------------  -----------------  -----------------  -----------------
         N            0.183102602868    -0.910272997391    -0.000002000189    14.003074004430
         C            2.080584602868     0.574229002609    -0.000003000189    12.000000000000
         C            2.959045602868    -0.403110997391    -0.747422000189    12.000000000000
         C            2.959044602868    -0.403102997391     0.747426999811    12.000000000000
         C            0.607427002868     0.348301102609    -0.000003000189    12.000000000000
         C           -0.279325397132     1.447442002609    -0.000002000189    12.000000000000
         C           -1.648029397132     1.199535002609     0.000000999811    12.000000000000
         C           -2.112686397132    -0.120643997391     0.000002999811    12.000000000000
         C           -1.142067397132    -1.127677997391     0.000000999811    12.000000000000
         C           -3.581528397132    -0.444344997391    -0.000000000189    12.000000000000
         H            2.399601602868     1.613965002609    -0.000009000189     1.007825032230
         H            3.823690602868    -0.006750997391    -1.270401000189     1.007825032230
         H            2.441198602868    -1.217804997391    -1.241974000189     1.007825032230
         H            2.441199602868    -1.217792997391     1.241987999811     1.007825032230
         H            3.823688602868    -0.006736997391     1.270402999811     1.007825032230
         H            0.099889602868     2.466867002609    -0.000003000189     1.007825032230
         H           -2.355076397132     2.028295002609     0.000000999811     1.007825032230
         H           -1.445999397132    -2.175342997391     0.000001999811     1.007825032230
         H           -4.077181397132    -0.029422997391     0.883291999811     1.007825032230
         H           -3.742197397132    -1.525890997391     0.000041999811     1.007825032230
         H           -4.077161397132    -0.029493997391    -0.883337000189     1.007825032230

  Basis Set: AUG-CC-PVTZ
    Blend: AUG-CC-PVTZ
  Basis Set: (AUG-CC-PVTZ AUX)
    Blend: AUG-CC-PVTZ-JKFIT
	 Reference Energy          =    -401.7741454250058268 [Eh]
	 Singles Energy            =      -0.0000000000000000 [Eh]
	 Same-Spin Energy          =      -0.4456857003762935 [Eh]
	 Opposite-Spin Energy      =      -1.4311737832314402 [Eh]
	 Correlation Energy        =      -1.8768594836077337 [Eh]
	 Total Energy              =    -403.6510049086135723 [Eh]

	 ================> DF-SCS-MP2 Energies <==================
	-----------------------------------------------------------
	 SCS Same-Spin Scale       =       0.3333333333333333 [-]
	 SCS Opposite-Spin Scale   =       1.2000000000000000 [-]
	 SCS Same-Spin Energy      =      -0.1485619001254311 [Eh]
	 SCS Opposite-Spin Energy  =      -1.7174085398777281 [Eh]
	 SCS Correlation Energy    =      -1.8659704400031594 [Eh]
	 SCS Total Energy          =    -403.6401158650089656 [Eh]
	-----------------------------------------------------------

  Dipole Moment: [D]
     X:    -1.3366      Y:     1.4611      Z:    -0.0000     Total:     1.9803

*** Psi4 exiting successfully. Buy a developer a beer!
