                               Psi4 1.4a3.dev225

  ==> Input File <==

--------------------------------------------------------------------------
#psi4
#
memory 32 gb

molecule  {
0 1
  N        0.1871790    -0.9111820    -0.0000020
  C        2.0846610     0.5733200    -0.0000030
  C        2.9631220    -0.4040200    -0.7474220
  C        2.9631210    -0.4040120     0.7474270
  C        0.6178930     0.3663440    -0.0000030
  C       -0.2752490     1.4465330    -0.0000020
  C       -1.6439530     1.1986260     0.0000010
  C       -2.1086100    -0.1215530     0.0000030
  C       -1.1379910    -1.1285870     0.0000010
  C       -3.5774520    -0.4452540     0.0000000
  H        2.4036780     1.6130560    -0.0000090
  H        3.8277670    -0.0076600    -1.2704010
  H        2.4452750    -1.2187140    -1.2419740
  H        2.4452760    -1.2187020     1.2419880
  H        3.7879365    -0.0259040     1.2463129
  H        0.1039660     2.4659580    -0.0000030
  H       -2.3510000     2.0273860     0.0000010
  H       -1.4419230    -2.1762520     0.0000020
  H       -4.0731050    -0.0303320     0.8832920
  H       -3.7381210    -1.5268000     0.0000420
  H       -4.0730850    -0.0304030    -0.8833370
units angstrom
no_reorient  #important for SAPT in psi4, default
symmetry c1  #important for SAPT in psi4, default
}

set PROPERTIES_ORIGIN ["COM"]
properties('MP2/aug-cc-pvtz', properties = ['dipole'])
--------------------------------------------------------------------------

    Molecular point group: c1
  Charge       = 0
  Multiplicity = 1
  Basis Set: AUG-CC-PVTZ
    Blend: AUG-CC-PVTZ
  Basis Set: (AUG-CC-PVTZ AUX)
    Blend: AUG-CC-PVTZ-JKFIT

    Orbital Energies [Eh]
    ---------------------

    Doubly Occupied:

       1A    -15.555467     2A    -11.275950     3A    -11.267580
       4A    -11.251524     5A    -11.239210     6A    -11.233607
       7A    -11.231082     8A    -11.229136     9A    -11.220890
      10A    -11.215277    11A     -1.250979    12A     -1.141284
      13A     -1.091469    14A     -1.042410    15A     -0.951111
      16A     -0.867404    17A     -0.840477    18A     -0.819758
      19A     -0.781555    20A     -0.701431    21A     -0.667508
      22A     -0.642094    23A     -0.626528    24A     -0.600733
      25A     -0.583620    26A     -0.564575    27A     -0.549484
      28A     -0.536689    29A     -0.528398    30A     -0.506745
      31A     -0.498990    32A     -0.429523    33A     -0.427045
      34A     -0.406144    35A     -0.372292    36A     -0.312553

  @DF-RHF Final Energy:  -401.77277529057153

   => Energetics <=

    Nuclear Repulsion Energy =            489.2717998143938303
    One-Electron Energy =               -1513.1681119151141957
    Two-Electron Energy =                 622.1235368101488348
    Total Energy =                       -401.7727752905715306
  Basis Set: (AUG-CC-PVTZ AUX)
    Blend: AUG-CC-PVTZ-RI
    Molecular point group: c1

    Geometry (in Angstrom), charge = 0, multiplicity = 1:

       Center              X                  Y                   Z               Mass
    ------------   -----------------  -----------------  -----------------  -----------------
         N            0.182828087321    -0.911843538127     0.000180423442    14.003074004430
         C            2.080310087321     0.572658461873     0.000179423442    12.000000000000
         C            2.958771087321    -0.404681538127    -0.747239576558    12.000000000000
         C            2.958770087321    -0.404673538127     0.747609423442    12.000000000000
         C            0.613542087321     0.365682461873     0.000179423442    12.000000000000
         C           -0.279599912679     1.445871461873     0.000180423442    12.000000000000
         C           -1.648303912679     1.197964461873     0.000183423442    12.000000000000
         C           -2.112960912679    -0.122214538127     0.000185423442    12.000000000000
         C           -1.142341912679    -1.129248538127     0.000183423442    12.000000000000
         C           -3.581802912679    -0.445915538127     0.000182423442    12.000000000000
         H            2.399327087321     1.612394461873     0.000173423442     1.007825032230
         H            3.823416087321    -0.008321538127    -1.270218576558     1.007825032230
         H            2.440924087321    -1.219375538127    -1.241791576558     1.007825032230
         H            2.440925087321    -1.219363538127     1.242170423442     1.007825032230
         H            3.783585587321    -0.026565538127     1.246495323442     1.007825032230
         H            0.099615087321     2.465296461873     0.000179423442     1.007825032230
         H           -2.355350912679     2.026724461873     0.000183423442     1.007825032230
         H           -1.446273912679    -2.176913538127     0.000184423442     1.007825032230
         H           -4.077455912679    -0.030993538127     0.883474423442     1.007825032230
         H           -3.742471912679    -1.527461538127     0.000224423442     1.007825032230
         H           -4.077435912679    -0.031064538127    -0.883154576558     1.007825032230

  Basis Set: AUG-CC-PVTZ
    Blend: AUG-CC-PVTZ
  Basis Set: (AUG-CC-PVTZ AUX)
    Blend: AUG-CC-PVTZ-JKFIT
	 Reference Energy          =    -401.7727752905715306 [Eh]
	 Singles Energy            =      -0.0000000000000000 [Eh]
	 Same-Spin Energy          =      -0.4459412647163364 [Eh]
	 Opposite-Spin Energy      =      -1.4314139952801592 [Eh]
	 Correlation Energy        =      -1.8773552599964956 [Eh]
	 Total Energy              =    -403.6501305505680079 [Eh]

	 ================> DF-SCS-MP2 Energies <==================
	-----------------------------------------------------------
	 SCS Same-Spin Scale       =       0.3333333333333333 [-]
	 SCS Opposite-Spin Scale   =       1.2000000000000000 [-]
	 SCS Same-Spin Energy      =      -0.1486470882387788 [Eh]
	 SCS Opposite-Spin Energy  =      -1.7176967943361909 [Eh]
	 SCS Correlation Energy    =      -1.8663438825749696 [Eh]
	 SCS Total Energy          =    -403.6391191731465256 [Eh]
	-----------------------------------------------------------

  Dipole Moment: [D]
     X:    -1.2923      Y:     1.4553      Z:     0.0151     Total:     1.9463

*** Psi4 exiting successfully. Buy a developer a beer!
