                               Psi4 1.4a3.dev225

  ==> Input File <==

--------------------------------------------------------------------------
#psi4
#
memory 32 gb

molecule  {
0 1
  N        0.1871790    -0.9111820    -0.0000020
  C        2.0846610     0.5733200    -0.0000030
  C        2.9631220    -0.4040200    -0.7474220
  C        2.9631210    -0.4040120     0.7474270
  C        0.6178930     0.3663440    -0.0000030
  C       -0.2433877     1.4079991    -0.0000020
  C       -1.6439530     1.1986260     0.0000010
  C       -2.1086100    -0.1215530     0.0000030
  C       -1.1379910    -1.1285870     0.0000010
  C       -3.5774520    -0.4452540     0.0000000
  H        2.4036780     1.6130560    -0.0000090
  H        3.8277670    -0.0076600    -1.2704010
  H        2.4452750    -1.2187140    -1.2419740
  H        2.4452760    -1.2187020     1.2419880
  H        3.8277650    -0.0076460     1.2704030
  H        0.1039660     2.4659580    -0.0000030
  H       -2.3510000     2.0273860     0.0000010
  H       -1.4419230    -2.1762520     0.0000020
  H       -4.0731050    -0.0303320     0.8832920
  H       -3.7381210    -1.5268000     0.0000420
  H       -4.0730850    -0.0304030    -0.8833370
units angstrom
no_reorient  #important for SAPT in psi4, default
symmetry c1  #important for SAPT in psi4, default
}

set PROPERTIES_ORIGIN ["COM"]
properties('MP2/aug-cc-pvtz', properties = ['dipole'])
--------------------------------------------------------------------------

    Molecular point group: c1
  Charge       = 0
  Multiplicity = 1
  Basis Set: AUG-CC-PVTZ
    Blend: AUG-CC-PVTZ
  Basis Set: (AUG-CC-PVTZ AUX)
    Blend: AUG-CC-PVTZ-JKFIT

    Orbital Energies [Eh]
    ---------------------

    Doubly Occupied:

       1A    -15.556023     2A    -11.269229     3A    -11.268436
       4A    -11.254928     5A    -11.240739     6A    -11.232358
       7A    -11.230008     8A    -11.229767     9A    -11.220150
      10A    -11.219458    11A     -1.253505    12A     -1.139835
      13A     -1.090199    14A     -1.046082    15A     -0.951859
      16A     -0.869615    17A     -0.838271    18A     -0.813782
      19A     -0.782898    20A     -0.701107    21A     -0.668100
      22A     -0.638254    23A     -0.619884    24A     -0.603719
      25A     -0.584741    26A     -0.566253    27A     -0.550128
      28A     -0.537509    29A     -0.527404    30A     -0.503596
      31A     -0.493309    32A     -0.428777    33A     -0.425751
      34A     -0.408290    35A     -0.368796    36A     -0.317824

  @DF-RHF Final Energy:  -401.77052542792171

   => Energetics <=

    Nuclear Repulsion Energy =            489.7104492653734269
    One-Electron Energy =               -1514.0607777359209649
    Two-Electron Energy =                 622.5798030426258265
    Total Energy =                       -401.7705254279217115
  Basis Set: (AUG-CC-PVTZ AUX)
    Blend: AUG-CC-PVTZ-RI
    Molecular point group: c1

    Geometry (in Angstrom), charge = 0, multiplicity = 1:

       Center              X                  Y                   Z               Mass
    ------------   -----------------  -----------------  -----------------  -----------------
         N            0.179653705628    -0.908507383882    -0.000002000189    14.003074004430
         C            2.077135705628     0.575994616118    -0.000003000189    12.000000000000
         C            2.955596705628    -0.401345383882    -0.747422000189    12.000000000000
         C            2.955595705628    -0.401337383882     0.747426999811    12.000000000000
         C            0.610367705628     0.369018616118    -0.000003000189    12.000000000000
         C           -0.250912994372     1.410673716118    -0.000002000189    12.000000000000
         C           -1.651478294372     1.201300616118     0.000000999811    12.000000000000
         C           -2.116135294372    -0.118878383882     0.000002999811    12.000000000000
         C           -1.145516294372    -1.125912383882     0.000000999811    12.000000000000
         C           -3.584977294372    -0.442579383882    -0.000000000189    12.000000000000
         H            2.396152705628     1.615730616118    -0.000009000189     1.007825032230
         H            3.820241705628    -0.004985383882    -1.270401000189     1.007825032230
         H            2.437749705628    -1.216039383882    -1.241974000189     1.007825032230
         H            2.437750705628    -1.216027383882     1.241987999811     1.007825032230
         H            3.820239705628    -0.004971383882     1.270402999811     1.007825032230
         H            0.096440705628     2.468632616118    -0.000003000189     1.007825032230
         H           -2.358525294372     2.030060616118     0.000000999811     1.007825032230
         H           -1.449448294372    -2.173577383882     0.000001999811     1.007825032230
         H           -4.080630294372    -0.027657383882     0.883291999811     1.007825032230
         H           -3.745646294372    -1.524125383882     0.000041999811     1.007825032230
         H           -4.080610294372    -0.027728383882    -0.883337000189     1.007825032230

  Basis Set: AUG-CC-PVTZ
    Blend: AUG-CC-PVTZ
  Basis Set: (AUG-CC-PVTZ AUX)
    Blend: AUG-CC-PVTZ-JKFIT
	 Reference Energy          =    -401.7705254279217115 [Eh]
	 Singles Energy            =      -0.0000000000000000 [Eh]
	 Same-Spin Energy          =      -0.4460518303069483 [Eh]
	 Opposite-Spin Energy      =      -1.4318953184876204 [Eh]
	 Correlation Energy        =      -1.8779471487945687 [Eh]
	 Total Energy              =    -403.6484725767163013 [Eh]

	 ================> DF-SCS-MP2 Energies <==================
	-----------------------------------------------------------
	 SCS Same-Spin Scale       =       0.3333333333333333 [-]
	 SCS Opposite-Spin Scale   =       1.2000000000000000 [-]
	 SCS Same-Spin Energy      =      -0.1486839434356494 [Eh]
	 SCS Opposite-Spin Energy  =      -1.7182743821851445 [Eh]
	 SCS Correlation Energy    =      -1.8669583256207940 [Eh]
	 SCS Total Energy          =    -403.6374837535424831 [Eh]
	-----------------------------------------------------------

  Dipole Moment: [D]
     X:    -1.4076      Y:     1.4379      Z:    -0.0000     Total:     2.0122

*** Psi4 exiting successfully. Buy a developer a beer!
