                               Psi4 1.4a3.dev225

  ==> Input File <==

--------------------------------------------------------------------------
#psi4
#
memory 32 gb

molecule  {
0 1
  N        0.1871790    -0.9111820    -0.0000020
  C        2.0846610     0.5733200    -0.0000030
  C        2.9631220    -0.4040200    -0.7474220
  C        2.9631210    -0.4040120     0.7474270
  C        0.6178930     0.3663440    -0.0000030
  C       -0.2752490     1.4465330    -0.0000020
  C       -1.6439530     1.1986260     0.0000010
  C       -2.1086100    -0.1215530     0.0000030
  C       -1.1379910    -1.1285870     0.0000010
  C       -3.5774520    -0.4452540     0.0000000
  H        2.4036780     1.6130560    -0.0000090
  H        3.8277670    -0.0076600    -1.2704010
  H        2.4452750    -1.2187140    -1.2419740
  H        2.4452760    -1.2187020     1.2419880
  H        3.8277650    -0.0076460     1.2704030
  H        0.1039660     2.4659580    -0.0000030
  H       -2.3510000     2.0273860     0.0000010
  H       -1.4419230    -2.1762520     0.0000020
  H       -3.9995897    -0.0918673     0.9460204
  H       -3.7381210    -1.5268000     0.0000420
  H       -4.0730850    -0.0304030    -0.8833370
units angstrom
no_reorient  #important for SAPT in psi4, default
symmetry c1  #important for SAPT in psi4, default
}

set PROPERTIES_ORIGIN ["COM"]
properties('MP2/aug-cc-pvtz', properties = ['dipole'])
--------------------------------------------------------------------------

    Molecular point group: c1
  Charge       = 0
  Multiplicity = 1
  Basis Set: AUG-CC-PVTZ
    Blend: AUG-CC-PVTZ
  Basis Set: (AUG-CC-PVTZ AUX)
    Blend: AUG-CC-PVTZ-JKFIT

    Orbital Energies [Eh]
    ---------------------

    Doubly Occupied:

       1A    -15.555473     2A    -11.275790     3A    -11.267241
       4A    -11.251338     5A    -11.238783     6A    -11.233641
       7A    -11.231210     8A    -11.229387     9A    -11.221405
      10A    -11.220712    11A     -1.250922    12A     -1.140695
      13A     -1.091680    14A     -1.042462    15A     -0.951082
      16A     -0.866751    17A     -0.839706    18A     -0.814781
      19A     -0.780873    20A     -0.700565    21A     -0.666643
      22A     -0.638178    23A     -0.625771    24A     -0.600662
      25A     -0.592884    26A     -0.564433    27A     -0.541491
      28A     -0.536270    29A     -0.527695    30A     -0.504197
      31A     -0.498515    32A     -0.429524    33A     -0.426959
      34A     -0.405913    35A     -0.372339    36A     -0.312606

  @DF-RHF Final Energy:  -401.77242199555934

   => Energetics <=

    Nuclear Repulsion Energy =            489.1131527052203865
    One-Electron Energy =               -1512.8739918825099267
    Two-Electron Energy =                 621.9884171817302558
    Total Energy =                       -401.7724219955592844
  Basis Set: (AUG-CC-PVTZ AUX)
    Blend: AUG-CC-PVTZ-RI
    Molecular point group: c1

    Geometry (in Angstrom), charge = 0, multiplicity = 1:

       Center              X                  Y                   Z               Mass
    ------------   -----------------  -----------------  -----------------  -----------------
         N            0.181969785052    -0.911515818351    -0.000477014509    14.003074004430
         C            2.079451785052     0.572986181649    -0.000478014509    12.000000000000
         C            2.957912785052    -0.404353818351    -0.747897014509    12.000000000000
         C            2.957911785052    -0.404345818351     0.746951985491    12.000000000000
         C            0.612683785052     0.366010181649    -0.000478014509    12.000000000000
         C           -0.280458214948     1.446199181649    -0.000477014509    12.000000000000
         C           -1.649162214948     1.198292181649    -0.000474014509    12.000000000000
         C           -2.113819214948    -0.121886818351    -0.000472014509    12.000000000000
         C           -1.143200214948    -1.128920818351    -0.000474014509    12.000000000000
         C           -3.582661214948    -0.445587818351    -0.000475014509    12.000000000000
         H            2.398468785052     1.612722181649    -0.000484014509     1.007825032230
         H            3.822557785052    -0.007993818351    -1.270876014509     1.007825032230
         H            2.440065785052    -1.219047818351    -1.242449014509     1.007825032230
         H            2.440066785052    -1.219035818351     1.241512985491     1.007825032230
         H            3.822555785052    -0.007979818351     1.269927985491     1.007825032230
         H            0.098756785052     2.465624181649    -0.000478014509     1.007825032230
         H           -2.356209214948     2.027052181649    -0.000474014509     1.007825032230
         H           -1.447132214948    -2.176585818351    -0.000473014509     1.007825032230
         H           -4.004798914948    -0.092201118351     0.945545385491     1.007825032230
         H           -3.743330214948    -1.527133818351    -0.000433014509     1.007825032230
         H           -4.078294214948    -0.030736818351    -0.883812014509     1.007825032230

  Basis Set: AUG-CC-PVTZ
    Blend: AUG-CC-PVTZ
  Basis Set: (AUG-CC-PVTZ AUX)
    Blend: AUG-CC-PVTZ-JKFIT
	 Reference Energy          =    -401.7724219955593412 [Eh]
	 Singles Energy            =      -0.0000000000000000 [Eh]
	 Same-Spin Energy          =      -0.4460430724894010 [Eh]
	 Opposite-Spin Energy      =      -1.4318305016180224 [Eh]
	 Correlation Energy        =      -1.8778735741074235 [Eh]
	 Total Energy              =    -403.6502955696667527 [Eh]

	 ================> DF-SCS-MP2 Energies <==================
	-----------------------------------------------------------
	 SCS Same-Spin Scale       =       0.3333333333333333 [-]
	 SCS Opposite-Spin Scale   =       1.2000000000000000 [-]
	 SCS Same-Spin Energy      =      -0.1486810241631337 [Eh]
	 SCS Opposite-Spin Energy  =      -1.7181966019416268 [Eh]
	 SCS Correlation Energy    =      -1.8668776261047604 [Eh]
	 SCS Total Energy          =    -403.6392996216641222 [Eh]
	-----------------------------------------------------------

  Dipole Moment: [D]
     X:    -1.3091      Y:     1.4230      Z:     0.0148     Total:     1.9336

*** Psi4 exiting successfully. Buy a developer a beer!
