                               Psi4 1.4a3.dev225

  ==> Input File <==

--------------------------------------------------------------------------
#psi4
#
memory 32 gb

molecule  {
0 1
  N        0.1871790    -0.9111820    -0.0000020
  C        2.0846610     0.5733200    -0.0000030
  C        2.9631220    -0.4040200    -0.7474220
  C        2.9631210    -0.4040120     0.7474270
  C        0.6178930     0.3663440    -0.0000030
  C       -0.2752490     1.4465330    -0.0000020
  C       -1.6439530     1.1986260     0.0000010
  C       -2.1086100    -0.1215530     0.0000030
  C       -1.1034373    -1.0940994     0.0000012
  C       -3.5774520    -0.4452540     0.0000000
  H        2.4036780     1.6130560    -0.0000090
  H        3.8277670    -0.0076600    -1.2704010
  H        2.4452750    -1.2187140    -1.2419740
  H        2.4452760    -1.2187020     1.2419880
  H        3.8277650    -0.0076460     1.2704030
  H        0.1039660     2.4659580    -0.0000030
  H       -2.3510000     2.0273860     0.0000010
  H       -1.4419230    -2.1762520     0.0000020
  H       -4.0731050    -0.0303320     0.8832920
  H       -3.7381210    -1.5268000     0.0000420
  H       -4.0730850    -0.0304030    -0.8833370
units angstrom
no_reorient  #important for SAPT in psi4, default
symmetry c1  #important for SAPT in psi4, default
}

set PROPERTIES_ORIGIN ["COM"]
properties('MP2/aug-cc-pvtz', properties = ['dipole'])
--------------------------------------------------------------------------

    Molecular point group: c1
  Charge       = 0
  Multiplicity = 1
  Basis Set: AUG-CC-PVTZ
    Blend: AUG-CC-PVTZ
  Basis Set: (AUG-CC-PVTZ AUX)
    Blend: AUG-CC-PVTZ-JKFIT

    Orbital Energies [Eh]
    ---------------------

    Doubly Occupied:

       1A    -15.554143     2A    -11.276752     3A    -11.267871
       4A    -11.251295     5A    -11.238548     6A    -11.232680
       7A    -11.231771     8A    -11.230235     9A    -11.222150
      10A    -11.221457    11A     -1.263381    12A     -1.142223
      13A     -1.094669    14A     -1.041998    15A     -0.952427
      16A     -0.865215    17A     -0.840586    18A     -0.815545
      19A     -0.784393    20A     -0.700357    21A     -0.668232
      22A     -0.640086    23A     -0.622486    24A     -0.597164
      25A     -0.584925    26A     -0.562956    27A     -0.551115
      28A     -0.539745    29A     -0.528131    30A     -0.505483
      31A     -0.497303    32A     -0.430847    33A     -0.427288
      34A     -0.406964    35A     -0.377137    36A     -0.311379

  @DF-RHF Final Energy:  -401.77198465741617

   => Energetics <=

    Nuclear Repulsion Energy =            489.8854857097591662
    One-Electron Energy =               -1514.3570632865853440
    Two-Electron Energy =                 622.6995929194099517
    Total Energy =                       -401.7719846574161693
  Basis Set: (AUG-CC-PVTZ AUX)
    Blend: AUG-CC-PVTZ-RI
    Molecular point group: c1

    Geometry (in Angstrom), charge = 0, multiplicity = 1:

       Center              X                  Y                   Z               Mass
    ------------   -----------------  -----------------  -----------------  -----------------
         N            0.179410945041    -0.915091376674    -0.000002018222    14.003074004430
         C            2.076892945041     0.569410623326    -0.000003018222    12.000000000000
         C            2.955353945041    -0.407929376674    -0.747422018222    12.000000000000
         C            2.955352945041    -0.407921376674     0.747426981778    12.000000000000
         C            0.610124945041     0.362434623326    -0.000003018222    12.000000000000
         C           -0.283017054959     1.442623623326    -0.000002018222    12.000000000000
         C           -1.651721054959     1.194716623326     0.000000981778    12.000000000000
         C           -2.116378054959    -0.125462376674     0.000002981778    12.000000000000
         C           -1.111205354959    -1.098008776674     0.000001181778    12.000000000000
         C           -3.585220054959    -0.449163376674    -0.000000018222    12.000000000000
         H            2.395909945041     1.609146623326    -0.000009018222     1.007825032230
         H            3.819998945041    -0.011569376674    -1.270401018222     1.007825032230
         H            2.437506945041    -1.222623376674    -1.241974018222     1.007825032230
         H            2.437507945041    -1.222611376674     1.241987981778     1.007825032230
         H            3.819996945041    -0.011555376674     1.270402981778     1.007825032230
         H            0.096197945041     2.462048623326    -0.000003018222     1.007825032230
         H           -2.358768054959     2.023476623326     0.000000981778     1.007825032230
         H           -1.449691054959    -2.180161376674     0.000001981778     1.007825032230
         H           -4.080873054959    -0.034241376674     0.883291981778     1.007825032230
         H           -3.745889054959    -1.530709376674     0.000041981778     1.007825032230
         H           -4.080853054959    -0.034312376674    -0.883337018222     1.007825032230

  Basis Set: AUG-CC-PVTZ
    Blend: AUG-CC-PVTZ
  Basis Set: (AUG-CC-PVTZ AUX)
    Blend: AUG-CC-PVTZ-JKFIT
	 Reference Energy          =    -401.7719846574161693 [Eh]
	 Singles Energy            =      -0.0000000000000000 [Eh]
	 Same-Spin Energy          =      -0.4457320416902671 [Eh]
	 Opposite-Spin Energy      =      -1.4309360334345240 [Eh]
	 Correlation Energy        =      -1.8766680751247913 [Eh]
	 Total Energy              =    -403.6486527325409384 [Eh]

	 ================> DF-SCS-MP2 Energies <==================
	-----------------------------------------------------------
	 SCS Same-Spin Scale       =       0.3333333333333333 [-]
	 SCS Opposite-Spin Scale   =       1.2000000000000000 [-]
	 SCS Same-Spin Energy      =      -0.1485773472300890 [Eh]
	 SCS Opposite-Spin Energy  =      -1.7171232401214287 [Eh]
	 SCS Correlation Energy    =      -1.8657005873515178 [Eh]
	 SCS Total Energy          =    -403.6376852447676811 [Eh]
	-----------------------------------------------------------

  Dipole Moment: [D]
     X:    -1.2727      Y:     1.5053      Z:    -0.0000     Total:     1.9712

*** Psi4 exiting successfully. Buy a developer a beer!
