                               Psi4 1.4a3.dev225

  ==> Input File <==

--------------------------------------------------------------------------
#psi4
#
memory 32 gb

molecule  {
0 1
  N        0.1871790    -0.9111820    -0.0000020
  C        2.0846610     0.5733200    -0.0000030
  C        2.9631220    -0.4040200    -0.7474220
  C        2.9631210    -0.4040120     0.7474270
  C        0.6178930     0.3663440    -0.0000030
  C       -0.2752490     1.4465330    -0.0000020
  C       -1.6439530     1.1986260     0.0000010
  C       -2.0920099    -0.0743891     0.0000029
  C       -1.1379910    -1.1285870     0.0000010
  C       -3.5774520    -0.4452540     0.0000000
  H        2.4036780     1.6130560    -0.0000090
  H        3.8277670    -0.0076600    -1.2704010
  H        2.4452750    -1.2187140    -1.2419740
  H        2.4452760    -1.2187020     1.2419880
  H        3.8277650    -0.0076460     1.2704030
  H        0.1039660     2.4659580    -0.0000030
  H       -2.3510000     2.0273860     0.0000010
  H       -1.4419230    -2.1762520     0.0000020
  H       -4.0731050    -0.0303320     0.8832920
  H       -3.7381210    -1.5268000     0.0000420
  H       -4.0730850    -0.0304030    -0.8833370
units angstrom
no_reorient  #important for SAPT in psi4, default
symmetry c1  #important for SAPT in psi4, default
}

set PROPERTIES_ORIGIN ["COM"]
properties('MP2/aug-cc-pvtz', properties = ['dipole'])
--------------------------------------------------------------------------

    Molecular point group: c1
  Charge       = 0
  Multiplicity = 1
  Basis Set: AUG-CC-PVTZ
    Blend: AUG-CC-PVTZ
  Basis Set: (AUG-CC-PVTZ AUX)
    Blend: AUG-CC-PVTZ-JKFIT

    Orbital Energies [Eh]
    ---------------------

    Doubly Occupied:

       1A    -15.557203     2A    -11.274461     3A    -11.272428
       4A    -11.244979     5A    -11.238363     6A    -11.232733
       7A    -11.230722     8A    -11.230311     9A    -11.220889
      10A    -11.220197    11A     -1.252313    12A     -1.140548
      13A     -1.096610    14A     -1.038783    15A     -0.949321
      16A     -0.864611    17A     -0.845307    18A     -0.814413
      19A     -0.780331    20A     -0.701053    21A     -0.668147
      22A     -0.639038    23A     -0.625309    24A     -0.600998
      25A     -0.582307    26A     -0.564762    27A     -0.544874
      28A     -0.535624    29A     -0.530656    30A     -0.504021
      31A     -0.500038    32A     -0.430023    33A     -0.426747
      34A     -0.404815    35A     -0.376831    36A     -0.311368

  @DF-RHF Final Energy:  -401.77101717400996

   => Energetics <=

    Nuclear Repulsion Energy =            489.3047511685652466
    One-Electron Energy =               -1513.2492685084177992
    Two-Electron Energy =                 622.1735001658425972
    Total Energy =                       -401.7710171740100122
  Basis Set: (AUG-CC-PVTZ AUX)
    Blend: AUG-CC-PVTZ-RI
    Molecular point group: c1

    Geometry (in Angstrom), charge = 0, multiplicity = 1:

       Center              X                  Y                   Z               Mass
    ------------   -----------------  -----------------  -----------------  -----------------
         N            0.181029733658    -0.916234336868    -0.000001991172    14.003074004430
         C            2.078511733658     0.568267663132    -0.000002991172    12.000000000000
         C            2.956972733658    -0.409072336868    -0.747421991172    12.000000000000
         C            2.956971733658    -0.409064336868     0.747427008828    12.000000000000
         C            0.611743733658     0.361291663132    -0.000002991172    12.000000000000
         C           -0.281398266342     1.441480663132    -0.000001991172    12.000000000000
         C           -1.650102266342     1.193573663132     0.000001008828    12.000000000000
         C           -2.098159166342    -0.079441436868     0.000002908828    12.000000000000
         C           -1.144140266342    -1.133639336868     0.000001008828    12.000000000000
         C           -3.583601266342    -0.450306336868     0.000000008828    12.000000000000
         H            2.397528733658     1.608003663132    -0.000008991172     1.007825032230
         H            3.821617733658    -0.012712336868    -1.270400991172     1.007825032230
         H            2.439125733658    -1.223766336868    -1.241973991172     1.007825032230
         H            2.439126733658    -1.223754336868     1.241988008828     1.007825032230
         H            3.821615733658    -0.012698336868     1.270403008828     1.007825032230
         H            0.097816733658     2.460905663132    -0.000002991172     1.007825032230
         H           -2.357149266342     2.022333663132     0.000001008828     1.007825032230
         H           -1.448072266342    -2.181304336868     0.000002008828     1.007825032230
         H           -4.079254266342    -0.035384336868     0.883292008828     1.007825032230
         H           -3.744270266342    -1.531852336868     0.000042008828     1.007825032230
         H           -4.079234266342    -0.035455336868    -0.883336991172     1.007825032230

  Basis Set: AUG-CC-PVTZ
    Blend: AUG-CC-PVTZ
  Basis Set: (AUG-CC-PVTZ AUX)
    Blend: AUG-CC-PVTZ-JKFIT
	 Reference Energy          =    -401.7710171740099554 [Eh]
	 Singles Energy            =      -0.0000000000000000 [Eh]
	 Same-Spin Energy          =      -0.4458172002430184 [Eh]
	 Opposite-Spin Energy      =      -1.4315564253903807 [Eh]
	 Correlation Energy        =      -1.8773736256333990 [Eh]
	 Total Energy              =    -403.6483907996433800 [Eh]

	 ================> DF-SCS-MP2 Energies <==================
	-----------------------------------------------------------
	 SCS Same-Spin Scale       =       0.3333333333333333 [-]
	 SCS Opposite-Spin Scale   =       1.2000000000000000 [-]
	 SCS Same-Spin Energy      =      -0.1486057334143394 [Eh]
	 SCS Opposite-Spin Energy  =      -1.7178677104684568 [Eh]
	 SCS Correlation Energy    =      -1.8664734438827961 [Eh]
	 SCS Total Energy          =    -403.6374906178927517 [Eh]
	-----------------------------------------------------------

  Dipole Moment: [D]
     X:    -1.3074      Y:     1.4155      Z:    -0.0000     Total:     1.9269

*** Psi4 exiting successfully. Buy a developer a beer!
