                               Psi4 1.4a3.dev225

  ==> Input File <==

--------------------------------------------------------------------------
#psi4
#
memory 32 gb

molecule  {
0 1
  N        0.1871790    -0.9111820    -0.0000020
  C        2.1061505     0.5869564     0.0069571
  C        2.9631220    -0.4040200    -0.7474220
  C        2.9631210    -0.4040120     0.7474270
  C        0.6178930     0.3663440    -0.0000030
  C       -0.2752490     1.4465330    -0.0000020
  C       -1.6439530     1.1986260     0.0000010
  C       -2.1086100    -0.1215530     0.0000030
  C       -1.1379910    -1.1285870     0.0000010
  C       -3.5774520    -0.4452540     0.0000000
  H        2.4036780     1.6130560    -0.0000090
  H        3.8277670    -0.0076600    -1.2704010
  H        2.4452750    -1.2187140    -1.2419740
  H        2.4452760    -1.2187020     1.2419880
  H        3.8277650    -0.0076460     1.2704030
  H        0.1039660     2.4659580    -0.0000030
  H       -2.3510000     2.0273860     0.0000010
  H       -1.4419230    -2.1762520     0.0000020
  H       -4.0731050    -0.0303320     0.8832920
  H       -3.7381210    -1.5268000     0.0000420
  H       -4.0730850    -0.0304030    -0.8833370
units angstrom
no_reorient  #important for SAPT in psi4, default
symmetry c1  #important for SAPT in psi4, default
}

set PROPERTIES_ORIGIN ["COM"]
properties('MP2/aug-cc-pvtz', properties = ['dipole'])
--------------------------------------------------------------------------

    Molecular point group: c1
  Charge       = 0
  Multiplicity = 1
  Basis Set: AUG-CC-PVTZ
    Blend: AUG-CC-PVTZ
  Basis Set: (AUG-CC-PVTZ AUX)
    Blend: AUG-CC-PVTZ-JKFIT

    Orbital Energies [Eh]
    ---------------------

    Doubly Occupied:

       1A    -15.556010     2A    -11.277175     3A    -11.267832
       4A    -11.251616     5A    -11.239441     6A    -11.233697
       7A    -11.231039     8A    -11.229275     9A    -11.220946
      10A    -11.220244    11A     -1.250486    12A     -1.141162
      13A     -1.091645    14A     -1.041851    15A     -0.949579
      16A     -0.866741    17A     -0.838561    18A     -0.814835
      19A     -0.783041    20A     -0.701142    21A     -0.666215
      22A     -0.639705    23A     -0.625749    24A     -0.602761
      25A     -0.583657    26A     -0.564798    27A     -0.549280
      28A     -0.534218    29A     -0.528335    30A     -0.504160
      31A     -0.497909    32A     -0.430018    33A     -0.426763
      34A     -0.405670    35A     -0.372400    36A     -0.313647

  @DF-RHF Final Energy:  -401.77342167183173

   => Energetics <=

    Nuclear Repulsion Energy =            488.6797691599368250
    One-Electron Energy =               -1512.0031690273110598
    Two-Electron Energy =                 621.5499781955426215
    Total Energy =                       -401.7734216718316702
  Basis Set: (AUG-CC-PVTZ AUX)
    Blend: AUG-CC-PVTZ-RI
    Molecular point group: c1

    Geometry (in Angstrom), charge = 0, multiplicity = 1:

       Center              X                  Y                   Z               Mass
    ------------   -----------------  -----------------  -----------------  -----------------
         N            0.180588880288    -0.913211325586    -0.000629558487    14.003074004430
         C            2.099560380288     0.584927074414     0.006329541513    12.000000000000
         C            2.956531880288    -0.406049325586    -0.748049558487    12.000000000000
         C            2.956530880288    -0.406041325586     0.746799441513    12.000000000000
         C            0.611302880288     0.364314674414    -0.000630558487    12.000000000000
         C           -0.281839119712     1.444503674414    -0.000629558487    12.000000000000
         C           -1.650543119712     1.196596674414    -0.000626558487    12.000000000000
         C           -2.115200119712    -0.123582325586    -0.000624558487    12.000000000000
         C           -1.144581119712    -1.130616325586    -0.000626558487    12.000000000000
         C           -3.584042119712    -0.447283325586    -0.000627558487    12.000000000000
         H            2.397087880288     1.611026674414    -0.000636558487     1.007825032230
         H            3.821176880288    -0.009689325586    -1.271028558487     1.007825032230
         H            2.438684880288    -1.220743325586    -1.242601558487     1.007825032230
         H            2.438685880288    -1.220731325586     1.241360441513     1.007825032230
         H            3.821174880288    -0.009675325586     1.269775441513     1.007825032230
         H            0.097375880288     2.463928674414    -0.000630558487     1.007825032230
         H           -2.357590119712     2.025356674414    -0.000626558487     1.007825032230
         H           -1.448513119712    -2.178281325586    -0.000625558487     1.007825032230
         H           -4.079695119712    -0.032361325586     0.882664441513     1.007825032230
         H           -3.744711119712    -1.528829325586    -0.000585558487     1.007825032230
         H           -4.079675119712    -0.032432325586    -0.883964558487     1.007825032230

  Basis Set: AUG-CC-PVTZ
    Blend: AUG-CC-PVTZ
  Basis Set: (AUG-CC-PVTZ AUX)
    Blend: AUG-CC-PVTZ-JKFIT
	 Reference Energy          =    -401.7734216718317271 [Eh]
	 Singles Energy            =      -0.0000000000000000 [Eh]
	 Same-Spin Energy          =      -0.4457453970207719 [Eh]
	 Opposite-Spin Energy      =      -1.4313987231891463 [Eh]
	 Correlation Energy        =      -1.8771441202099182 [Eh]
	 Total Energy              =    -403.6505657920416184 [Eh]

	 ================> DF-SCS-MP2 Energies <==================
	-----------------------------------------------------------
	 SCS Same-Spin Scale       =       0.3333333333333333 [-]
	 SCS Opposite-Spin Scale   =       1.2000000000000000 [-]
	 SCS Same-Spin Energy      =      -0.1485817990069239 [Eh]
	 SCS Opposite-Spin Energy  =      -1.7176784678269754 [Eh]
	 SCS Correlation Energy    =      -1.8662602668338995 [Eh]
	 SCS Total Energy          =    -403.6396819386656034 [Eh]
	-----------------------------------------------------------

  Dipole Moment: [D]
     X:    -1.3346      Y:     1.4661      Z:     0.0038     Total:     1.9826

*** Psi4 exiting successfully. Buy a developer a beer!
