                               Psi4 1.4a3.dev225

  ==> Input File <==

--------------------------------------------------------------------------
#psi4
#
memory 32 gb

molecule  {
0 1
  N        0.1871790    -0.9111820    -0.0000020
  C        2.0846610     0.5733200    -0.0000030
  C        2.9631220    -0.4040200    -0.7474220
  C        2.9921746    -0.4363356     0.7721470
  C        0.6178930     0.3663440    -0.0000030
  C       -0.2752490     1.4465330    -0.0000020
  C       -1.6439530     1.1986260     0.0000010
  C       -2.1086100    -0.1215530     0.0000030
  C       -1.1379910    -1.1285870     0.0000010
  C       -3.5774520    -0.4452540     0.0000000
  H        2.4036780     1.6130560    -0.0000090
  H        3.8277670    -0.0076600    -1.2704010
  H        2.4452750    -1.2187140    -1.2419740
  H        2.4452760    -1.2187020     1.2419880
  H        3.8277650    -0.0076460     1.2704030
  H        0.1039660     2.4659580    -0.0000030
  H       -2.3510000     2.0273860     0.0000010
  H       -1.4419230    -2.1762520     0.0000020
  H       -4.0731050    -0.0303320     0.8832920
  H       -3.7381210    -1.5268000     0.0000420
  H       -4.0730850    -0.0304030    -0.8833370
units angstrom
no_reorient  #important for SAPT in psi4, default
symmetry c1  #important for SAPT in psi4, default
}

set PROPERTIES_ORIGIN ["COM"]
properties('MP2/aug-cc-pvtz', properties = ['dipole'])
--------------------------------------------------------------------------

    Molecular point group: c1
  Charge       = 0
  Multiplicity = 1
  Basis Set: AUG-CC-PVTZ
    Blend: AUG-CC-PVTZ
  Basis Set: (AUG-CC-PVTZ AUX)
    Blend: AUG-CC-PVTZ-JKFIT

    Orbital Energies [Eh]
    ---------------------

    Doubly Occupied:

       1A    -15.555525     2A    -11.276244     3A    -11.267687
       4A    -11.251639     5A    -11.239213     6A    -11.233679
       7A    -11.233482     8A    -11.229167     9A    -11.224509
      10A    -11.221970    11A     -1.250690    12A     -1.130578
      13A     -1.090929    14A     -1.041678    15A     -0.950747
      16A     -0.867454    17A     -0.840299    18A     -0.819216
      19A     -0.780953    20A     -0.700244    21A     -0.665012
      22A     -0.639356    23A     -0.625521    24A     -0.597782
      25A     -0.583642    26A     -0.564474    27A     -0.549957
      28A     -0.537613    29A     -0.529981    30A     -0.511769
      31A     -0.499165    32A     -0.431218    33A     -0.418944
      34A     -0.404463    35A     -0.372416    36A     -0.311086

  @DF-RHF Final Energy:  -401.77147544722072

   => Energetics <=

    Nuclear Repulsion Energy =            488.0943606935895218
    One-Electron Energy =               -1510.8350721537012760
    Two-Electron Energy =                 620.9692360128909741
    Total Energy =                       -401.7714754472207233
  Basis Set: (AUG-CC-PVTZ AUX)
    Blend: AUG-CC-PVTZ-RI
    Molecular point group: c1

    Geometry (in Angstrom), charge = 0, multiplicity = 1:

       Center              X                  Y                   Z               Mass
    ------------   -----------------  -----------------  -----------------  -----------------
         N            0.179906862253    -0.909067336368    -0.002230882118    14.003074004430
         C            2.077388862253     0.575434663632    -0.002231882118    12.000000000000
         C            2.955849862253    -0.401905336368    -0.749650882118    12.000000000000
         C            2.984902462253    -0.434220936368     0.769918117882    12.000000000000
         C            0.610620862253     0.368458663632    -0.002231882118    12.000000000000
         C           -0.282521137747     1.448647663632    -0.002230882118    12.000000000000
         C           -1.651225137747     1.200740663632    -0.002227882118    12.000000000000
         C           -2.115882137747    -0.119438336368    -0.002225882118    12.000000000000
         C           -1.145263137747    -1.126472336368    -0.002227882118    12.000000000000
         C           -3.584724137747    -0.443139336368    -0.002228882118    12.000000000000
         H            2.396405862253     1.615170663632    -0.002237882118     1.007825032230
         H            3.820494862253    -0.005545336368    -1.272629882118     1.007825032230
         H            2.438002862253    -1.216599336368    -1.244202882118     1.007825032230
         H            2.438003862253    -1.216587336368     1.239759117882     1.007825032230
         H            3.820492862253    -0.005531336368     1.268174117882     1.007825032230
         H            0.096693862253     2.468072663632    -0.002231882118     1.007825032230
         H           -2.358272137747     2.029500663632    -0.002227882118     1.007825032230
         H           -1.449195137747    -2.174137336368    -0.002226882118     1.007825032230
         H           -4.080377137747    -0.028217336368     0.881063117882     1.007825032230
         H           -3.745393137747    -1.524685336368    -0.002186882118     1.007825032230
         H           -4.080357137747    -0.028288336368    -0.885565882118     1.007825032230

  Basis Set: AUG-CC-PVTZ
    Blend: AUG-CC-PVTZ
  Basis Set: (AUG-CC-PVTZ AUX)
    Blend: AUG-CC-PVTZ-JKFIT
	 Reference Energy          =    -401.7714754472207233 [Eh]
	 Singles Energy            =      -0.0000000000000000 [Eh]
	 Same-Spin Energy          =      -0.4458585477109926 [Eh]
	 Opposite-Spin Energy      =      -1.4320559266532773 [Eh]
	 Correlation Energy        =      -1.8779144743642699 [Eh]
	 Total Energy              =    -403.6493899215849979 [Eh]

	 ================> DF-SCS-MP2 Energies <==================
	-----------------------------------------------------------
	 SCS Same-Spin Scale       =       0.3333333333333333 [-]
	 SCS Opposite-Spin Scale   =       1.2000000000000000 [-]
	 SCS Same-Spin Energy      =      -0.1486195159036642 [Eh]
	 SCS Opposite-Spin Energy  =      -1.7184671119839328 [Eh]
	 SCS Correlation Energy    =      -1.8670866278875971 [Eh]
	 SCS Total Energy          =    -403.6385620751083252 [Eh]
	-----------------------------------------------------------

  Dipole Moment: [D]
     X:    -1.3098      Y:     1.4696      Z:    -0.0284     Total:     1.9688

*** Psi4 exiting successfully. Buy a developer a beer!
