                               Psi4 1.4a3.dev225

  ==> Input File <==

--------------------------------------------------------------------------
#psi4
#
memory 32 gb

molecule  {
0 1
  N        0.1871790    -0.9111820    -0.0000020
  C        2.0846610     0.5733200    -0.0000030
  C        2.9631220    -0.4040200    -0.7474220
  C        2.9631210    -0.4040120     0.7474270
  C        0.6178930     0.3663440    -0.0000030
  C       -0.2752490     1.4465330    -0.0000020
  C       -1.6439530     1.1986260     0.0000010
  C       -2.1086100    -0.1215530     0.0000030
  C       -1.1379910    -1.1285870     0.0000010
  C       -3.5286237    -0.4344933     0.0000001
  H        2.4036780     1.6130560    -0.0000090
  H        3.8277670    -0.0076600    -1.2704010
  H        2.4452750    -1.2187140    -1.2419740
  H        2.4452760    -1.2187020     1.2419880
  H        3.8277650    -0.0076460     1.2704030
  H        0.1039660     2.4659580    -0.0000030
  H       -2.3510000     2.0273860     0.0000010
  H       -1.4419230    -2.1762520     0.0000020
  H       -4.0731050    -0.0303320     0.8832920
  H       -3.7381210    -1.5268000     0.0000420
  H       -4.0730850    -0.0304030    -0.8833370
units angstrom
no_reorient  #important for SAPT in psi4, default
symmetry c1  #important for SAPT in psi4, default
}

set PROPERTIES_ORIGIN ["COM"]
properties('MP2/aug-cc-pvtz', properties = ['dipole'])
--------------------------------------------------------------------------

    Molecular point group: c1
  Charge       = 0
  Multiplicity = 1
  Basis Set: AUG-CC-PVTZ
    Blend: AUG-CC-PVTZ
  Basis Set: (AUG-CC-PVTZ AUX)
    Blend: AUG-CC-PVTZ-JKFIT

    Orbital Energies [Eh]
    ---------------------

    Doubly Occupied:

       1A    -15.555925     2A    -11.276483     3A    -11.267942
       4A    -11.251891     5A    -11.237061     6A    -11.234115
       7A    -11.231592     8A    -11.230992     9A    -11.221746
      10A    -11.221054    11A     -1.251688    12A     -1.141494
      13A     -1.096103    14A     -1.044897    15A     -0.950687
      16A     -0.867525    17A     -0.839183    18A     -0.815097
      19A     -0.781702    20A     -0.701582    21A     -0.668447
      22A     -0.641133    23A     -0.629606    24A     -0.602303
      25A     -0.580025    26A     -0.566904    27A     -0.547473
      28A     -0.533012    29A     -0.525271    30A     -0.503786
      31A     -0.501488    32A     -0.428844    33A     -0.427378
      34A     -0.406827    35A     -0.372434    36A     -0.311874

  @DF-RHF Final Energy:  -401.77040293042097

   => Energetics <=

    Nuclear Repulsion Energy =            489.8826927323587483
    One-Electron Energy =               -1514.3750640885530174
    Two-Electron Energy =                 622.7219684257734116
    Total Energy =                       -401.7704029304209143
  Basis Set: (AUG-CC-PVTZ AUX)
    Blend: AUG-CC-PVTZ-RI
    Molecular point group: c1

    Geometry (in Angstrom), charge = 0, multiplicity = 1:

       Center              X                  Y                   Z               Mass
    ------------   -----------------  -----------------  -----------------  -----------------
         N            0.178123873925    -0.912952037732    -0.000002009205    14.003074004430
         C            2.075605873925     0.571549962268    -0.000003009205    12.000000000000
         C            2.954066873925    -0.405790037732    -0.747422009205    12.000000000000
         C            2.954065873925    -0.405782037732     0.747426990795    12.000000000000
         C            0.608837873925     0.364573962268    -0.000003009205    12.000000000000
         C           -0.284304126075     1.444762962268    -0.000002009205    12.000000000000
         C           -1.653008126075     1.196855962268     0.000000990795    12.000000000000
         C           -2.117665126075    -0.123323037732     0.000002990795    12.000000000000
         C           -1.147046126075    -1.130357037732     0.000000990795    12.000000000000
         C           -3.537678826075    -0.436263337732     0.000000090795    12.000000000000
         H            2.394622873925     1.611285962268    -0.000009009205     1.007825032230
         H            3.818711873925    -0.009430037732    -1.270401009205     1.007825032230
         H            2.436219873925    -1.220484037732    -1.241974009205     1.007825032230
         H            2.436220873925    -1.220472037732     1.241987990795     1.007825032230
         H            3.818709873925    -0.009416037732     1.270402990795     1.007825032230
         H            0.094910873925     2.464187962268    -0.000003009205     1.007825032230
         H           -2.360055126075     2.025615962268     0.000000990795     1.007825032230
         H           -1.450978126075    -2.178022037732     0.000001990795     1.007825032230
         H           -4.082160126075    -0.032102037732     0.883291990795     1.007825032230
         H           -3.747176126075    -1.528570037732     0.000041990795     1.007825032230
         H           -4.082140126075    -0.032173037732    -0.883337009205     1.007825032230

  Basis Set: AUG-CC-PVTZ
    Blend: AUG-CC-PVTZ
  Basis Set: (AUG-CC-PVTZ AUX)
    Blend: AUG-CC-PVTZ-JKFIT
	 Reference Energy          =    -401.7704029304209712 [Eh]
	 Singles Energy            =      -0.0000000000000000 [Eh]
	 Same-Spin Energy          =      -0.4464774499884313 [Eh]
	 Opposite-Spin Energy      =      -1.4322042534549839 [Eh]
	 Correlation Energy        =      -1.8786817034434151 [Eh]
	 Total Energy              =    -403.6490846338643905 [Eh]

	 ================> DF-SCS-MP2 Energies <==================
	-----------------------------------------------------------
	 SCS Same-Spin Scale       =       0.3333333333333333 [-]
	 SCS Opposite-Spin Scale   =       1.2000000000000000 [-]
	 SCS Same-Spin Energy      =      -0.1488258166628104 [Eh]
	 SCS Opposite-Spin Energy  =      -1.7186451041459807 [Eh]
	 SCS Correlation Energy    =      -1.8674709208087912 [Eh]
	 SCS Total Energy          =    -403.6378738512297559 [Eh]
	-----------------------------------------------------------

  Dipole Moment: [D]
     X:    -1.3083      Y:     1.4580      Z:    -0.0000     Total:     1.9589

*** Psi4 exiting successfully. Buy a developer a beer!
