                               Psi4 1.4a3.dev225

  ==> Input File <==

--------------------------------------------------------------------------
#psi4
#
memory 32 gb

molecule  {
0 1
  N        0.1871790    -0.9111820    -0.0000020
  C        2.0846610     0.5733200    -0.0000030
  C        2.9631220    -0.4040200    -0.7474220
  C        2.9631210    -0.4040120     0.7474270
  C        0.6178930     0.3663440    -0.0000030
  C       -0.2752490     1.4465330    -0.0000020
  C       -1.6439530     1.1986260     0.0000010
  C       -2.1086100    -0.1215530     0.0000030
  C       -1.0685941    -1.2005875     0.0000009
  C       -3.5774520    -0.4452540     0.0000000
  H        2.4036780     1.6130560    -0.0000090
  H        3.8277670    -0.0076600    -1.2704010
  H        2.4452750    -1.2187140    -1.2419740
  H        2.4452760    -1.2187020     1.2419880
  H        3.8277650    -0.0076460     1.2704030
  H        0.1039660     2.4659580    -0.0000030
  H       -2.3510000     2.0273860     0.0000010
  H       -1.4419230    -2.1762520     0.0000020
  H       -4.0731050    -0.0303320     0.8832920
  H       -3.7381210    -1.5268000     0.0000420
  H       -4.0730850    -0.0304030    -0.8833370
units angstrom
no_reorient  #important for SAPT in psi4, default
symmetry c1  #important for SAPT in psi4, default
}

set PROPERTIES_ORIGIN ["COM"]
properties('MP2/aug-cc-pvtz', properties = ['dipole'])
--------------------------------------------------------------------------

    Molecular point group: c1
  Charge       = 0
  Multiplicity = 1
  Basis Set: AUG-CC-PVTZ
    Blend: AUG-CC-PVTZ
  Basis Set: (AUG-CC-PVTZ AUX)
    Blend: AUG-CC-PVTZ-JKFIT

    Orbital Energies [Eh]
    ---------------------

    Doubly Occupied:

       1A    -15.554234     2A    -11.274869     3A    -11.273213
       4A    -11.247721     5A    -11.246480     6A    -11.232583
       7A    -11.230662     8A    -11.229249     9A    -11.220485
      10A    -11.219792    11A     -1.261137    12A     -1.140223
      13A     -1.088677    14A     -1.039674    15A     -0.951612
      16A     -0.860813    17A     -0.840268    18A     -0.814177
      19A     -0.780361    20A     -0.708790    21A     -0.665072
      22A     -0.640724    23A     -0.630764    24A     -0.600010
      25A     -0.581617    26A     -0.568544    27A     -0.547690
      28A     -0.538271    29A     -0.527113    30A     -0.505898
      31A     -0.503740    32A     -0.427812    33A     -0.423992
      34A     -0.396267    35A     -0.380786    36A     -0.300706

  @DF-RHF Final Energy:  -401.76330591845050

   => Energetics <=

    Nuclear Repulsion Energy =            488.3860218343095312
    One-Electron Energy =               -1511.3905975060135916
    Two-Electron Energy =                 621.2412697532536185
    Total Energy =                       -401.7633059184504418
  Basis Set: (AUG-CC-PVTZ AUX)
    Blend: AUG-CC-PVTZ-RI
    Molecular point group: c1

    Geometry (in Angstrom), charge = 0, multiplicity = 1:

       Center              X                  Y                   Z               Mass
    ------------   -----------------  -----------------  -----------------  -----------------
         N            0.176269303502    -0.905489863657    -0.000001991172    14.003074004430
         C            2.073751303502     0.579012136343    -0.000002991172    12.000000000000
         C            2.952212303502    -0.398327863657    -0.747421991172    12.000000000000
         C            2.952211303502    -0.398319863657     0.747427008828    12.000000000000
         C            0.606983303502     0.372036136343    -0.000002991172    12.000000000000
         C           -0.286158696498     1.452225136343    -0.000001991172    12.000000000000
         C           -1.654862696498     1.204318136343     0.000001008828    12.000000000000
         C           -2.119519696498    -0.115860863657     0.000003008828    12.000000000000
         C           -1.079503796498    -1.194895363657     0.000000908828    12.000000000000
         C           -3.588361696498    -0.439561863657     0.000000008828    12.000000000000
         H            2.392768303502     1.618748136343    -0.000008991172     1.007825032230
         H            3.816857303502    -0.001967863657    -1.270400991172     1.007825032230
         H            2.434365303502    -1.213021863657    -1.241973991172     1.007825032230
         H            2.434366303502    -1.213009863657     1.241988008828     1.007825032230
         H            3.816855303502    -0.001953863657     1.270403008828     1.007825032230
         H            0.093056303502     2.471650136343    -0.000002991172     1.007825032230
         H           -2.361909696498     2.033078136343     0.000001008828     1.007825032230
         H           -1.452832696498    -2.170559863657     0.000002008828     1.007825032230
         H           -4.084014696498    -0.024639863657     0.883292008828     1.007825032230
         H           -3.749030696498    -1.521107863657     0.000042008828     1.007825032230
         H           -4.083994696498    -0.024710863657    -0.883336991172     1.007825032230

  Basis Set: AUG-CC-PVTZ
    Blend: AUG-CC-PVTZ
  Basis Set: (AUG-CC-PVTZ AUX)
    Blend: AUG-CC-PVTZ-JKFIT
	 Reference Energy          =    -401.7633059184504987 [Eh]
	 Singles Energy            =      -0.0000000000000000 [Eh]
	 Same-Spin Energy          =      -0.4457006452428144 [Eh]
	 Opposite-Spin Energy      =      -1.4314736780354054 [Eh]
	 Correlation Energy        =      -1.8771743232782199 [Eh]
	 Total Energy              =    -403.6404802417287101 [Eh]

	 ================> DF-SCS-MP2 Energies <==================
	-----------------------------------------------------------
	 SCS Same-Spin Scale       =       0.3333333333333333 [-]
	 SCS Opposite-Spin Scale   =       1.2000000000000000 [-]
	 SCS Same-Spin Energy      =      -0.1485668817476048 [Eh]
	 SCS Opposite-Spin Energy  =      -1.7177684136424864 [Eh]
	 SCS Correlation Energy    =      -1.8663352953900911 [Eh]
	 SCS Total Energy          =    -403.6296412138406140 [Eh]
	-----------------------------------------------------------

  Dipole Moment: [D]
     X:    -1.3257      Y:     1.3004      Z:    -0.0000     Total:     1.8570

*** Psi4 exiting successfully. Buy a developer a beer!
