                               Psi4 1.4a3.dev225

  ==> Input File <==

--------------------------------------------------------------------------
#psi4
#
memory 32 gb

molecule  {
0 1
  N        0.1871790    -0.9111820    -0.0000020
  C        2.0846610     0.5733200    -0.0000030
  C        2.9631220    -0.4040200    -0.7474220
  C        2.9631210    -0.4040120     0.7474270
  C        0.6178930     0.3663440    -0.0000030
  C       -0.2752490     1.4465330    -0.0000020
  C       -1.6439530     1.1986260     0.0000010
  C       -2.1086100    -0.1215530     0.0000030
  C       -1.1379910    -1.1285870     0.0000010
  C       -3.5774520    -0.4452540     0.0000000
  H        2.4036780     1.6130560    -0.0000090
  H        3.8277670    -0.0076600    -1.2704010
  H        2.4452750    -1.2187140    -1.2419740
  H        2.4691474    -1.1811467     1.2191899
  H        3.8277650    -0.0076460     1.2704030
  H        0.1039660     2.4659580    -0.0000030
  H       -2.3510000     2.0273860     0.0000010
  H       -1.4419230    -2.1762520     0.0000020
  H       -4.0731050    -0.0303320     0.8832920
  H       -3.7381210    -1.5268000     0.0000420
  H       -4.0730850    -0.0304030    -0.8833370
units angstrom
no_reorient  #important for SAPT in psi4, default
symmetry c1  #important for SAPT in psi4, default
}

set PROPERTIES_ORIGIN ["COM"]
properties('MP2/aug-cc-pvtz', properties = ['dipole'])
--------------------------------------------------------------------------

    Molecular point group: c1
  Charge       = 0
  Multiplicity = 1
  Basis Set: AUG-CC-PVTZ
    Blend: AUG-CC-PVTZ
  Basis Set: (AUG-CC-PVTZ AUX)
    Blend: AUG-CC-PVTZ-JKFIT

    Orbital Energies [Eh]
    ---------------------

    Doubly Occupied:

       1A    -15.555708     2A    -11.276114     3A    -11.267755
       4A    -11.251687     5A    -11.239377     6A    -11.233751
       7A    -11.231090     8A    -11.229249     9A    -11.220956
      10A    -11.215660    11A     -1.251209    12A     -1.141473
      13A     -1.091607    14A     -1.042522    15A     -0.951127
      16A     -0.867634    17A     -0.840281    18A     -0.819826
      19A     -0.782016    20A     -0.702303    21A     -0.667620
      22A     -0.639629    23A     -0.626140    24A     -0.602880
      25A     -0.583705    26A     -0.564658    27A     -0.549589
      28A     -0.535609    29A     -0.529184    30A     -0.508098
      31A     -0.498966    32A     -0.429809    33A     -0.427284
      34A     -0.406252    35A     -0.372474    36A     -0.312623

  @DF-RHF Final Energy:  -401.77284107609495

   => Energetics <=

    Nuclear Repulsion Energy =            489.2262460682089795
    One-Electron Energy =               -1513.0664497478562680
    Two-Electron Energy =                 622.0673626035522830
    Total Energy =                       -401.7728410760950055
  Basis Set: (AUG-CC-PVTZ AUX)
    Blend: AUG-CC-PVTZ-RI
    Molecular point group: c1

    Geometry (in Angstrom), charge = 0, multiplicity = 1:

       Center              X                  Y                   Z               Mass
    ------------   -----------------  -----------------  -----------------  -----------------
         N            0.182345716263    -0.912266187465     0.000170639699    14.003074004430
         C            2.079827716263     0.572235812535     0.000169639699    12.000000000000
         C            2.958288716263    -0.405104187465    -0.747249360301    12.000000000000
         C            2.958287716263    -0.405096187465     0.747599639699    12.000000000000
         C            0.613059716263     0.365259812535     0.000169639699    12.000000000000
         C           -0.280082283737     1.445448812535     0.000170639699    12.000000000000
         C           -1.648786283737     1.197541812535     0.000173639699    12.000000000000
         C           -2.113443283737    -0.122637187465     0.000175639699    12.000000000000
         C           -1.142824283737    -1.129671187465     0.000173639699    12.000000000000
         C           -3.582285283737    -0.446338187465     0.000172639699    12.000000000000
         H            2.398844716263     1.611971812535     0.000163639699     1.007825032230
         H            3.822933716263    -0.008744187465    -1.270228360301     1.007825032230
         H            2.440441716263    -1.219798187465    -1.241801360301     1.007825032230
         H            2.464314116263    -1.182230887465     1.219362539699     1.007825032230
         H            3.822931716263    -0.008730187465     1.270575639699     1.007825032230
         H            0.099132716263     2.464873812535     0.000169639699     1.007825032230
         H           -2.355833283737     2.026301812535     0.000173639699     1.007825032230
         H           -1.446756283737    -2.177336187465     0.000174639699     1.007825032230
         H           -4.077938283737    -0.031416187465     0.883464639699     1.007825032230
         H           -3.742954283737    -1.527884187465     0.000214639699     1.007825032230
         H           -4.077918283737    -0.031487187465    -0.883164360301     1.007825032230

  Basis Set: AUG-CC-PVTZ
    Blend: AUG-CC-PVTZ
  Basis Set: (AUG-CC-PVTZ AUX)
    Blend: AUG-CC-PVTZ-JKFIT
	 Reference Energy          =    -401.7728410760949487 [Eh]
	 Singles Energy            =      -0.0000000000000000 [Eh]
	 Same-Spin Energy          =      -0.4458676679602153 [Eh]
	 Opposite-Spin Energy      =      -1.4313539454956357 [Eh]
	 Correlation Energy        =      -1.8772216134558510 [Eh]
	 Total Energy              =    -403.6500626895507935 [Eh]

	 ================> DF-SCS-MP2 Energies <==================
	-----------------------------------------------------------
	 SCS Same-Spin Scale       =       0.3333333333333333 [-]
	 SCS Opposite-Spin Scale   =       1.2000000000000000 [-]
	 SCS Same-Spin Energy      =      -0.1486225559867384 [Eh]
	 SCS Opposite-Spin Energy  =      -1.7176247345947628 [Eh]
	 SCS Correlation Energy    =      -1.8662472905815013 [Eh]
	 SCS Total Energy          =    -403.6390883666764466 [Eh]
	-----------------------------------------------------------

  Dipole Moment: [D]
     X:    -1.3089      Y:     1.4520      Z:     0.0097     Total:     1.9550

*** Psi4 exiting successfully. Buy a developer a beer!
