                               Psi4 1.4a3.dev225

  ==> Input File <==

--------------------------------------------------------------------------
#psi4
#
memory 32 gb

molecule  {
0 1
  N        0.1871790    -0.9111820    -0.0000020
  C        2.0846610     0.5733200    -0.0000030
  C        2.9631220    -0.4040200    -0.7474220
  C        2.9631210    -0.4040120     0.7474270
  C        0.6178930     0.3663440    -0.0000030
  C       -0.2797840     1.4703824    -0.0000020
  C       -1.6439530     1.1986260     0.0000010
  C       -2.1086100    -0.1215530     0.0000030
  C       -1.1379910    -1.1285870     0.0000010
  C       -3.5774520    -0.4452540     0.0000000
  H        2.4036780     1.6130560    -0.0000090
  H        3.8277670    -0.0076600    -1.2704010
  H        2.4452750    -1.2187140    -1.2419740
  H        2.4452760    -1.2187020     1.2419880
  H        3.8277650    -0.0076460     1.2704030
  H        0.1039660     2.4659580    -0.0000030
  H       -2.3510000     2.0273860     0.0000010
  H       -1.4419230    -2.1762520     0.0000020
  H       -4.0731050    -0.0303320     0.8832920
  H       -3.7381210    -1.5268000     0.0000420
  H       -4.0730850    -0.0304030    -0.8833370
units angstrom
no_reorient  #important for SAPT in psi4, default
symmetry c1  #important for SAPT in psi4, default
}

set PROPERTIES_ORIGIN ["COM"]
properties('MP2/aug-cc-pvtz', properties = ['dipole'])
--------------------------------------------------------------------------

    Molecular point group: c1
  Charge       = 0
  Multiplicity = 1
  Basis Set: AUG-CC-PVTZ
    Blend: AUG-CC-PVTZ
  Basis Set: (AUG-CC-PVTZ AUX)
    Blend: AUG-CC-PVTZ-JKFIT

    Orbital Energies [Eh]
    ---------------------

    Doubly Occupied:

       1A    -15.555715     2A    -11.279120     3A    -11.267770
       4A    -11.251625     5A    -11.239022     6A    -11.234477
       7A    -11.231624     8A    -11.229089     9A    -11.221878
      10A    -11.221186    11A     -1.250075    12A     -1.141030
      13A     -1.091366    14A     -1.040904    15A     -0.950330
      16A     -0.866681    17A     -0.841578    18A     -0.815170
      19A     -0.780013    20A     -0.700852    21A     -0.665652
      22A     -0.639869    23A     -0.631468    24A     -0.599065
      25A     -0.583298    26A     -0.563014    27A     -0.549353
      28A     -0.534418    29A     -0.528818    30A     -0.504070
      31A     -0.500678    32A     -0.429547    33A     -0.427828
      34A     -0.405460    35A     -0.372891    36A     -0.310995

  @DF-RHF Final Energy:  -401.77283190603481

   => Energetics <=

    Nuclear Repulsion Energy =            488.5822764857393850
    One-Electron Energy =               -1511.7983588715012502
    Two-Electron Energy =                 621.4432504797271122
    Total Energy =                       -401.7728319060347530
  Basis Set: (AUG-CC-PVTZ AUX)
    Blend: AUG-CC-PVTZ-RI
    Molecular point group: c1

    Geometry (in Angstrom), charge = 0, multiplicity = 1:

       Center              X                  Y                   Z               Mass
    ------------   -----------------  -----------------  -----------------  -----------------
         N            0.182935382625    -0.914132182024    -0.000002000189    14.003074004430
         C            2.080417382625     0.570369817976    -0.000003000189    12.000000000000
         C            2.958878382625    -0.406970182024    -0.747422000189    12.000000000000
         C            2.958877382625    -0.406962182024     0.747426999811    12.000000000000
         C            0.613649382625     0.363393817976    -0.000003000189    12.000000000000
         C           -0.284027617375     1.467432217976    -0.000002000189    12.000000000000
         C           -1.648196617375     1.195675817976     0.000000999811    12.000000000000
         C           -2.112853617375    -0.124503182024     0.000002999811    12.000000000000
         C           -1.142234617375    -1.131537182024     0.000000999811    12.000000000000
         C           -3.581695617375    -0.448204182024    -0.000000000189    12.000000000000
         H            2.399434382625     1.610105817976    -0.000009000189     1.007825032230
         H            3.823523382625    -0.010610182024    -1.270401000189     1.007825032230
         H            2.441031382625    -1.221664182024    -1.241974000189     1.007825032230
         H            2.441032382625    -1.221652182024     1.241987999811     1.007825032230
         H            3.823521382625    -0.010596182024     1.270402999811     1.007825032230
         H            0.099722382625     2.463007817976    -0.000003000189     1.007825032230
         H           -2.355243617375     2.024435817976     0.000000999811     1.007825032230
         H           -1.446166617375    -2.179202182024     0.000001999811     1.007825032230
         H           -4.077348617375    -0.033282182024     0.883291999811     1.007825032230
         H           -3.742364617375    -1.529750182024     0.000041999811     1.007825032230
         H           -4.077328617375    -0.033353182024    -0.883337000189     1.007825032230

  Basis Set: AUG-CC-PVTZ
    Blend: AUG-CC-PVTZ
  Basis Set: (AUG-CC-PVTZ AUX)
    Blend: AUG-CC-PVTZ-JKFIT
	 Reference Energy          =    -401.7728319060348099 [Eh]
	 Singles Energy            =      -0.0000000000000000 [Eh]
	 Same-Spin Energy          =      -0.4458821893631316 [Eh]
	 Opposite-Spin Energy      =      -1.4316789838399071 [Eh]
	 Correlation Energy        =      -1.8775611732030386 [Eh]
	 Total Energy              =    -403.6503930792378583 [Eh]

	 ================> DF-SCS-MP2 Energies <==================
	-----------------------------------------------------------
	 SCS Same-Spin Scale       =       0.3333333333333333 [-]
	 SCS Opposite-Spin Scale   =       1.2000000000000000 [-]
	 SCS Same-Spin Energy      =      -0.1486273964543772 [Eh]
	 SCS Opposite-Spin Energy  =      -1.7180147806078885 [Eh]
	 SCS Correlation Energy    =      -1.8666421770622657 [Eh]
	 SCS Total Energy          =    -403.6394740830970704 [Eh]
	-----------------------------------------------------------

  Dipole Moment: [D]
     X:    -1.2848      Y:     1.4624      Z:    -0.0000     Total:     1.9466

*** Psi4 exiting successfully. Buy a developer a beer!
