                               Psi4 1.4a3.dev225

  ==> Input File <==

--------------------------------------------------------------------------
#psi4
#
memory 32 gb

molecule  {
0 1
  N        0.1871790    -0.9111820    -0.0000020
  C        2.0846610     0.5733200    -0.0000030
  C        2.9631220    -0.4040200    -0.7474220
  C        2.9747424    -0.4169414     0.7573150
  C        0.6178930     0.3663440    -0.0000030
  C       -0.2752490     1.4465330    -0.0000020
  C       -1.6439530     1.1986260     0.0000010
  C       -2.1086100    -0.1215530     0.0000030
  C       -1.1379910    -1.1285870     0.0000010
  C       -3.5774520    -0.4452540     0.0000000
  H        2.4036780     1.6130560    -0.0000090
  H        3.8277670    -0.0076600    -1.2704010
  H        2.4452750    -1.2187140    -1.2419740
  H        2.4452760    -1.2187020     1.2419880
  H        3.8277650    -0.0076460     1.2704030
  H        0.1039660     2.4659580    -0.0000030
  H       -2.3510000     2.0273860     0.0000010
  H       -1.4419230    -2.1762520     0.0000020
  H       -4.0731050    -0.0303320     0.8832920
  H       -3.7381210    -1.5268000     0.0000420
  H       -4.0730850    -0.0304030    -0.8833370
units angstrom
no_reorient  #important for SAPT in psi4, default
symmetry c1  #important for SAPT in psi4, default
}

set PROPERTIES_ORIGIN ["COM"]
properties('MP2/aug-cc-pvtz', properties = ['dipole'])
--------------------------------------------------------------------------

    Molecular point group: c1
  Charge       = 0
  Multiplicity = 1
  Basis Set: AUG-CC-PVTZ
    Blend: AUG-CC-PVTZ
  Basis Set: (AUG-CC-PVTZ AUX)
    Blend: AUG-CC-PVTZ-JKFIT

    Orbital Energies [Eh]
    ---------------------

    Doubly Occupied:

       1A    -15.555623     2A    -11.276168     3A    -11.267715
       4A    -11.251657     5A    -11.239316     6A    -11.233739
       7A    -11.232223     8A    -11.229216     9A    -11.222595
      10A    -11.221390    11A     -1.250965    12A     -1.136574
      13A     -1.091339    14A     -1.042142    15A     -0.950904
      16A     -0.867365    17A     -0.840099    18A     -0.816632
      19A     -0.781193    20A     -0.700693    21A     -0.666051
      22A     -0.639143    23A     -0.625873    24A     -0.599749
      25A     -0.583680    26A     -0.564581    27A     -0.549574
      28A     -0.536002    29A     -0.528847    30A     -0.507502
      31A     -0.499101    32A     -0.429633    33A     -0.424135
      34A     -0.405867    35A     -0.372433    36A     -0.312098

  @DF-RHF Final Energy:  -401.77336056712448

   => Energetics <=

    Nuclear Repulsion Energy =            488.6457233549662078
    One-Electron Energy =               -1511.9345342294395778
    Two-Electron Energy =                 621.5154503073488286
    Total Energy =                       -401.7733605671245414
  Basis Set: (AUG-CC-PVTZ AUX)
    Blend: AUG-CC-PVTZ-RI
    Molecular point group: c1

    Geometry (in Angstrom), charge = 0, multiplicity = 1:

       Center              X                  Y                   Z               Mass
    ------------   -----------------  -----------------  -----------------  -----------------
         N            0.181478638773    -0.910816016866    -0.000893552961    14.003074004430
         C            2.078960638773     0.573685983134    -0.000894552961    12.000000000000
         C            2.957421638773    -0.403654016866    -0.748313552961    12.000000000000
         C            2.969042038773    -0.416575416866     0.756423447039    12.000000000000
         C            0.612192638773     0.366709983134    -0.000894552961    12.000000000000
         C           -0.280949361227     1.446898983134    -0.000893552961    12.000000000000
         C           -1.649653361227     1.198991983134    -0.000890552961    12.000000000000
         C           -2.114310361227    -0.121187016866    -0.000888552961    12.000000000000
         C           -1.143691361227    -1.128221016866    -0.000890552961    12.000000000000
         C           -3.583152361227    -0.444888016866    -0.000891552961    12.000000000000
         H            2.397977638773     1.613421983134    -0.000900552961     1.007825032230
         H            3.822066638773    -0.007294016866    -1.271292552961     1.007825032230
         H            2.439574638773    -1.218348016866    -1.242865552961     1.007825032230
         H            2.439575638773    -1.218336016866     1.241096447039     1.007825032230
         H            3.822064638773    -0.007280016866     1.269511447039     1.007825032230
         H            0.098265638773     2.466323983134    -0.000894552961     1.007825032230
         H           -2.356700361227     2.027751983134    -0.000890552961     1.007825032230
         H           -1.447623361227    -2.175886016866    -0.000889552961     1.007825032230
         H           -4.078805361227    -0.029966016866     0.882400447039     1.007825032230
         H           -3.743821361227    -1.526434016866    -0.000849552961     1.007825032230
         H           -4.078785361227    -0.030037016866    -0.884228552961     1.007825032230

  Basis Set: AUG-CC-PVTZ
    Blend: AUG-CC-PVTZ
  Basis Set: (AUG-CC-PVTZ AUX)
    Blend: AUG-CC-PVTZ-JKFIT
	 Reference Energy          =    -401.7733605671244845 [Eh]
	 Singles Energy            =      -0.0000000000000000 [Eh]
	 Same-Spin Energy          =      -0.4458970641344905 [Eh]
	 Opposite-Spin Energy      =      -1.4317820850777110 [Eh]
	 Correlation Energy        =      -1.8776791492122016 [Eh]
	 Total Energy              =    -403.6510397163366974 [Eh]

	 ================> DF-SCS-MP2 Energies <==================
	-----------------------------------------------------------
	 SCS Same-Spin Scale       =       0.3333333333333333 [-]
	 SCS Opposite-Spin Scale   =       1.2000000000000000 [-]
	 SCS Same-Spin Energy      =      -0.1486323547114968 [Eh]
	 SCS Opposite-Spin Energy  =      -1.7181385020932531 [Eh]
	 SCS Correlation Energy    =      -1.8667708568047501 [Eh]
	 SCS Total Energy          =    -403.6401314239292333 [Eh]
	-----------------------------------------------------------

  Dipole Moment: [D]
     X:    -1.3104      Y:     1.4604      Z:    -0.0108     Total:     1.9622

*** Psi4 exiting successfully. Buy a developer a beer!
