                               Psi4 1.4a3.dev225

  ==> Input File <==

--------------------------------------------------------------------------
#psi4
#
memory 32 gb

molecule  {
0 1
  N        0.1871790    -0.9111820    -0.0000020
  C        2.0846610     0.5733200    -0.0000030
  C        2.9631220    -0.4040200    -0.7474220
  C        2.9631210    -0.4040120     0.7474270
  C        0.6178930     0.3663440    -0.0000030
  C       -0.2752490     1.4465330    -0.0000020
  C       -1.6903096     1.2140381     0.0000008
  C       -2.1086100    -0.1215530     0.0000030
  C       -1.1379910    -1.1285870     0.0000010
  C       -3.5774520    -0.4452540     0.0000000
  H        2.4036780     1.6130560    -0.0000090
  H        3.8277670    -0.0076600    -1.2704010
  H        2.4452750    -1.2187140    -1.2419740
  H        2.4452760    -1.2187020     1.2419880
  H        3.8277650    -0.0076460     1.2704030
  H        0.1039660     2.4659580    -0.0000030
  H       -2.3510000     2.0273860     0.0000010
  H       -1.4419230    -2.1762520     0.0000020
  H       -4.0731050    -0.0303320     0.8832920
  H       -3.7381210    -1.5268000     0.0000420
  H       -4.0730850    -0.0304030    -0.8833370
units angstrom
no_reorient  #important for SAPT in psi4, default
symmetry c1  #important for SAPT in psi4, default
}

set PROPERTIES_ORIGIN ["COM"]
properties('MP2/aug-cc-pvtz', properties = ['dipole'])
--------------------------------------------------------------------------

    Molecular point group: c1
  Charge       = 0
  Multiplicity = 1
  Basis Set: AUG-CC-PVTZ
    Blend: AUG-CC-PVTZ
  Basis Set: (AUG-CC-PVTZ AUX)
    Blend: AUG-CC-PVTZ-JKFIT

    Orbital Energies [Eh]
    ---------------------

    Doubly Occupied:

       1A    -15.556999     2A    -11.275304     3A    -11.269211
       4A    -11.253319     5A    -11.240888     6A    -11.237917
       7A    -11.231065     8A    -11.228377     9A    -11.221073
      10A    -11.220380    11A     -1.250371    12A     -1.140398
      13A     -1.090582    14A     -1.037946    15A     -0.949802
      16A     -0.870223    17A     -0.838281    18A     -0.814541
      19A     -0.784007    20A     -0.702346    21A     -0.663640
      22A     -0.640505    23A     -0.626145    24A     -0.601660
      25A     -0.583476    26A     -0.573516    27A     -0.549354
      28A     -0.534188    29A     -0.526315    30A     -0.503406
      31A     -0.494552    32A     -0.429113    33A     -0.427352
      34A     -0.407773    35A     -0.367765    36A     -0.312956

  @DF-RHF Final Energy:  -401.76971027722590

   => Energetics <=

    Nuclear Repulsion Energy =            488.2748887440129124
    One-Electron Energy =               -1511.1797083900692087
    Two-Electron Energy =                 621.1351093688302853
    Total Energy =                       -401.7697102772259541
  Basis Set: (AUG-CC-PVTZ AUX)
    Blend: AUG-CC-PVTZ-RI
    Molecular point group: c1

    Geometry (in Angstrom), charge = 0, multiplicity = 1:

       Center              X                  Y                   Z               Mass
    ------------   -----------------  -----------------  -----------------  -----------------
         N            0.186706232483    -0.913371431801    -0.000001982156    14.003074004430
         C            2.084188232483     0.571130568199    -0.000002982156    12.000000000000
         C            2.962649232483    -0.406209431801    -0.747421982156    12.000000000000
         C            2.962648232483    -0.406201431801     0.747427017844    12.000000000000
         C            0.617420232483     0.364154568199    -0.000002982156    12.000000000000
         C           -0.275721767517     1.444343568199    -0.000001982156    12.000000000000
         C           -1.690782367517     1.211848668199     0.000000817844    12.000000000000
         C           -2.109082767517    -0.123742431801     0.000003017844    12.000000000000
         C           -1.138463767517    -1.130776431801     0.000001017844    12.000000000000
         C           -3.577924767517    -0.447443431801     0.000000017844    12.000000000000
         H            2.403205232483     1.610866568199    -0.000008982156     1.007825032230
         H            3.827294232483    -0.009849431801    -1.270400982156     1.007825032230
         H            2.444802232483    -1.220903431801    -1.241973982156     1.007825032230
         H            2.444803232483    -1.220891431801     1.241988017844     1.007825032230
         H            3.827292232483    -0.009835431801     1.270403017844     1.007825032230
         H            0.103493232483     2.463768568199    -0.000002982156     1.007825032230
         H           -2.351472767517     2.025196568199     0.000001017844     1.007825032230
         H           -1.442395767517    -2.178441431801     0.000002017844     1.007825032230
         H           -4.073577767517    -0.032521431801     0.883292017844     1.007825032230
         H           -3.738593767517    -1.528989431801     0.000042017844     1.007825032230
         H           -4.073557767517    -0.032592431801    -0.883336982156     1.007825032230

  Basis Set: AUG-CC-PVTZ
    Blend: AUG-CC-PVTZ
  Basis Set: (AUG-CC-PVTZ AUX)
    Blend: AUG-CC-PVTZ-JKFIT
	 Reference Energy          =    -401.7697102772258972 [Eh]
	 Singles Energy            =      -0.0000000000000000 [Eh]
	 Same-Spin Energy          =      -0.4460903541541639 [Eh]
	 Opposite-Spin Energy      =      -1.4322539773914302 [Eh]
	 Correlation Energy        =      -1.8783443315455941 [Eh]
	 Total Energy              =    -403.6480546087714742 [Eh]

	 ================> DF-SCS-MP2 Energies <==================
	-----------------------------------------------------------
	 SCS Same-Spin Scale       =       0.3333333333333333 [-]
	 SCS Opposite-Spin Scale   =       1.2000000000000000 [-]
	 SCS Same-Spin Energy      =      -0.1486967847180546 [Eh]
	 SCS Opposite-Spin Energy  =      -1.7187047728697162 [Eh]
	 SCS Correlation Energy    =      -1.8674015575877709 [Eh]
	 SCS Total Energy          =    -403.6371118348136520 [Eh]
	-----------------------------------------------------------

  Dipole Moment: [D]
     X:    -1.3274      Y:     1.4676      Z:    -0.0000     Total:     1.9788

*** Psi4 exiting successfully. Buy a developer a beer!
