                               Psi4 1.4a3.dev225

  ==> Input File <==

--------------------------------------------------------------------------
#psi4
#
memory 32 gb

molecule  {
0 1
  N        0.1871790    -0.9111820    -0.0000020
  C        2.0846610     0.5733200    -0.0000030
  C        2.9631220    -0.4040200    -0.7474220
  C        3.0212281    -0.4686592     0.7968669
  C        0.6178930     0.3663440    -0.0000030
  C       -0.2752490     1.4465330    -0.0000020
  C       -1.6439530     1.1986260     0.0000010
  C       -2.1086100    -0.1215530     0.0000030
  C       -1.1379910    -1.1285870     0.0000010
  C       -3.5774520    -0.4452540     0.0000000
  H        2.4036780     1.6130560    -0.0000090
  H        3.8277670    -0.0076600    -1.2704010
  H        2.4452750    -1.2187140    -1.2419740
  H        2.4452760    -1.2187020     1.2419880
  H        3.8277650    -0.0076460     1.2704030
  H        0.1039660     2.4659580    -0.0000030
  H       -2.3510000     2.0273860     0.0000010
  H       -1.4419230    -2.1762520     0.0000020
  H       -4.0731050    -0.0303320     0.8832920
  H       -3.7381210    -1.5268000     0.0000420
  H       -4.0730850    -0.0304030    -0.8833370
units angstrom
no_reorient  #important for SAPT in psi4, default
symmetry c1  #important for SAPT in psi4, default
}

set PROPERTIES_ORIGIN ["COM"]
properties('MP2/aug-cc-pvtz', properties = ['dipole'])
--------------------------------------------------------------------------

    Molecular point group: c1
  Charge       = 0
  Multiplicity = 1
  Basis Set: AUG-CC-PVTZ
    Blend: AUG-CC-PVTZ
  Basis Set: (AUG-CC-PVTZ AUX)
    Blend: AUG-CC-PVTZ-JKFIT

    Orbital Energies [Eh]
    ---------------------

    Doubly Occupied:

       1A    -15.555428     2A    -11.276439     3A    -11.267687
       4A    -11.251652     5A    -11.239102     6A    -11.235569
       7A    -11.233650     8A    -11.229120     9A    -11.227886
      10A    -11.223128    11A     -1.250364    12A     -1.121750
      13A     -1.090107    14A     -1.040867    15A     -0.950544
      16A     -0.867785    17A     -0.841093    18A     -0.823259
      19A     -0.780483    20A     -0.699769    21A     -0.663535
      22A     -0.640298    23A     -0.625162    24A     -0.593943
      25A     -0.583625    26A     -0.564345    27A     -0.551522
      28A     -0.542040    29A     -0.531201    30A     -0.516273
      31A     -0.499209    32A     -0.433628    33A     -0.413731
      34A     -0.399405    35A     -0.372389    36A     -0.309101

  @DF-RHF Final Energy:  -401.76511151112942

   => Energetics <=

    Nuclear Repulsion Energy =            487.1922053101046686
    One-Electron Energy =               -1509.0244587203792435
    Two-Electron Energy =                 620.0671418991450992
    Total Energy =                       -401.7651115111294757
  Basis Set: (AUG-CC-PVTZ AUX)
    Blend: AUG-CC-PVTZ-RI
    Molecular point group: c1

    Geometry (in Angstrom), charge = 0, multiplicity = 1:

       Center              X                  Y                   Z               Mass
    ------------   -----------------  -----------------  -----------------  -----------------
         N            0.177287249748    -0.906152874882    -0.004459755031    14.003074004430
         C            2.074769249748     0.578349125118    -0.004460755031    12.000000000000
         C            2.953230249748    -0.398990874882    -0.751879755031    12.000000000000
         C            3.011336349748    -0.463630074882     0.792409144969    12.000000000000
         C            0.608001249748     0.371373125118    -0.004460755031    12.000000000000
         C           -0.285140750252     1.451562125118    -0.004459755031    12.000000000000
         C           -1.653844750252     1.203655125118    -0.004456755031    12.000000000000
         C           -2.118501750252    -0.116523874882    -0.004454755031    12.000000000000
         C           -1.147882750252    -1.123557874882    -0.004456755031    12.000000000000
         C           -3.587343750252    -0.440224874882    -0.004457755031    12.000000000000
         H            2.393786249748     1.618085125118    -0.004466755031     1.007825032230
         H            3.817875249748    -0.002630874882    -1.274858755031     1.007825032230
         H            2.435383249748    -1.213684874882    -1.246431755031     1.007825032230
         H            2.435384249748    -1.213672874882     1.237530244969     1.007825032230
         H            3.817873249748    -0.002616874882     1.265945244969     1.007825032230
         H            0.094074249748     2.470987125118    -0.004460755031     1.007825032230
         H           -2.360891750252     2.032415125118    -0.004456755031     1.007825032230
         H           -1.451814750252    -2.171222874882    -0.004455755031     1.007825032230
         H           -4.082996750252    -0.025302874882     0.878834244969     1.007825032230
         H           -3.748012750252    -1.521770874882    -0.004415755031     1.007825032230
         H           -4.082976750252    -0.025373874882    -0.887794755031     1.007825032230

  Basis Set: AUG-CC-PVTZ
    Blend: AUG-CC-PVTZ
  Basis Set: (AUG-CC-PVTZ AUX)
    Blend: AUG-CC-PVTZ-JKFIT
	 Reference Energy          =    -401.7651115111294189 [Eh]
	 Singles Energy            =      -0.0000000000000000 [Eh]
	 Same-Spin Energy          =      -0.4459028621798438 [Eh]
	 Opposite-Spin Energy      =      -1.4327404804363373 [Eh]
	 Correlation Energy        =      -1.8786433426161810 [Eh]
	 Total Energy              =    -403.6437548537455768 [Eh]

	 ================> DF-SCS-MP2 Energies <==================
	-----------------------------------------------------------
	 SCS Same-Spin Scale       =       0.3333333333333333 [-]
	 SCS Opposite-Spin Scale   =       1.2000000000000000 [-]
	 SCS Same-Spin Energy      =      -0.1486342873932812 [Eh]
	 SCS Opposite-Spin Energy  =      -1.7192885765236048 [Eh]
	 SCS Correlation Energy    =      -1.8679228639168861 [Eh]
	 SCS Total Energy          =    -403.6330343750462930 [Eh]
	-----------------------------------------------------------

  Dipole Moment: [D]
     X:    -1.3187      Y:     1.4893      Z:    -0.0607     Total:     1.9901

*** Psi4 exiting successfully. Buy a developer a beer!
