                               Psi4 1.4a3.dev225

  ==> Input File <==

--------------------------------------------------------------------------
#psi4
#
memory 32 gb

molecule  {
0 1
  N        0.1871790    -0.9111820    -0.0000020
  C        2.0846610     0.5733200    -0.0000030
  C        2.9631220    -0.4040200    -0.7474220
  C        2.9631210    -0.4040120     0.7474270
  C        0.6178930     0.3663440    -0.0000030
  C       -0.2752490     1.4465330    -0.0000020
  C       -1.6439530     1.1986260     0.0000010
  C       -2.1252101    -0.1687169     0.0000031
  C       -1.1379910    -1.1285870     0.0000010
  C       -3.5774520    -0.4452540     0.0000000
  H        2.4036780     1.6130560    -0.0000090
  H        3.8277670    -0.0076600    -1.2704010
  H        2.4452750    -1.2187140    -1.2419740
  H        2.4452760    -1.2187020     1.2419880
  H        3.8277650    -0.0076460     1.2704030
  H        0.1039660     2.4659580    -0.0000030
  H       -2.3510000     2.0273860     0.0000010
  H       -1.4419230    -2.1762520     0.0000020
  H       -4.0731050    -0.0303320     0.8832920
  H       -3.7381210    -1.5268000     0.0000420
  H       -4.0730850    -0.0304030    -0.8833370
units angstrom
no_reorient  #important for SAPT in psi4, default
symmetry c1  #important for SAPT in psi4, default
}

set PROPERTIES_ORIGIN ["COM"]
properties('MP2/aug-cc-pvtz', properties = ['dipole'])
--------------------------------------------------------------------------

    Molecular point group: c1
  Charge       = 0
  Multiplicity = 1
  Basis Set: AUG-CC-PVTZ
    Blend: AUG-CC-PVTZ
  Basis Set: (AUG-CC-PVTZ AUX)
    Blend: AUG-CC-PVTZ-JKFIT

    Orbital Energies [Eh]
    ---------------------

    Doubly Occupied:

       1A    -15.554204     2A    -11.277880     3A    -11.263208
       4A    -11.257440     5A    -11.240087     6A    -11.234738
       7A    -11.232067     8A    -11.228295     9A    -11.222254
      10A    -11.221561    11A     -1.250115    12A     -1.141288
      13A     -1.088125    14A     -1.045692    15A     -0.952875
      16A     -0.870905    17A     -0.834122    18A     -0.815450
      19A     -0.782060    20A     -0.701010    21A     -0.665505
      22A     -0.639346    23A     -0.627270    24A     -0.600894
      25A     -0.585384    26A     -0.567077    27A     -0.554531
      28A     -0.535252    29A     -0.523291    30A     -0.504292
      31A     -0.495034    32A     -0.429207    33A     -0.427512
      34A     -0.407331    35A     -0.369065    36A     -0.313950

  @DF-RHF Final Energy:  -401.77029562898952

   => Energetics <=

    Nuclear Repulsion Energy =            488.7573081049579855
    One-Electron Energy =               -1512.1385730978813626
    Two-Electron Energy =                 621.6109693639339184
    Total Energy =                       -401.7702956289895155
  Basis Set: (AUG-CC-PVTZ AUX)
    Blend: AUG-CC-PVTZ-RI
    Molecular point group: c1

    Geometry (in Angstrom), charge = 0, multiplicity = 1:

       Center              X                  Y                   Z               Mass
    ------------   -----------------  -----------------  -----------------  -----------------
         N            0.184023233893    -0.907729258840    -0.000002009205    14.003074004430
         C            2.081505233893     0.576772741160    -0.000003009205    12.000000000000
         C            2.959966233893    -0.400567258840    -0.747422009205    12.000000000000
         C            2.959965233893    -0.400559258840     0.747426990795    12.000000000000
         C            0.614737233893     0.369796741160    -0.000003009205    12.000000000000
         C           -0.278404766107     1.449985741160    -0.000002009205    12.000000000000
         C           -1.647108766107     1.202078741160     0.000000990795    12.000000000000
         C           -2.128365866107    -0.165264158840     0.000003090795    12.000000000000
         C           -1.141146766107    -1.125134258840     0.000000990795    12.000000000000
         C           -3.580607766107    -0.441801258840    -0.000000009205    12.000000000000
         H            2.400522233893     1.616508741160    -0.000009009205     1.007825032230
         H            3.824611233893    -0.004207258840    -1.270401009205     1.007825032230
         H            2.442119233893    -1.215261258840    -1.241974009205     1.007825032230
         H            2.442120233893    -1.215249258840     1.241987990795     1.007825032230
         H            3.824609233893    -0.004193258840     1.270402990795     1.007825032230
         H            0.100810233893     2.469410741160    -0.000003009205     1.007825032230
         H           -2.354155766107     2.030838741160     0.000000990795     1.007825032230
         H           -1.445078766107    -2.172799258840     0.000001990795     1.007825032230
         H           -4.076260766107    -0.026879258840     0.883291990795     1.007825032230
         H           -3.741276766107    -1.523347258840     0.000041990795     1.007825032230
         H           -4.076240766107    -0.026950258840    -0.883337009205     1.007825032230

  Basis Set: AUG-CC-PVTZ
    Blend: AUG-CC-PVTZ
  Basis Set: (AUG-CC-PVTZ AUX)
    Blend: AUG-CC-PVTZ-JKFIT
	 Reference Energy          =    -401.7702956289895155 [Eh]
	 Singles Energy            =      -0.0000000000000000 [Eh]
	 Same-Spin Energy          =      -0.4459997676555889 [Eh]
	 Opposite-Spin Energy      =      -1.4319766136681331 [Eh]
	 Correlation Energy        =      -1.8779763813237220 [Eh]
	 Total Energy              =    -403.6482720103132351 [Eh]

	 ================> DF-SCS-MP2 Energies <==================
	-----------------------------------------------------------
	 SCS Same-Spin Scale       =       0.3333333333333333 [-]
	 SCS Opposite-Spin Scale   =       1.2000000000000000 [-]
	 SCS Same-Spin Energy      =      -0.1486665892185296 [Eh]
	 SCS Opposite-Spin Energy  =      -1.7183719364017598 [Eh]
	 SCS Correlation Energy    =      -1.8670385256202895 [Eh]
	 SCS Total Energy          =    -403.6373341546097890 [Eh]
	-----------------------------------------------------------

  Dipole Moment: [D]
     X:    -1.3148      Y:     1.4938      Z:    -0.0000     Total:     1.9900

*** Psi4 exiting successfully. Buy a developer a beer!
