                               Psi4 1.4a3.dev225

  ==> Input File <==

--------------------------------------------------------------------------
#psi4
#
memory 32 gb

molecule  {
0 1
  N        0.1871790    -0.9111820    -0.0000020
  C        2.0846610     0.5733200    -0.0000030
  C        2.9631220    -0.4040200    -0.7474220
  C        2.9631210    -0.4040120     0.7474270
  C        0.6178930     0.3663440    -0.0000030
  C       -0.2752490     1.4465330    -0.0000020
  C       -1.6439530     1.1986260     0.0000010
  C       -2.0754099    -0.0272251     0.0000029
  C       -1.1379910    -1.1285870     0.0000010
  C       -3.5774520    -0.4452540     0.0000000
  H        2.4036780     1.6130560    -0.0000090
  H        3.8277670    -0.0076600    -1.2704010
  H        2.4452750    -1.2187140    -1.2419740
  H        2.4452760    -1.2187020     1.2419880
  H        3.8277650    -0.0076460     1.2704030
  H        0.1039660     2.4659580    -0.0000030
  H       -2.3510000     2.0273860     0.0000010
  H       -1.4419230    -2.1762520     0.0000020
  H       -4.0731050    -0.0303320     0.8832920
  H       -3.7381210    -1.5268000     0.0000420
  H       -4.0730850    -0.0304030    -0.8833370
units angstrom
no_reorient  #important for SAPT in psi4, default
symmetry c1  #important for SAPT in psi4, default
}

set PROPERTIES_ORIGIN ["COM"]
properties('MP2/aug-cc-pvtz', properties = ['dipole'])
--------------------------------------------------------------------------

    Molecular point group: c1
  Charge       = 0
  Multiplicity = 1
  Basis Set: AUG-CC-PVTZ
    Blend: AUG-CC-PVTZ
  Basis Set: (AUG-CC-PVTZ AUX)
    Blend: AUG-CC-PVTZ-JKFIT

    Orbital Energies [Eh]
    ---------------------

    Doubly Occupied:

       1A    -15.558660     2A    -11.277077     3A    -11.272892
       4A    -11.238171     5A    -11.236164     6A    -11.231596
       7A    -11.231370     8A    -11.230107     9A    -11.220265
      10A    -11.219573    11A     -1.253486    12A     -1.140486
      13A     -1.103065    14A     -1.034916    15A     -0.947704
      16A     -0.864006    17A     -0.848354    18A     -0.813942
      19A     -0.779136    20A     -0.700991    21A     -0.669528
      22A     -0.639027    23A     -0.624660    24A     -0.601139
      25A     -0.581183    26A     -0.566507    27A     -0.545106
      28A     -0.535881    29A     -0.527184    30A     -0.503978
      31A     -0.499155    32A     -0.431052    33A     -0.426032
      34A     -0.402576    35A     -0.382138    36A     -0.309997

  @DF-RHF Final Energy:  -401.76114973946324

   => Energetics <=

    Nuclear Repulsion Energy =            489.6247590204820881
    One-Electron Energy =               -1513.8776085414874615
    Two-Electron Energy =                 622.4916997815421382
    Total Energy =                       -401.7611497394632352
  Basis Set: (AUG-CC-PVTZ AUX)
    Blend: AUG-CC-PVTZ-RI
    Molecular point group: c1

    Geometry (in Angstrom), charge = 0, multiplicity = 1:

       Center              X                  Y                   Z               Mass
    ------------   -----------------  -----------------  -----------------  -----------------
         N            0.179532992556    -0.920486884898    -0.000001991172    14.003074004430
         C            2.077014992556     0.564015115102    -0.000002991172    12.000000000000
         C            2.955475992556    -0.413324884898    -0.747421991172    12.000000000000
         C            2.955474992556    -0.413316884898     0.747427008828    12.000000000000
         C            0.610246992556     0.357039115102    -0.000002991172    12.000000000000
         C           -0.282895007444     1.437228115102    -0.000001991172    12.000000000000
         C           -1.651599007444     1.189321115102     0.000001008828    12.000000000000
         C           -2.083055907444    -0.036529984898     0.000002908828    12.000000000000
         C           -1.145637007444    -1.137891884898     0.000001008828    12.000000000000
         C           -3.585098007444    -0.454558884898     0.000000008828    12.000000000000
         H            2.396031992556     1.603751115102    -0.000008991172     1.007825032230
         H            3.820120992556    -0.016964884898    -1.270400991172     1.007825032230
         H            2.437628992556    -1.228018884898    -1.241973991172     1.007825032230
         H            2.437629992556    -1.228006884898     1.241988008828     1.007825032230
         H            3.820118992556    -0.016950884898     1.270403008828     1.007825032230
         H            0.096319992556     2.456653115102    -0.000002991172     1.007825032230
         H           -2.358646007444     2.018081115102     0.000001008828     1.007825032230
         H           -1.449569007444    -2.185556884898     0.000002008828     1.007825032230
         H           -4.080751007444    -0.039636884898     0.883292008828     1.007825032230
         H           -3.745767007444    -1.536104884898     0.000042008828     1.007825032230
         H           -4.080731007444    -0.039707884898    -0.883336991172     1.007825032230

  Basis Set: AUG-CC-PVTZ
    Blend: AUG-CC-PVTZ
  Basis Set: (AUG-CC-PVTZ AUX)
    Blend: AUG-CC-PVTZ-JKFIT
	 Reference Energy          =    -401.7611497394632352 [Eh]
	 Singles Energy            =      -0.0000000000000000 [Eh]
	 Same-Spin Energy          =      -0.4455892190378458 [Eh]
	 Opposite-Spin Energy      =      -1.4316612454512021 [Eh]
	 Correlation Energy        =      -1.8772504644890480 [Eh]
	 Total Energy              =    -403.6384002039523011 [Eh]

	 ================> DF-SCS-MP2 Energies <==================
	-----------------------------------------------------------
	 SCS Same-Spin Scale       =       0.3333333333333333 [-]
	 SCS Opposite-Spin Scale   =       1.2000000000000000 [-]
	 SCS Same-Spin Energy      =      -0.1485297396792819 [Eh]
	 SCS Opposite-Spin Energy  =      -1.7179934945414426 [Eh]
	 SCS Correlation Energy    =      -1.8665232342207245 [Eh]
	 SCS Total Energy          =    -403.6276729736839570 [Eh]
	-----------------------------------------------------------

  Dipole Moment: [D]
     X:    -1.2976      Y:     1.3738      Z:    -0.0000     Total:     1.8897

*** Psi4 exiting successfully. Buy a developer a beer!
