                               Psi4 1.4a3.dev225

  ==> Input File <==

--------------------------------------------------------------------------
#psi4
#
memory 32 gb

molecule  {
0 1
  N        0.1871790    -0.9111820    -0.0000020
  C        2.0846610     0.5733200    -0.0000030
  C        2.9631220    -0.4040200    -0.7474220
  C        2.9631210    -0.4040120     0.7474270
  C        0.6178930     0.3663440    -0.0000030
  C       -0.2752490     1.4465330    -0.0000020
  C       -1.6439530     1.1986260     0.0000010
  C       -2.1086100    -0.1215530     0.0000030
  C       -1.1379910    -1.1285870     0.0000010
  C       -3.5774520    -0.4452540     0.0000000
  H        2.4036780     1.6130560    -0.0000090
  H        3.8277670    -0.0076600    -1.2704010
  H        2.4452750    -1.2187140    -1.2419740
  H        2.4452760    -1.2187020     1.2419880
  H        3.8277650    -0.0076460     1.2704030
  H        0.1039660     2.4659580    -0.0000030
  H       -2.3510000     2.0273860     0.0000010
  H       -1.4419230    -2.1762520     0.0000020
  H       -4.0731050    -0.0303320     0.8832920
  H       -3.7381210    -1.5268000     0.0000420
  H       -4.0821414    -0.0228227    -0.8994777
units angstrom
no_reorient  #important for SAPT in psi4, default
symmetry c1  #important for SAPT in psi4, default
}

set PROPERTIES_ORIGIN ["COM"]
properties('MP2/aug-cc-pvtz', properties = ['dipole'])
--------------------------------------------------------------------------

    Molecular point group: c1
  Charge       = 0
  Multiplicity = 1
  Basis Set: AUG-CC-PVTZ
    Blend: AUG-CC-PVTZ
  Basis Set: (AUG-CC-PVTZ AUX)
    Blend: AUG-CC-PVTZ-JKFIT

    Orbital Energies [Eh]
    ---------------------

    Doubly Occupied:

       1A    -15.555780     2A    -11.276234     3A    -11.267876
       4A    -11.251753     5A    -11.239552     6A    -11.233859
       7A    -11.231659     8A    -11.231438     9A    -11.221611
      10A    -11.220918    11A     -1.251272    12A     -1.140901
      13A     -1.091479    14A     -1.042343    15A     -0.949906
      16A     -0.867179    17A     -0.839831    18A     -0.814970
      19A     -0.781291    20A     -0.701052    21A     -0.666886
      22A     -0.639034    23A     -0.626207    24A     -0.600971
      25A     -0.581641    26A     -0.564750    27A     -0.548403
      28A     -0.534870    29A     -0.528195    30A     -0.504102
      31A     -0.498986    32A     -0.429428    33A     -0.427301
      34A     -0.406428    35A     -0.372477    36A     -0.312703

  @DF-RHF Final Energy:  -401.77320944072829

   => Energetics <=

    Nuclear Repulsion Energy =            488.9322306499993260
    One-Electron Energy =               -1512.5043035062340095
    Two-Electron Energy =                 621.7988634155063892
    Total Energy =                       -401.7732094407282375
  Basis Set: (AUG-CC-PVTZ AUX)
    Blend: AUG-CC-PVTZ-RI
    Molecular point group: c1

    Geometry (in Angstrom), charge = 0, multiplicity = 1:

       Center              X                  Y                   Z               Mass
    ------------   -----------------  -----------------  -----------------  -----------------
         N            0.182595063871    -0.912039200100     0.000120226165    14.003074004430
         C            2.080077063871     0.572462799900     0.000119226165    12.000000000000
         C            2.958538063871    -0.404877200100    -0.747299773835    12.000000000000
         C            2.958537063871    -0.404869200100     0.747549226165    12.000000000000
         C            0.613309063871     0.365486799900     0.000119226165    12.000000000000
         C           -0.279832936129     1.445675799900     0.000120226165    12.000000000000
         C           -1.648536936129     1.197768799900     0.000123226165    12.000000000000
         C           -2.113193936129    -0.122410200100     0.000125226165    12.000000000000
         C           -1.142574936129    -1.129444200100     0.000123226165    12.000000000000
         C           -3.582035936129    -0.446111200100     0.000122226165    12.000000000000
         H            2.399094063871     1.612198799900     0.000113226165     1.007825032230
         H            3.823183063871    -0.008517200100    -1.270278773835     1.007825032230
         H            2.440691063871    -1.219571200100    -1.241851773835     1.007825032230
         H            2.440692063871    -1.219559200100     1.242110226165     1.007825032230
         H            3.823181063871    -0.008503200100     1.270525226165     1.007825032230
         H            0.099382063871     2.465100799900     0.000119226165     1.007825032230
         H           -2.355583936129     2.026528799900     0.000123226165     1.007825032230
         H           -1.446506936129    -2.177109200100     0.000124226165     1.007825032230
         H           -4.077688936129    -0.031189200100     0.883414226165     1.007825032230
         H           -3.742704936129    -1.527657200100     0.000164226165     1.007825032230
         H           -4.086725336129    -0.023679900100    -0.899355473835     1.007825032230

  Basis Set: AUG-CC-PVTZ
    Blend: AUG-CC-PVTZ
  Basis Set: (AUG-CC-PVTZ AUX)
    Blend: AUG-CC-PVTZ-JKFIT
	 Reference Energy          =    -401.7732094407282943 [Eh]
	 Singles Energy            =      -0.0000000000000000 [Eh]
	 Same-Spin Energy          =      -0.4459446518477046 [Eh]
	 Opposite-Spin Energy      =      -1.4317758406658643 [Eh]
	 Correlation Energy        =      -1.8777204925135689 [Eh]
	 Total Energy              =    -403.6509299332418550 [Eh]

	 ================> DF-SCS-MP2 Energies <==================
	-----------------------------------------------------------
	 SCS Same-Spin Scale       =       0.3333333333333333 [-]
	 SCS Opposite-Spin Scale   =       1.2000000000000000 [-]
	 SCS Same-Spin Energy      =      -0.1486482172825682 [Eh]
	 SCS Opposite-Spin Energy  =      -1.7181310087990371 [Eh]
	 SCS Correlation Energy    =      -1.8667792260816054 [Eh]
	 SCS Total Energy          =    -403.6399886668099271 [Eh]
	-----------------------------------------------------------

  Dipole Moment: [D]
     X:    -1.3028      Y:     1.4537      Z:     0.0059     Total:     1.9521

*** Psi4 exiting successfully. Buy a developer a beer!
