                               Psi4 1.4a3.dev225

  ==> Input File <==

--------------------------------------------------------------------------
#psi4
#
memory 32 gb

molecule  {
0 1
  N        0.1871790    -0.9111820    -0.0000020
  C        2.0846610     0.5733200    -0.0000030
  C        2.9631220    -0.4040200    -0.7474220
  C        2.9631210    -0.4040120     0.7474270
  C        0.6178930     0.3663440    -0.0000030
  C       -0.2752490     1.4465330    -0.0000020
  C       -1.6209835     1.1903155     0.0000011
  C       -2.1086100    -0.1215530     0.0000030
  C       -1.1379910    -1.1285870     0.0000010
  C       -3.5774520    -0.4452540     0.0000000
  H        2.4036780     1.6130560    -0.0000090
  H        3.8277670    -0.0076600    -1.2704010
  H        2.4452750    -1.2187140    -1.2419740
  H        2.4452760    -1.2187020     1.2419880
  H        3.8277650    -0.0076460     1.2704030
  H        0.1039660     2.4659580    -0.0000030
  H       -2.3510000     2.0273860     0.0000010
  H       -1.4419230    -2.1762520     0.0000020
  H       -4.0731050    -0.0303320     0.8832920
  H       -3.7381210    -1.5268000     0.0000420
  H       -4.0730850    -0.0304030    -0.8833370
units angstrom
no_reorient  #important for SAPT in psi4, default
symmetry c1  #important for SAPT in psi4, default
}

set PROPERTIES_ORIGIN ["COM"]
properties('MP2/aug-cc-pvtz', properties = ['dipole'])
--------------------------------------------------------------------------

    Molecular point group: c1
  Charge       = 0
  Multiplicity = 1
  Basis Set: AUG-CC-PVTZ
    Blend: AUG-CC-PVTZ
  Basis Set: (AUG-CC-PVTZ AUX)
    Blend: AUG-CC-PVTZ-JKFIT

    Orbital Energies [Eh]
    ---------------------

    Doubly Occupied:

       1A    -15.555105     2A    -11.276595     3A    -11.267073
       4A    -11.250898     5A    -11.238794     6A    -11.231680
       7A    -11.231560     8A    -11.229714     9A    -11.221824
      10A    -11.221131    11A     -1.251736    12A     -1.141115
      13A     -1.092408    14A     -1.044744    15A     -0.951632
      16A     -0.866365    17A     -0.840787    18A     -0.815133
      19A     -0.780091    20A     -0.700692    21A     -0.668397
      22A     -0.639084    23A     -0.626215    24A     -0.600381
      25A     -0.583889    26A     -0.560138    27A     -0.549472
      28A     -0.536134    29A     -0.528297    30A     -0.504539
      31A     -0.500596    32A     -0.429693    33A     -0.427254
      34A     -0.405517    35A     -0.374967    36A     -0.312587

  @DF-RHF Final Energy:  -401.77326497894080

   => Energetics <=

    Nuclear Repulsion Energy =            489.4051568970846233
    One-Electron Energy =               -1513.4443718773604814
    Two-Electron Energy =                 622.2659500013349998
    Total Energy =                       -401.7732649789408015
  Basis Set: (AUG-CC-PVTZ AUX)
    Blend: AUG-CC-PVTZ-RI
    Molecular point group: c1

    Geometry (in Angstrom), charge = 0, multiplicity = 1:

       Center              X                  Y                   Z               Mass
    ------------   -----------------  -----------------  -----------------  -----------------
         N            0.180455435900    -0.911232480569    -0.000002009205    14.003074004430
         C            2.077937435900     0.573269519431    -0.000003009205    12.000000000000
         C            2.956398435900    -0.404070480569    -0.747422009205    12.000000000000
         C            2.956397435900    -0.404062480569     0.747426990795    12.000000000000
         C            0.611169435900     0.366293519431    -0.000003009205    12.000000000000
         C           -0.281972564100     1.446482519431    -0.000002009205    12.000000000000
         C           -1.627707064100     1.190265019431     0.000001090795    12.000000000000
         C           -2.115333564100    -0.121603480569     0.000002990795    12.000000000000
         C           -1.144714564100    -1.128637480569     0.000000990795    12.000000000000
         C           -3.584175564100    -0.445304480569    -0.000000009205    12.000000000000
         H            2.396954435900     1.613005519431    -0.000009009205     1.007825032230
         H            3.821043435900    -0.007710480569    -1.270401009205     1.007825032230
         H            2.438551435900    -1.218764480569    -1.241974009205     1.007825032230
         H            2.438552435900    -1.218752480569     1.241987990795     1.007825032230
         H            3.821041435900    -0.007696480569     1.270402990795     1.007825032230
         H            0.097242435900     2.465907519431    -0.000003009205     1.007825032230
         H           -2.357723564100     2.027335519431     0.000000990795     1.007825032230
         H           -1.448646564100    -2.176302480569     0.000001990795     1.007825032230
         H           -4.079828564100    -0.030382480569     0.883291990795     1.007825032230
         H           -3.744844564100    -1.526850480569     0.000041990795     1.007825032230
         H           -4.079808564100    -0.030453480569    -0.883337009205     1.007825032230

  Basis Set: AUG-CC-PVTZ
    Blend: AUG-CC-PVTZ
  Basis Set: (AUG-CC-PVTZ AUX)
    Blend: AUG-CC-PVTZ-JKFIT
	 Reference Energy          =    -401.7732649789408015 [Eh]
	 Singles Energy            =      -0.0000000000000000 [Eh]
	 Same-Spin Energy          =      -0.4459146296537170 [Eh]
	 Opposite-Spin Energy      =      -1.4314894041672792 [Eh]
	 Correlation Energy        =      -1.8774040338209961 [Eh]
	 Total Energy              =    -403.6506690127617958 [Eh]

	 ================> DF-SCS-MP2 Energies <==================
	-----------------------------------------------------------
	 SCS Same-Spin Scale       =       0.3333333333333333 [-]
	 SCS Opposite-Spin Scale   =       1.2000000000000000 [-]
	 SCS Same-Spin Energy      =      -0.1486382098845723 [Eh]
	 SCS Opposite-Spin Energy  =      -1.7177872850007350 [Eh]
	 SCS Correlation Energy    =      -1.8664254948853072 [Eh]
	 SCS Total Energy          =    -403.6396904738261355 [Eh]
	-----------------------------------------------------------

  Dipole Moment: [D]
     X:    -1.3021      Y:     1.4454      Z:    -0.0000     Total:     1.9454

*** Psi4 exiting successfully. Buy a developer a beer!
