                               Psi4 1.4a3.dev225

  ==> Input File <==

--------------------------------------------------------------------------
#psi4
#
memory 32 gb

molecule  {
0 1
  N        0.1871790    -0.9111820    -0.0000020
  C        2.0846610     0.5733200    -0.0000030
  C        2.9631220    -0.4040200    -0.7474220
  C        2.9631210    -0.4040120     0.7474270
  C        0.6178930     0.3663440    -0.0000030
  C       -0.2752490     1.4465330    -0.0000020
  C       -1.6636328     1.1950615     0.0000010
  C       -2.1086100    -0.1215530     0.0000030
  C       -1.1379910    -1.1285870     0.0000010
  C       -3.5774520    -0.4452540     0.0000000
  H        2.4036780     1.6130560    -0.0000090
  H        3.8277670    -0.0076600    -1.2704010
  H        2.4452750    -1.2187140    -1.2419740
  H        2.4452760    -1.2187020     1.2419880
  H        3.8277650    -0.0076460     1.2704030
  H        0.1039660     2.4659580    -0.0000030
  H       -2.3510000     2.0273860     0.0000010
  H       -1.4419230    -2.1762520     0.0000020
  H       -4.0731050    -0.0303320     0.8832920
  H       -3.7381210    -1.5268000     0.0000420
  H       -4.0730850    -0.0304030    -0.8833370
units angstrom
no_reorient  #important for SAPT in psi4, default
symmetry c1  #important for SAPT in psi4, default
}

set PROPERTIES_ORIGIN ["COM"]
properties('MP2/aug-cc-pvtz', properties = ['dipole'])
--------------------------------------------------------------------------

    Molecular point group: c1
  Charge       = 0
  Multiplicity = 1
  Basis Set: AUG-CC-PVTZ
    Blend: AUG-CC-PVTZ
  Basis Set: (AUG-CC-PVTZ AUX)
    Blend: AUG-CC-PVTZ-JKFIT

    Orbital Energies [Eh]
    ---------------------

    Doubly Occupied:

       1A    -15.556284     2A    -11.275541     3A    -11.268798
       4A    -11.251999     5A    -11.239019     6A    -11.235423
       7A    -11.231120     8A    -11.228982     9A    -11.221275
      10A    -11.220582    11A     -1.251105    12A     -1.140738
      13A     -1.092148    14A     -1.040252    15A     -0.950622
      16A     -0.868108    17A     -0.840355    18A     -0.814695
      19A     -0.781717    20A     -0.701415    21A     -0.665618
      22A     -0.639411    23A     -0.626280    24A     -0.601077
      25A     -0.583953    26A     -0.566276    27A     -0.549480
      28A     -0.534957    29A     -0.528399    30A     -0.503829
      31A     -0.497728    32A     -0.429512    33A     -0.427312
      34A     -0.406755    35A     -0.370636    36A     -0.313216

  @DF-RHF Final Energy:  -401.77300810838449

   => Energetics <=

    Nuclear Repulsion Energy =            488.8536646723665626
    One-Electron Energy =               -1512.3441071739625841
    Two-Electron Energy =                 621.7174343932115335
    Total Energy =                       -401.7730081083844880
  Basis Set: (AUG-CC-PVTZ AUX)
    Blend: AUG-CC-PVTZ-RI
    Molecular point group: c1

    Geometry (in Angstrom), charge = 0, multiplicity = 1:

       Center              X                  Y                   Z               Mass
    ------------   -----------------  -----------------  -----------------  -----------------
         N            0.184300915434    -0.911660404260    -0.000002000189    14.003074004430
         C            2.081782915434     0.572841595740    -0.000003000189    12.000000000000
         C            2.960243915434    -0.404498404260    -0.747422000189    12.000000000000
         C            2.960242915434    -0.404490404260     0.747426999811    12.000000000000
         C            0.615014915434     0.365865595740    -0.000003000189    12.000000000000
         C           -0.278127084566     1.446054595740    -0.000002000189    12.000000000000
         C           -1.666510884566     1.194583095740     0.000000999811    12.000000000000
         C           -2.111488084566    -0.122031404260     0.000002999811    12.000000000000
         C           -1.140869084566    -1.129065404260     0.000000999811    12.000000000000
         C           -3.580330084566    -0.445732404260    -0.000000000189    12.000000000000
         H            2.400799915434     1.612577595740    -0.000009000189     1.007825032230
         H            3.824888915434    -0.008138404260    -1.270401000189     1.007825032230
         H            2.442396915434    -1.219192404260    -1.241974000189     1.007825032230
         H            2.442397915434    -1.219180404260     1.241987999811     1.007825032230
         H            3.824886915434    -0.008124404260     1.270402999811     1.007825032230
         H            0.101087915434     2.465479595740    -0.000003000189     1.007825032230
         H           -2.353878084566     2.026907595740     0.000000999811     1.007825032230
         H           -1.444801084566    -2.176730404260     0.000001999811     1.007825032230
         H           -4.075983084566    -0.030810404260     0.883291999811     1.007825032230
         H           -3.740999084566    -1.527278404260     0.000041999811     1.007825032230
         H           -4.075963084566    -0.030881404260    -0.883337000189     1.007825032230

  Basis Set: AUG-CC-PVTZ
    Blend: AUG-CC-PVTZ
  Basis Set: (AUG-CC-PVTZ AUX)
    Blend: AUG-CC-PVTZ-JKFIT
	 Reference Energy          =    -401.7730081083844880 [Eh]
	 Singles Energy            =      -0.0000000000000000 [Eh]
	 Same-Spin Energy          =      -0.4459846489446644 [Eh]
	 Opposite-Spin Energy      =      -1.4317932551555839 [Eh]
	 Correlation Energy        =      -1.8777779041002483 [Eh]
	 Total Energy              =    -403.6507860124847298 [Eh]

	 ================> DF-SCS-MP2 Energies <==================
	-----------------------------------------------------------
	 SCS Same-Spin Scale       =       0.3333333333333333 [-]
	 SCS Opposite-Spin Scale   =       1.2000000000000000 [-]
	 SCS Same-Spin Energy      =      -0.1486615496482215 [Eh]
	 SCS Opposite-Spin Energy  =      -1.7181519061867006 [Eh]
	 SCS Correlation Energy    =      -1.8668134558349221 [Eh]
	 SCS Total Energy          =    -403.6398215642194032 [Eh]
	-----------------------------------------------------------

  Dipole Moment: [D]
     X:    -1.3180      Y:     1.4567      Z:    -0.0000     Total:     1.9644

*** Psi4 exiting successfully. Buy a developer a beer!
