                               Psi4 1.4a3.dev225

  ==> Input File <==

--------------------------------------------------------------------------
#psi4
#
memory 32 gb

molecule  {
0 1
  N        0.1871790    -0.9111820    -0.0000020
  C        2.0846610     0.5733200    -0.0000030
  C        2.9631220    -0.4040200    -0.7474220
  C        2.9631210    -0.4040120     0.7474270
  C        0.6178930     0.3663440    -0.0000030
  C       -0.2752490     1.4465330    -0.0000020
  C       -1.6439530     1.1986260     0.0000010
  C       -2.1086100    -0.1215530     0.0000030
  C       -1.1379910    -1.1285870     0.0000010
  C       -3.5774520    -0.4452540     0.0000000
  H        2.4036780     1.6130560    -0.0000090
  H        3.8277670    -0.0076600    -1.2704010
  H        2.4452750    -1.2187140    -1.2419740
  H        2.4452760    -1.2187020     1.2419880
  H        3.8277650    -0.0076460     1.2704030
  H        0.1039660     2.4659580    -0.0000030
  H       -2.3510000     2.0273860     0.0000010
  H       -1.4419230    -2.1762520     0.0000020
  H       -4.0731050    -0.0303320     0.8832920
  H       -3.7381210    -1.5268000     0.0000420
  H       -4.1636489     0.0454001    -1.0447436
units angstrom
no_reorient  #important for SAPT in psi4, default
symmetry c1  #important for SAPT in psi4, default
}

set PROPERTIES_ORIGIN ["COM"]
properties('MP2/aug-cc-pvtz', properties = ['dipole'])
--------------------------------------------------------------------------

    Molecular point group: c1
  Charge       = 0
  Multiplicity = 1
  Basis Set: AUG-CC-PVTZ
    Blend: AUG-CC-PVTZ
  Basis Set: (AUG-CC-PVTZ AUX)
    Blend: AUG-CC-PVTZ-JKFIT

    Orbital Energies [Eh]
    ---------------------

    Doubly Occupied:

       1A    -15.556710     2A    -11.277517     3A    -11.269517
       4A    -11.252776     5A    -11.251894     6A    -11.241218
       7A    -11.234631     8A    -11.232176     9A    -11.222297
      10A    -11.221603    11A     -1.252364    12A     -1.141633
      13A     -1.091429    14A     -1.042360    15A     -0.943406
      16A     -0.866509    17A     -0.838557    18A     -0.815614
      19A     -0.781610    20A     -0.701461    21A     -0.667981
      22A     -0.639068    23A     -0.627202    24A     -0.601925
      25A     -0.572496    26A     -0.565855    27A     -0.543157
      28A     -0.530233    29A     -0.518710    30A     -0.502539
      31A     -0.499968    32A     -0.429179    33A     -0.427795
      34A     -0.407224    35A     -0.372943    36A     -0.312881

  @DF-RHF Final Energy:  -401.75400671417577

   => Energetics <=

    Nuclear Repulsion Energy =            488.2414255578424900
    One-Electron Energy =               -1511.0819879790449249
    Two-Electron Energy =                 621.0865557070267187
    Total Energy =                       -401.7540067141757163
  Basis Set: (AUG-CC-PVTZ AUX)
    Blend: AUG-CC-PVTZ-RI
    Molecular point group: c1

    Geometry (in Angstrom), charge = 0, multiplicity = 1:

       Center              X                  Y                   Z               Mass
    ------------   -----------------  -----------------  -----------------  -----------------
         N            0.183212283977    -0.912555821071     0.001220260323    14.003074004430
         C            2.080694283977     0.571946178929     0.001219260323    12.000000000000
         C            2.959155283977    -0.405393821071    -0.746199739677    12.000000000000
         C            2.959154283977    -0.405385821071     0.748649260323    12.000000000000
         C            0.613926283977     0.364970178929     0.001219260323    12.000000000000
         C           -0.279215716023     1.445159178929     0.001220260323    12.000000000000
         C           -1.647919716023     1.197252178929     0.001223260323    12.000000000000
         C           -2.112576716023    -0.122926821071     0.001225260323    12.000000000000
         C           -1.141957716023    -1.129960821071     0.001223260323    12.000000000000
         C           -3.581418716023    -0.446627821071     0.001222260323    12.000000000000
         H            2.399711283977     1.611682178929     0.001213260323     1.007825032230
         H            3.823800283977    -0.009033821071    -1.269178739677     1.007825032230
         H            2.441308283977    -1.220087821071    -1.240751739677     1.007825032230
         H            2.441309283977    -1.220075821071     1.243210260323     1.007825032230
         H            3.823798283977    -0.009019821071     1.271625260323     1.007825032230
         H            0.099999283977     2.464584178929     0.001219260323     1.007825032230
         H           -2.354966716023     2.026012178929     0.001223260323     1.007825032230
         H           -1.445889716023    -2.177625821071     0.001224260323     1.007825032230
         H           -4.077071716023    -0.031705821071     0.884514260323     1.007825032230
         H           -3.742087716023    -1.528173821071     0.001264260323     1.007825032230
         H           -4.167615616023     0.044026278929    -1.043521339677     1.007825032230

  Basis Set: AUG-CC-PVTZ
    Blend: AUG-CC-PVTZ
  Basis Set: (AUG-CC-PVTZ AUX)
    Blend: AUG-CC-PVTZ-JKFIT
	 Reference Energy          =    -401.7540067141757731 [Eh]
	 Singles Energy            =      -0.0000000000000000 [Eh]
	 Same-Spin Energy          =      -0.4458732659860613 [Eh]
	 Opposite-Spin Energy      =      -1.4330684176981603 [Eh]
	 Correlation Energy        =      -1.8789416836842217 [Eh]
	 Total Energy              =    -403.6329483978599910 [Eh]

	 ================> DF-SCS-MP2 Energies <==================
	-----------------------------------------------------------
	 SCS Same-Spin Scale       =       0.3333333333333333 [-]
	 SCS Opposite-Spin Scale   =       1.2000000000000000 [-]
	 SCS Same-Spin Energy      =      -0.1486244219953538 [Eh]
	 SCS Opposite-Spin Energy  =      -1.7196821012377923 [Eh]
	 SCS Correlation Energy    =      -1.8683065232331462 [Eh]
	 SCS Total Energy          =    -403.6223132374089460 [Eh]
	-----------------------------------------------------------

  Dipole Moment: [D]
     X:    -1.1757      Y:     1.4343      Z:     0.0786     Total:     1.8563

*** Psi4 exiting successfully. Buy a developer a beer!
