                               Psi4 1.4a3.dev225

  ==> Input File <==

--------------------------------------------------------------------------
#psi4
#
memory 32 gb

molecule  {
0 1
  N        0.1871790    -0.9111820    -0.0000020
  C        2.0846610     0.5733200    -0.0000030
  C        2.9631220    -0.4040200    -0.7474220
  C        2.9631210    -0.4040120     0.7474270
  C        0.6178930     0.3663440    -0.0000030
  C       -0.2752490     1.4465330    -0.0000020
  C       -1.6439530     1.1986260     0.0000010
  C       -2.1086100    -0.1215530     0.0000030
  C       -1.1379910    -1.1285870     0.0000010
  C       -3.5774520    -0.4452540     0.0000000
  H        2.4036780     1.6130560    -0.0000090
  H        3.8277670    -0.0076600    -1.2704010
  H        2.4452750    -1.2187140    -1.2419740
  H        2.5407618    -1.0684808     1.1507956
  H        3.8277650    -0.0076460     1.2704030
  H        0.1039660     2.4659580    -0.0000030
  H       -2.3510000     2.0273860     0.0000010
  H       -1.4419230    -2.1762520     0.0000020
  H       -4.0731050    -0.0303320     0.8832920
  H       -3.7381210    -1.5268000     0.0000420
  H       -4.0730850    -0.0304030    -0.8833370
units angstrom
no_reorient  #important for SAPT in psi4, default
symmetry c1  #important for SAPT in psi4, default
}

set PROPERTIES_ORIGIN ["COM"]
properties('MP2/aug-cc-pvtz', properties = ['dipole'])
--------------------------------------------------------------------------

    Molecular point group: c1
  Charge       = 0
  Multiplicity = 1
  Basis Set: AUG-CC-PVTZ
    Blend: AUG-CC-PVTZ
  Basis Set: (AUG-CC-PVTZ AUX)
    Blend: AUG-CC-PVTZ-JKFIT

    Orbital Energies [Eh]
    ---------------------

    Doubly Occupied:

       1A    -15.555752     2A    -11.276136     3A    -11.267790
       4A    -11.251732     5A    -11.239362     6A    -11.233691
       7A    -11.230622     8A    -11.229244     9A    -11.220482
      10A    -11.198847    11A     -1.251334    12A     -1.144787
      13A     -1.091760    14A     -1.042999    15A     -0.951800
      16A     -0.870358    17A     -0.845884    18A     -0.835670
      19A     -0.783656    20A     -0.706624    21A     -0.670476
      22A     -0.641482    23A     -0.626198    24A     -0.608722
      25A     -0.583697    26A     -0.564699    27A     -0.550415
      28A     -0.537704    29A     -0.532662    30A     -0.515527
      31A     -0.498968    32A     -0.430879    33A     -0.427373
      34A     -0.406043    35A     -0.372543    36A     -0.312501

  @DF-RHF Final Energy:  -401.73831920280952

   => Energetics <=

    Nuclear Repulsion Energy =            489.9501940768623172
    One-Electron Energy =               -1514.3601854916273624
    Two-Electron Energy =                 622.6716722119555243
    Total Energy =                       -401.7383192028095209
  Basis Set: (AUG-CC-PVTZ AUX)
    Blend: AUG-CC-PVTZ-RI
    Molecular point group: c1

    Geometry (in Angstrom), charge = 0, multiplicity = 1:

       Center              X                  Y                   Z               Mass
    ------------   -----------------  -----------------  -----------------  -----------------
         N            0.181803412211    -0.913119356298     0.000688559364    14.003074004430
         C            2.079285412211     0.571382643702     0.000687559364    12.000000000000
         C            2.957746412211    -0.405957356298    -0.746731440636    12.000000000000
         C            2.957745412211    -0.405949356298     0.748117559364    12.000000000000
         C            0.612517412211     0.364406643702     0.000687559364    12.000000000000
         C           -0.280624587789     1.444595643702     0.000688559364    12.000000000000
         C           -1.649328587789     1.196688643702     0.000691559364    12.000000000000
         C           -2.113985587789    -0.123490356298     0.000693559364    12.000000000000
         C           -1.143366587789    -1.130524356298     0.000691559364    12.000000000000
         C           -3.582827587789    -0.447191356298     0.000690559364    12.000000000000
         H            2.398302412211     1.611118643702     0.000681559364     1.007825032230
         H            3.822391412211    -0.009597356298    -1.269710440636     1.007825032230
         H            2.439899412211    -1.220651356298    -1.241283440636     1.007825032230
         H            2.535386212211    -1.070418156298     1.151486159364     1.007825032230
         H            3.822389412211    -0.009583356298     1.271093559364     1.007825032230
         H            0.098590412211     2.464020643702     0.000687559364     1.007825032230
         H           -2.356375587789     2.025448643702     0.000691559364     1.007825032230
         H           -1.447298587789    -2.178189356298     0.000692559364     1.007825032230
         H           -4.078480587789    -0.032269356298     0.883982559364     1.007825032230
         H           -3.743496587789    -1.528737356298     0.000732559364     1.007825032230
         H           -4.078460587789    -0.032340356298    -0.882646440636     1.007825032230

  Basis Set: AUG-CC-PVTZ
    Blend: AUG-CC-PVTZ
  Basis Set: (AUG-CC-PVTZ AUX)
    Blend: AUG-CC-PVTZ-JKFIT
	 Reference Energy          =    -401.7383192028095209 [Eh]
	 Singles Energy            =      -0.0000000000000000 [Eh]
	 Same-Spin Energy          =      -0.4457438211342304 [Eh]
	 Opposite-Spin Energy      =      -1.4310661417686656 [Eh]
	 Correlation Energy        =      -1.8768099629028960 [Eh]
	 Total Energy              =    -403.6151291657124034 [Eh]

	 ================> DF-SCS-MP2 Energies <==================
	-----------------------------------------------------------
	 SCS Same-Spin Scale       =       0.3333333333333333 [-]
	 SCS Opposite-Spin Scale   =       1.2000000000000000 [-]
	 SCS Same-Spin Energy      =      -0.1485812737114101 [Eh]
	 SCS Opposite-Spin Energy  =      -1.7172793701223987 [Eh]
	 SCS Correlation Energy    =      -1.8658606438338088 [Eh]
	 SCS Total Energy          =    -403.6041798466433193 [Eh]
	-----------------------------------------------------------

  Dipole Moment: [D]
     X:    -1.2979      Y:     1.4544      Z:     0.0238     Total:     1.9495

*** Psi4 exiting successfully. Buy a developer a beer!
