                               Psi4 1.4a3.dev225

  ==> Input File <==

--------------------------------------------------------------------------
#psi4
#
memory 32 gb

molecule  {
0 1
  N        0.1871790    -0.9111820    -0.0000020
  C        2.0846610     0.5733200    -0.0000030
  C        2.9631220    -0.4040200    -0.7474220
  C        2.9631210    -0.4040120     0.7474270
  C        0.6178930     0.3663440    -0.0000030
  C       -0.2752490     1.4465330    -0.0000020
  C       -1.6439530     1.1986260     0.0000010
  C       -2.1086100    -0.1215530     0.0000030
  C       -1.1379910    -1.1285870     0.0000010
  C       -3.3821386    -0.4022112     0.0000004
  H        2.4036780     1.6130560    -0.0000090
  H        3.8277670    -0.0076600    -1.2704010
  H        2.4452750    -1.2187140    -1.2419740
  H        2.4452760    -1.2187020     1.2419880
  H        3.8277650    -0.0076460     1.2704030
  H        0.1039660     2.4659580    -0.0000030
  H       -2.3510000     2.0273860     0.0000010
  H       -1.4419230    -2.1762520     0.0000020
  H       -4.0731050    -0.0303320     0.8832920
  H       -3.7381210    -1.5268000     0.0000420
  H       -4.0730850    -0.0304030    -0.8833370
units angstrom
no_reorient  #important for SAPT in psi4, default
symmetry c1  #important for SAPT in psi4, default
}

set PROPERTIES_ORIGIN ["COM"]
properties('MP2/aug-cc-pvtz', properties = ['dipole'])
--------------------------------------------------------------------------

    Molecular point group: c1
  Charge       = 0
  Multiplicity = 1
  Basis Set: AUG-CC-PVTZ
    Blend: AUG-CC-PVTZ
  Basis Set: (AUG-CC-PVTZ AUX)
    Blend: AUG-CC-PVTZ-JKFIT

    Orbital Energies [Eh]
    ---------------------

    Doubly Occupied:

       1A    -15.556974     2A    -11.278109     3A    -11.269309
       4A    -11.253160     5A    -11.239307     6A    -11.235418
       7A    -11.232570     8A    -11.227454     9A    -11.222626
      10A    -11.221933    11A     -1.254080    12A     -1.146040
      13A     -1.116017    14A     -1.052291    15A     -0.952079
      16A     -0.869413    17A     -0.834171    18A     -0.815919
      19A     -0.782909    20A     -0.703775    21A     -0.677492
      22A     -0.655081    23A     -0.636165    24A     -0.606108
      25A     -0.576899    26A     -0.575310    27A     -0.553818
      28A     -0.525318    29A     -0.508829    30A     -0.501599
      31A     -0.491649    32A     -0.427293    33A     -0.425852
      34A     -0.407424    35A     -0.372315    36A     -0.307057

  @DF-RHF Final Energy:  -401.72108699637255

   => Energetics <=

    Nuclear Repulsion Energy =            492.7182030221541140
    One-Electron Energy =               -1519.8550487536178935
    Two-Electron Energy =                 625.4157587350913445
    Total Energy =                       -401.7210869963724917
  Basis Set: (AUG-CC-PVTZ AUX)
    Blend: AUG-CC-PVTZ-RI
    Molecular point group: c1

    Geometry (in Angstrom), charge = 0, multiplicity = 1:

       Center              X                  Y                   Z               Mass
    ------------   -----------------  -----------------  -----------------  -----------------
         N            0.164916026339    -0.915862757365    -0.000002036255    14.003074004430
         C            2.062398026339     0.568639242635    -0.000003036255    12.000000000000
         C            2.940859026339    -0.408700757365    -0.747422036255    12.000000000000
         C            2.940858026339    -0.408692757365     0.747426963745    12.000000000000
         C            0.595630026339     0.361663242635    -0.000003036255    12.000000000000
         C           -0.297511973661     1.441852242635    -0.000002036255    12.000000000000
         C           -1.666215973661     1.193945242635     0.000000963745    12.000000000000
         C           -2.130872973661    -0.126233757365     0.000002963745    12.000000000000
         C           -1.160253973661    -1.133267757365     0.000000963745    12.000000000000
         C           -3.404401573661    -0.406891957365     0.000000363745    12.000000000000
         H            2.381415026339     1.608375242635    -0.000009036255     1.007825032230
         H            3.805504026339    -0.012340757365    -1.270401036255     1.007825032230
         H            2.423012026339    -1.223394757365    -1.241974036255     1.007825032230
         H            2.423013026339    -1.223382757365     1.241987963745     1.007825032230
         H            3.805502026339    -0.012326757365     1.270402963745     1.007825032230
         H            0.081703026339     2.461277242635    -0.000003036255     1.007825032230
         H           -2.373262973661     2.022705242635     0.000000963745     1.007825032230
         H           -1.464185973661    -2.180932757365     0.000001963745     1.007825032230
         H           -4.095367973661    -0.035012757365     0.883291963745     1.007825032230
         H           -3.760383973661    -1.531480757365     0.000041963745     1.007825032230
         H           -4.095347973661    -0.035083757365    -0.883337036255     1.007825032230

  Basis Set: AUG-CC-PVTZ
    Blend: AUG-CC-PVTZ
  Basis Set: (AUG-CC-PVTZ AUX)
    Blend: AUG-CC-PVTZ-JKFIT
	 Reference Energy          =    -401.7210869963725486 [Eh]
	 Singles Energy            =      -0.0000000000000000 [Eh]
	 Same-Spin Energy          =      -0.4494743291763819 [Eh]
	 Opposite-Spin Energy      =      -1.4362209664683949 [Eh]
	 Correlation Energy        =      -1.8856952956447768 [Eh]
	 Total Energy              =    -403.6067822920173285 [Eh]

	 ================> DF-SCS-MP2 Energies <==================
	-----------------------------------------------------------
	 SCS Same-Spin Scale       =       0.3333333333333333 [-]
	 SCS Opposite-Spin Scale   =       1.2000000000000000 [-]
	 SCS Same-Spin Energy      =      -0.1498247763921273 [Eh]
	 SCS Opposite-Spin Energy  =      -1.7234651597620738 [Eh]
	 SCS Correlation Energy    =      -1.8732899361542010 [Eh]
	 SCS Total Energy          =    -403.5943769325267567 [Eh]
	-----------------------------------------------------------

  Dipole Moment: [D]
     X:    -1.2460      Y:     1.4779      Z:    -0.0000     Total:     1.9330

*** Psi4 exiting successfully. Buy a developer a beer!
