                               Psi4 1.4a3.dev225

  ==> Input File <==

--------------------------------------------------------------------------
#psi4
#
memory 32 gb

molecule  {
0 1
  N        0.1871790    -0.9111820    -0.0000020
  C        2.0846610     0.5733200    -0.0000030
  C        2.9631220    -0.4040200    -0.7474220
  C        2.9631210    -0.4040120     0.7474270
  C        0.6242826     0.3852959    -0.0000030
  C       -0.2752490     1.4465330    -0.0000020
  C       -1.6439530     1.1986260     0.0000010
  C       -2.1086100    -0.1215530     0.0000030
  C       -1.1379910    -1.1285870     0.0000010
  C       -3.5774520    -0.4452540     0.0000000
  H        2.4036780     1.6130560    -0.0000090
  H        3.8277670    -0.0076600    -1.2704010
  H        2.4452750    -1.2187140    -1.2419740
  H        2.4452760    -1.2187020     1.2419880
  H        3.8277650    -0.0076460     1.2704030
  H        0.1039660     2.4659580    -0.0000030
  H       -2.3510000     2.0273860     0.0000010
  H       -1.4419230    -2.1762520     0.0000020
  H       -4.0731050    -0.0303320     0.8832920
  H       -3.7381210    -1.5268000     0.0000420
  H       -4.0730850    -0.0304030    -0.8833370
units angstrom
no_reorient  #important for SAPT in psi4, default
symmetry c1  #important for SAPT in psi4, default
}

set PROPERTIES_ORIGIN ["COM"]
properties('MP2/aug-cc-pvtz', properties = ['dipole'])
--------------------------------------------------------------------------

    Molecular point group: c1
  Charge       = 0
  Multiplicity = 1
  Basis Set: AUG-CC-PVTZ
    Blend: AUG-CC-PVTZ
  Basis Set: (AUG-CC-PVTZ AUX)
    Blend: AUG-CC-PVTZ-JKFIT

    Orbital Energies [Eh]
    ---------------------

    Doubly Occupied:

       1A    -15.556710     2A    -11.275988     3A    -11.267827
       4A    -11.251775     5A    -11.239366     6A    -11.232686
       7A    -11.231398     8A    -11.229232     9A    -11.222024
      10A    -11.221332    11A     -1.246478    12A     -1.141413
      13A     -1.090157    14A     -1.044124    15A     -0.951280
      16A     -0.867411    17A     -0.840331    18A     -0.815244
      19A     -0.781484    20A     -0.700634    21A     -0.667247
      22A     -0.637339    23A     -0.625934    24A     -0.602419
      25A     -0.583488    26A     -0.564339    27A     -0.549467
      28A     -0.534057    29A     -0.527928    30A     -0.504192
      31A     -0.498258    32A     -0.430287    33A     -0.427287
      34A     -0.407222    35A     -0.371501    36A     -0.312458

  @DF-RHF Final Energy:  -401.77234153204461

   => Energetics <=

    Nuclear Repulsion Energy =            488.8727866283146568
    One-Electron Energy =               -1512.3896260054100367
    Two-Electron Energy =                 621.7444978450507733
    Total Energy =                       -401.7723415320446065
  Basis Set: (AUG-CC-PVTZ AUX)
    Blend: AUG-CC-PVTZ-RI
    Molecular point group: c1

    Geometry (in Angstrom), charge = 0, multiplicity = 1:

       Center              X                  Y                   Z               Mass
    ------------   -----------------  -----------------  -----------------  -----------------
         N            0.181950364683    -0.913690598316    -0.000002000189    14.003074004430
         C            2.079432364683     0.570811401684    -0.000003000189    12.000000000000
         C            2.957893364683    -0.406528598316    -0.747422000189    12.000000000000
         C            2.957892364683    -0.406520598316     0.747426999811    12.000000000000
         C            0.619053964683     0.382787301684    -0.000003000189    12.000000000000
         C           -0.280477635317     1.444024401684    -0.000002000189    12.000000000000
         C           -1.649181635317     1.196117401684     0.000000999811    12.000000000000
         C           -2.113838635317    -0.124061598316     0.000002999811    12.000000000000
         C           -1.143219635317    -1.131095598316     0.000000999811    12.000000000000
         C           -3.582680635317    -0.447762598316    -0.000000000189    12.000000000000
         H            2.398449364683     1.610547401684    -0.000009000189     1.007825032230
         H            3.822538364683    -0.010168598316    -1.270401000189     1.007825032230
         H            2.440046364683    -1.221222598316    -1.241974000189     1.007825032230
         H            2.440047364683    -1.221210598316     1.241987999811     1.007825032230
         H            3.822536364683    -0.010154598316     1.270402999811     1.007825032230
         H            0.098737364683     2.463449401684    -0.000003000189     1.007825032230
         H           -2.356228635317     2.024877401684     0.000000999811     1.007825032230
         H           -1.447151635317    -2.178760598316     0.000001999811     1.007825032230
         H           -4.078333635317    -0.032840598316     0.883291999811     1.007825032230
         H           -3.743349635317    -1.529308598316     0.000041999811     1.007825032230
         H           -4.078313635317    -0.032911598316    -0.883337000189     1.007825032230

  Basis Set: AUG-CC-PVTZ
    Blend: AUG-CC-PVTZ
  Basis Set: (AUG-CC-PVTZ AUX)
    Blend: AUG-CC-PVTZ-JKFIT
	 Reference Energy          =    -401.7723415320446065 [Eh]
	 Singles Energy            =      -0.0000000000000000 [Eh]
	 Same-Spin Energy          =      -0.4461998078272130 [Eh]
	 Opposite-Spin Energy      =      -1.4321901966182313 [Eh]
	 Correlation Energy        =      -1.8783900044454445 [Eh]
	 Total Energy              =    -403.6507315364900705 [Eh]

	 ================> DF-SCS-MP2 Energies <==================
	-----------------------------------------------------------
	 SCS Same-Spin Scale       =       0.3333333333333333 [-]
	 SCS Opposite-Spin Scale   =       1.2000000000000000 [-]
	 SCS Same-Spin Energy      =      -0.1487332692757377 [Eh]
	 SCS Opposite-Spin Energy  =      -1.7186282359418776 [Eh]
	 SCS Correlation Energy    =      -1.8673615052176153 [Eh]
	 SCS Total Energy          =    -403.6397030372622226 [Eh]
	-----------------------------------------------------------

  Dipole Moment: [D]
     X:    -1.2894      Y:     1.4477      Z:    -0.0000     Total:     1.9387

*** Psi4 exiting successfully. Buy a developer a beer!
