                               Psi4 1.4a3.dev225

  ==> Input File <==

--------------------------------------------------------------------------
#psi4
#
memory 32 gb

molecule  {
0 1
  N        0.1871790    -0.9111820    -0.0000020
  C        2.0846610     0.5733200    -0.0000030
  C        2.9631220    -0.4040200    -0.7474220
  C        2.8683307    -0.4474650     0.7437858
  C        0.6178930     0.3663440    -0.0000030
  C       -0.2752490     1.4465330    -0.0000020
  C       -1.6439530     1.1986260     0.0000010
  C       -2.1086100    -0.1215530     0.0000030
  C       -1.1379910    -1.1285870     0.0000010
  C       -3.5774520    -0.4452540     0.0000000
  H        2.4036780     1.6130560    -0.0000090
  H        3.8277670    -0.0076600    -1.2704010
  H        2.4452750    -1.2187140    -1.2419740
  H        2.4452760    -1.2187020     1.2419880
  H        3.8277650    -0.0076460     1.2704030
  H        0.1039660     2.4659580    -0.0000030
  H       -2.3510000     2.0273860     0.0000010
  H       -1.4419230    -2.1762520     0.0000020
  H       -4.0731050    -0.0303320     0.8832920
  H       -3.7381210    -1.5268000     0.0000420
  H       -4.0730850    -0.0304030    -0.8833370
units angstrom
no_reorient  #important for SAPT in psi4, default
symmetry c1  #important for SAPT in psi4, default
}

set PROPERTIES_ORIGIN ["COM"]
properties('MP2/aug-cc-pvtz', properties = ['dipole'])
--------------------------------------------------------------------------

    Molecular point group: c1
  Charge       = 0
  Multiplicity = 1
  Basis Set: AUG-CC-PVTZ
    Blend: AUG-CC-PVTZ
  Basis Set: (AUG-CC-PVTZ AUX)
    Blend: AUG-CC-PVTZ-JKFIT

    Orbital Energies [Eh]
    ---------------------

    Doubly Occupied:

       1A    -15.555547     2A    -11.275701     3A    -11.268011
       4A    -11.251757     5A    -11.239229     6A    -11.233465
       7A    -11.232031     8A    -11.229241     9A    -11.222517
      10A    -11.220801    11A     -1.251915    12A     -1.146025
      13A     -1.091596    14A     -1.042352    15A     -0.950619
      16A     -0.867984    17A     -0.839799    18A     -0.817768
      19A     -0.783019    20A     -0.702967    21A     -0.669724
      22A     -0.634198    23A     -0.625335    24A     -0.608569
      25A     -0.583663    26A     -0.564757    27A     -0.549230
      28A     -0.534230    29A     -0.526953    30A     -0.503349
      31A     -0.496470    32A     -0.435443    33A     -0.423368
      34A     -0.405180    35A     -0.372428    36A     -0.312870

  @DF-RHF Final Energy:  -401.76106644115134

   => Energetics <=

    Nuclear Repulsion Energy =            490.0857538894701975
    One-Electron Energy =               -1514.7574142595037756
    Two-Electron Energy =                 622.9105939288822356
    Total Energy =                       -401.7610664411513426
  Basis Set: (AUG-CC-PVTZ AUX)
    Blend: AUG-CC-PVTZ-RI
    Molecular point group: c1

    Geometry (in Angstrom), charge = 0, multiplicity = 1:

       Center              X                  Y                   Z               Mass
    ------------   -----------------  -----------------  -----------------  -----------------
         N            0.191073263175    -0.908063852608     0.000326309070    14.003074004430
         C            2.088555263175     0.576438147392     0.000325309070    12.000000000000
         C            2.967016263175    -0.400901852608    -0.747093690930    12.000000000000
         C            2.872224963175    -0.444346852608     0.744114109070    12.000000000000
         C            0.621787263175     0.369462147392     0.000325309070    12.000000000000
         C           -0.271354736825     1.449651147392     0.000326309070    12.000000000000
         C           -1.640058736825     1.201744147392     0.000329309070    12.000000000000
         C           -2.104715736825    -0.118434852608     0.000331309070    12.000000000000
         C           -1.134096736825    -1.125468852608     0.000329309070    12.000000000000
         C           -3.573557736825    -0.442135852608     0.000328309070    12.000000000000
         H            2.407572263175     1.616174147392     0.000319309070     1.007825032230
         H            3.831661263175    -0.004541852608    -1.270072690930     1.007825032230
         H            2.449169263175    -1.215595852608    -1.241645690930     1.007825032230
         H            2.449170263175    -1.215583852608     1.242316309070     1.007825032230
         H            3.831659263175    -0.004527852608     1.270731309070     1.007825032230
         H            0.107860263175     2.469076147392     0.000325309070     1.007825032230
         H           -2.347105736825     2.030504147392     0.000329309070     1.007825032230
         H           -1.438028736825    -2.173133852608     0.000330309070     1.007825032230
         H           -4.069210736825    -0.027213852608     0.883620309070     1.007825032230
         H           -3.734226736825    -1.523681852608     0.000370309070     1.007825032230
         H           -4.069190736825    -0.027284852608    -0.883008690930     1.007825032230

  Basis Set: AUG-CC-PVTZ
    Blend: AUG-CC-PVTZ
  Basis Set: (AUG-CC-PVTZ AUX)
    Blend: AUG-CC-PVTZ-JKFIT
	 Reference Energy          =    -401.7610664411513426 [Eh]
	 Singles Energy            =      -0.0000000000000000 [Eh]
	 Same-Spin Energy          =      -0.4461409794131129 [Eh]
	 Opposite-Spin Energy      =      -1.4322085347407083 [Eh]
	 Correlation Energy        =      -1.8783495141538213 [Eh]
	 Total Energy              =    -403.6394159553051395 [Eh]

	 ================> DF-SCS-MP2 Energies <==================
	-----------------------------------------------------------
	 SCS Same-Spin Scale       =       0.3333333333333333 [-]
	 SCS Opposite-Spin Scale   =       1.2000000000000000 [-]
	 SCS Same-Spin Energy      =      -0.1487136598043710 [Eh]
	 SCS Opposite-Spin Energy  =      -1.7186502416888498 [Eh]
	 SCS Correlation Energy    =      -1.8673639014932208 [Eh]
	 SCS Total Energy          =    -403.6284303426445490 [Eh]
	-----------------------------------------------------------

  Dipole Moment: [D]
     X:    -1.3397      Y:     1.4411      Z:    -0.0312     Total:     1.9679

*** Psi4 exiting successfully. Buy a developer a beer!
