                               Psi4 1.4a3.dev225

  ==> Input File <==

--------------------------------------------------------------------------
#psi4
#
memory 32 gb

molecule  {
0 1
  N        0.1871790    -0.9111820    -0.0000020
  C        2.0846610     0.5733200    -0.0000030
  C        2.9631220    -0.4040200    -0.7474220
  C        2.9514996    -0.3910826     0.7375390
  C        0.6178930     0.3663440    -0.0000030
  C       -0.2752490     1.4465330    -0.0000020
  C       -1.6439530     1.1986260     0.0000010
  C       -2.1086100    -0.1215530     0.0000030
  C       -1.1379910    -1.1285870     0.0000010
  C       -3.5774520    -0.4452540     0.0000000
  H        2.4036780     1.6130560    -0.0000090
  H        3.8277670    -0.0076600    -1.2704010
  H        2.4452750    -1.2187140    -1.2419740
  H        2.4452760    -1.2187020     1.2419880
  H        3.8277650    -0.0076460     1.2704030
  H        0.1039660     2.4659580    -0.0000030
  H       -2.3510000     2.0273860     0.0000010
  H       -1.4419230    -2.1762520     0.0000020
  H       -4.0731050    -0.0303320     0.8832920
  H       -3.7381210    -1.5268000     0.0000420
  H       -4.0730850    -0.0304030    -0.8833370
units angstrom
no_reorient  #important for SAPT in psi4, default
symmetry c1  #important for SAPT in psi4, default
}

set PROPERTIES_ORIGIN ["COM"]
properties('MP2/aug-cc-pvtz', properties = ['dipole'])
--------------------------------------------------------------------------

    Molecular point group: c1
  Charge       = 0
  Multiplicity = 1
  Basis Set: AUG-CC-PVTZ
    Blend: AUG-CC-PVTZ
  Basis Set: (AUG-CC-PVTZ AUX)
    Blend: AUG-CC-PVTZ-JKFIT

    Orbital Energies [Eh]
    ---------------------

    Doubly Occupied:

       1A    -15.555801     2A    -11.276119     3A    -11.267785
       4A    -11.251712     5A    -11.239495     6A    -11.233873
       7A    -11.230537     8A    -11.229309     9A    -11.221101
      10A    -11.219843    11A     -1.251445    12A     -1.145339
      13A     -1.091825    14A     -1.042742    15A     -0.951158
      16A     -0.867371    17A     -0.840098    18A     -0.813268
      19A     -0.781340    20A     -0.701494    21A     -0.667584
      22A     -0.639248    23A     -0.626470    24A     -0.601965
      25A     -0.583762    26A     -0.564754    27A     -0.549326
      28A     -0.535098    29A     -0.527434    30A     -0.501264
      31A     -0.497669    32A     -0.433227    33A     -0.426707
      34A     -0.406644    35A     -0.372464    36A     -0.313258

  @DF-RHF Final Energy:  -401.77328150745711

   => Energetics <=

    Nuclear Repulsion Energy =            489.3939256834601679
    One-Electron Energy =               -1513.4173617254275541
    Two-Electron Energy =                 622.2501545345103295
    Total Energy =                       -401.7732815074571135
  Basis Set: (AUG-CC-PVTZ AUX)
    Blend: AUG-CC-PVTZ-RI
    Molecular point group: c1

    Geometry (in Angstrom), charge = 0, multiplicity = 1:

       Center              X                  Y                   Z               Mass
    ------------   -----------------  -----------------  -----------------  -----------------
         N            0.183574328778    -0.913147578842     0.000889552583    14.003074004430
         C            2.081056328778     0.571354421158     0.000888552583    12.000000000000
         C            2.959517328778    -0.405985578842    -0.746530447417    12.000000000000
         C            2.947894928778    -0.393048178842     0.738430552583    12.000000000000
         C            0.614288328778     0.364378421158     0.000888552583    12.000000000000
         C           -0.278853671222     1.444567421158     0.000889552583    12.000000000000
         C           -1.647557671222     1.196660421158     0.000892552583    12.000000000000
         C           -2.112214671222    -0.123518578842     0.000894552583    12.000000000000
         C           -1.141595671222    -1.130552578842     0.000892552583    12.000000000000
         C           -3.581056671222    -0.447219578842     0.000891552583    12.000000000000
         H            2.400073328778     1.611090421158     0.000882552583     1.007825032230
         H            3.824162328778    -0.009625578842    -1.269509447417     1.007825032230
         H            2.441670328778    -1.220679578842    -1.241082447417     1.007825032230
         H            2.441671328778    -1.220667578842     1.242879552583     1.007825032230
         H            3.824160328778    -0.009611578842     1.271294552583     1.007825032230
         H            0.100361328778     2.463992421158     0.000888552583     1.007825032230
         H           -2.354604671222     2.025420421158     0.000892552583     1.007825032230
         H           -1.445527671222    -2.178217578842     0.000893552583     1.007825032230
         H           -4.076709671222    -0.032297578842     0.884183552583     1.007825032230
         H           -3.741725671222    -1.528765578842     0.000933552583     1.007825032230
         H           -4.076689671222    -0.032368578842    -0.882445447417     1.007825032230

  Basis Set: AUG-CC-PVTZ
    Blend: AUG-CC-PVTZ
  Basis Set: (AUG-CC-PVTZ AUX)
    Blend: AUG-CC-PVTZ-JKFIT
	 Reference Energy          =    -401.7732815074571135 [Eh]
	 Singles Energy            =      -0.0000000000000000 [Eh]
	 Same-Spin Energy          =      -0.4460288732555532 [Eh]
	 Opposite-Spin Energy      =      -1.4315875162873042 [Eh]
	 Correlation Energy        =      -1.8776163895428575 [Eh]
	 Total Energy              =    -403.6508978969999930 [Eh]

	 ================> DF-SCS-MP2 Energies <==================
	-----------------------------------------------------------
	 SCS Same-Spin Scale       =       0.3333333333333333 [-]
	 SCS Opposite-Spin Scale   =       1.2000000000000000 [-]
	 SCS Same-Spin Energy      =      -0.1486762910851844 [Eh]
	 SCS Opposite-Spin Energy  =      -1.7179050195447649 [Eh]
	 SCS Correlation Energy    =      -1.8665813106299494 [Eh]
	 SCS Total Energy          =    -403.6398628180870674 [Eh]
	-----------------------------------------------------------

  Dipole Moment: [D]
     X:    -1.3176      Y:     1.4511      Z:     0.0101     Total:     1.9601

*** Psi4 exiting successfully. Buy a developer a beer!
