                               Psi4 1.4a3.dev225

  ==> Input File <==

--------------------------------------------------------------------------
#psi4
#
memory 32 gb

molecule  {
0 1
  N        0.1871790    -0.9111820    -0.0000020
  C        2.0846610     0.5733200    -0.0000030
  C        2.9631220    -0.4040200    -0.7474220
  C        2.9631210    -0.4040120     0.7474270
  C        0.6178930     0.3663440    -0.0000030
  C       -0.2752490     1.4465330    -0.0000020
  C       -1.6439530     1.1986260     0.0000010
  C       -2.1086100    -0.1215530     0.0000030
  C       -1.1379910    -1.1285870     0.0000010
  C       -3.6262803    -0.4560147    -0.0000001
  H        2.4036780     1.6130560    -0.0000090
  H        3.8277670    -0.0076600    -1.2704010
  H        2.4452750    -1.2187140    -1.2419740
  H        2.4452760    -1.2187020     1.2419880
  H        3.8277650    -0.0076460     1.2704030
  H        0.1039660     2.4659580    -0.0000030
  H       -2.3510000     2.0273860     0.0000010
  H       -1.4419230    -2.1762520     0.0000020
  H       -4.0731050    -0.0303320     0.8832920
  H       -3.7381210    -1.5268000     0.0000420
  H       -4.0730850    -0.0304030    -0.8833370
units angstrom
no_reorient  #important for SAPT in psi4, default
symmetry c1  #important for SAPT in psi4, default
}

set PROPERTIES_ORIGIN ["COM"]
properties('MP2/aug-cc-pvtz', properties = ['dipole'])
--------------------------------------------------------------------------

    Molecular point group: c1
  Charge       = 0
  Multiplicity = 1
  Basis Set: AUG-CC-PVTZ
    Blend: AUG-CC-PVTZ
  Basis Set: (AUG-CC-PVTZ AUX)
    Blend: AUG-CC-PVTZ-JKFIT

    Orbital Energies [Eh]
    ---------------------

    Doubly Occupied:

       1A    -15.555513     2A    -11.275841     3A    -11.267612
       4A    -11.251522     5A    -11.241350     6A    -11.233510
       7A    -11.231200     8A    -11.228215     9A    -11.221396
      10A    -11.220704    11A     -1.250766    12A     -1.140364
      13A     -1.087982    14A     -1.040090    15A     -0.951692
      16A     -0.867273    17A     -0.840636    18A     -0.814768
      19A     -0.780919    20A     -0.700618    21A     -0.665527
      22A     -0.638040    23A     -0.623082    24A     -0.599605
      25A     -0.588496    26A     -0.564019    27A     -0.555092
      28A     -0.537327    29A     -0.525298    30A     -0.504345
      31A     -0.494390    32A     -0.429907    33A     -0.427073
      34A     -0.405757    35A     -0.372429    36A     -0.313278

  @DF-RHF Final Energy:  -401.77213095508586

   => Energetics <=

    Nuclear Repulsion Energy =            488.1837652970632462
    One-Electron Energy =               -1511.0205192589144190
    Two-Electron Energy =                 621.0646230067653732
    Total Energy =                       -401.7721309550857995
  Basis Set: (AUG-CC-PVTZ AUX)
    Blend: AUG-CC-PVTZ-RI
    Molecular point group: c1

    Geometry (in Angstrom), charge = 0, multiplicity = 1:

       Center              X                  Y                   Z               Mass
    ------------   -----------------  -----------------  -----------------  -----------------
         N            0.186929093626    -0.911011557976    -0.000001991172    14.003074004430
         C            2.084411093626     0.573490442024    -0.000002991172    12.000000000000
         C            2.962872093626    -0.403849557976    -0.747421991172    12.000000000000
         C            2.962871093626    -0.403841557976     0.747427008828    12.000000000000
         C            0.617643093626     0.366514442024    -0.000002991172    12.000000000000
         C           -0.275498906374     1.446703442024    -0.000001991172    12.000000000000
         C           -1.644202906374     1.198796442024     0.000001008828    12.000000000000
         C           -2.108859906374    -0.121382557976     0.000003008828    12.000000000000
         C           -1.138240906374    -1.128416557976     0.000001008828    12.000000000000
         C           -3.626530206374    -0.455844257976    -0.000000091172    12.000000000000
         H            2.403428093626     1.613226442024    -0.000008991172     1.007825032230
         H            3.827517093626    -0.007489557976    -1.270400991172     1.007825032230
         H            2.445025093626    -1.218543557976    -1.241973991172     1.007825032230
         H            2.445026093626    -1.218531557976     1.241988008828     1.007825032230
         H            3.827515093626    -0.007475557976     1.270403008828     1.007825032230
         H            0.103716093626     2.466128442024    -0.000002991172     1.007825032230
         H           -2.351249906374     2.027556442024     0.000001008828     1.007825032230
         H           -1.442172906374    -2.176081557976     0.000002008828     1.007825032230
         H           -4.073354906374    -0.030161557976     0.883292008828     1.007825032230
         H           -3.738370906374    -1.526629557976     0.000042008828     1.007825032230
         H           -4.073334906374    -0.030232557976    -0.883336991172     1.007825032230

  Basis Set: AUG-CC-PVTZ
    Blend: AUG-CC-PVTZ
  Basis Set: (AUG-CC-PVTZ AUX)
    Blend: AUG-CC-PVTZ-JKFIT
	 Reference Energy          =    -401.7721309550858564 [Eh]
	 Singles Energy            =      -0.0000000000000000 [Eh]
	 Same-Spin Energy          =      -0.4456305481379859 [Eh]
	 Opposite-Spin Energy      =      -1.4314636595801784 [Eh]
	 Correlation Energy        =      -1.8770942077181643 [Eh]
	 Total Energy              =    -403.6492251628040435 [Eh]

	 ================> DF-SCS-MP2 Energies <==================
	-----------------------------------------------------------
	 SCS Same-Spin Scale       =       0.3333333333333333 [-]
	 SCS Opposite-Spin Scale   =       1.2000000000000000 [-]
	 SCS Same-Spin Energy      =      -0.1485435160459953 [Eh]
	 SCS Opposite-Spin Energy  =      -1.7177563914962140 [Eh]
	 SCS Correlation Energy    =      -1.8662999075422093 [Eh]
	 SCS Total Energy          =    -403.6384308626280699 [Eh]
	-----------------------------------------------------------

  Dipole Moment: [D]
     X:    -1.3125      Y:     1.4539      Z:    -0.0000     Total:     1.9587

*** Psi4 exiting successfully. Buy a developer a beer!
