                               Psi4 1.4a3.dev225

  ==> Input File <==

--------------------------------------------------------------------------
#psi4
#
memory 32 gb

molecule  {
0 1
  N        0.1871790    -0.9111820    -0.0000020
  C        2.0846610     0.5733200    -0.0000030
  C        2.9631220    -0.4040200    -0.7474220
  C        2.9631210    -0.4040120     0.7474270
  C        0.6178930     0.3663440    -0.0000030
  C       -0.2752490     1.4465330    -0.0000020
  C       -1.6439530     1.1986260     0.0000010
  C       -2.1086100    -0.1215530     0.0000030
  C       -1.1737273    -1.1618477     0.0000008
  C       -3.5774520    -0.4452540     0.0000000
  H        2.4036780     1.6130560    -0.0000090
  H        3.8277670    -0.0076600    -1.2704010
  H        2.4452750    -1.2187140    -1.2419740
  H        2.4452760    -1.2187020     1.2419880
  H        3.8277650    -0.0076460     1.2704030
  H        0.1039660     2.4659580    -0.0000030
  H       -2.3510000     2.0273860     0.0000010
  H       -1.4419230    -2.1762520     0.0000020
  H       -4.0731050    -0.0303320     0.8832920
  H       -3.7381210    -1.5268000     0.0000420
  H       -4.0730850    -0.0304030    -0.8833370
units angstrom
no_reorient  #important for SAPT in psi4, default
symmetry c1  #important for SAPT in psi4, default
}

set PROPERTIES_ORIGIN ["COM"]
properties('MP2/aug-cc-pvtz', properties = ['dipole'])
--------------------------------------------------------------------------

    Molecular point group: c1
  Charge       = 0
  Multiplicity = 1
  Basis Set: AUG-CC-PVTZ
    Blend: AUG-CC-PVTZ
  Basis Set: (AUG-CC-PVTZ AUX)
    Blend: AUG-CC-PVTZ-JKFIT

    Orbital Energies [Eh]
    ---------------------

    Doubly Occupied:

       1A    -15.557240     2A    -11.275704     3A    -11.267849
       4A    -11.252223     5A    -11.240797     6A    -11.235196
       7A    -11.231098     8A    -11.228347     9A    -11.221065
      10A    -11.220372    11A     -1.240595    12A     -1.139579
      13A     -1.088892    14A     -1.042931    15A     -0.949634
      16A     -0.870489    17A     -0.839466    18A     -0.814394
      19A     -0.778784    20A     -0.701812    21A     -0.665736
      22A     -0.638269    23A     -0.631461    24A     -0.603864
      25A     -0.582825    26A     -0.566431    27A     -0.547350
      28A     -0.531752    29A     -0.528220    30A     -0.502835
      31A     -0.500097    32A     -0.428346    33A     -0.426553
      34A     -0.404489    35A     -0.367814    36A     -0.314322

  @DF-RHF Final Energy:  -401.76897592623334

   => Energetics <=

    Nuclear Repulsion Energy =            488.1880213952280201
    One-Electron Energy =               -1511.0403296513347868
    Two-Electron Energy =                 621.0833323298734285
    Total Energy =                       -401.7689759262333382
  Basis Set: (AUG-CC-PVTZ AUX)
    Blend: AUG-CC-PVTZ-RI
    Molecular point group: c1

    Geometry (in Angstrom), charge = 0, multiplicity = 1:

       Center              X                  Y                   Z               Mass
    ------------   -----------------  -----------------  -----------------  -----------------
         N            0.185748651789    -0.908982842628    -0.000001982156    14.003074004430
         C            2.083230651789     0.575519157372    -0.000002982156    12.000000000000
         C            2.961691651789    -0.401820842628    -0.747421982156    12.000000000000
         C            2.961690651789    -0.401812842628     0.747427017844    12.000000000000
         C            0.616462651789     0.368543157372    -0.000002982156    12.000000000000
         C           -0.276679348211     1.448732157372    -0.000001982156    12.000000000000
         C           -1.645383348211     1.200825157372     0.000001017844    12.000000000000
         C           -2.110040348211    -0.119353842628     0.000003017844    12.000000000000
         C           -1.175157648211    -1.159648542628     0.000000817844    12.000000000000
         C           -3.578882348211    -0.443054842628     0.000000017844    12.000000000000
         H            2.402247651789     1.615255157372    -0.000008982156     1.007825032230
         H            3.826336651789    -0.005460842628    -1.270400982156     1.007825032230
         H            2.443844651789    -1.216514842628    -1.241973982156     1.007825032230
         H            2.443845651789    -1.216502842628     1.241988017844     1.007825032230
         H            3.826334651789    -0.005446842628     1.270403017844     1.007825032230
         H            0.102535651789     2.468157157372    -0.000002982156     1.007825032230
         H           -2.352430348211     2.029585157372     0.000001017844     1.007825032230
         H           -1.443353348211    -2.174052842628     0.000002017844     1.007825032230
         H           -4.074535348211    -0.028132842628     0.883292017844     1.007825032230
         H           -3.739551348211    -1.524600842628     0.000042017844     1.007825032230
         H           -4.074515348211    -0.028203842628    -0.883336982156     1.007825032230

  Basis Set: AUG-CC-PVTZ
    Blend: AUG-CC-PVTZ
  Basis Set: (AUG-CC-PVTZ AUX)
    Blend: AUG-CC-PVTZ-JKFIT
	 Reference Energy          =    -401.7689759262333382 [Eh]
	 Singles Energy            =      -0.0000000000000000 [Eh]
	 Same-Spin Energy          =      -0.4462382322063175 [Eh]
	 Opposite-Spin Energy      =      -1.4327560988162933 [Eh]
	 Correlation Energy        =      -1.8789943310226107 [Eh]
	 Total Energy              =    -403.6479702572559631 [Eh]

	 ================> DF-SCS-MP2 Energies <==================
	-----------------------------------------------------------
	 SCS Same-Spin Scale       =       0.3333333333333333 [-]
	 SCS Opposite-Spin Scale   =       1.2000000000000000 [-]
	 SCS Same-Spin Energy      =      -0.1487460774021058 [Eh]
	 SCS Opposite-Spin Energy  =      -1.7193073185795520 [Eh]
	 SCS Correlation Energy    =      -1.8680533959816579 [Eh]
	 SCS Total Energy          =    -403.6370293222149712 [Eh]
	-----------------------------------------------------------

  Dipole Moment: [D]
     X:    -1.3419      Y:     1.4250      Z:    -0.0000     Total:     1.9574

*** Psi4 exiting successfully. Buy a developer a beer!
