                               Psi4 1.4a3.dev225

  ==> Input File <==

--------------------------------------------------------------------------
#psi4
#
memory 32 gb

molecule  {
0 1
  N        0.1871790    -0.9111820    -0.0000020
  C        2.0846610     0.5733200    -0.0000030
  C        2.9631220    -0.4040200    -0.7474220
  C        2.9631210    -0.4040120     0.7474270
  C        0.6178930     0.3663440    -0.0000030
  C       -0.3389716     1.5236007    -0.0000019
  C       -1.6439530     1.1986260     0.0000010
  C       -2.1086100    -0.1215530     0.0000030
  C       -1.1379910    -1.1285870     0.0000010
  C       -3.5774520    -0.4452540     0.0000000
  H        2.4036780     1.6130560    -0.0000090
  H        3.8277670    -0.0076600    -1.2704010
  H        2.4452750    -1.2187140    -1.2419740
  H        2.4452760    -1.2187020     1.2419880
  H        3.8277650    -0.0076460     1.2704030
  H        0.1039660     2.4659580    -0.0000030
  H       -2.3510000     2.0273860     0.0000010
  H       -1.4419230    -2.1762520     0.0000020
  H       -4.0731050    -0.0303320     0.8832920
  H       -3.7381210    -1.5268000     0.0000420
  H       -4.0730850    -0.0304030    -0.8833370
units angstrom
no_reorient  #important for SAPT in psi4, default
symmetry c1  #important for SAPT in psi4, default
}

set PROPERTIES_ORIGIN ["COM"]
properties('MP2/aug-cc-pvtz', properties = ['dipole'])
--------------------------------------------------------------------------

    Molecular point group: c1
  Charge       = 0
  Multiplicity = 1
  Basis Set: AUG-CC-PVTZ
    Blend: AUG-CC-PVTZ
  Basis Set: (AUG-CC-PVTZ AUX)
    Blend: AUG-CC-PVTZ-JKFIT

    Orbital Energies [Eh]
    ---------------------

    Doubly Occupied:

       1A    -15.554941     2A    -11.288630     3A    -11.265350
       4A    -11.245385     5A    -11.236977     6A    -11.235989
       7A    -11.234306     8A    -11.227849     9A    -11.224174
      10A    -11.223479    11A     -1.247399    12A     -1.142800
      13A     -1.094776    14A     -1.038014    15A     -0.949131
      16A     -0.864767    17A     -0.843100    18A     -0.817028
      19A     -0.777252    20A     -0.700426    21A     -0.669060
      22A     -0.641959    23A     -0.637419    24A     -0.593322
      25A     -0.581846    26A     -0.561117    27A     -0.546091
      28A     -0.532388    29A     -0.528820    30A     -0.506375
      31A     -0.504916    32A     -0.431200    33A     -0.429629
      34A     -0.400227    35A     -0.380460    36A     -0.304496

  @DF-RHF Final Energy:  -401.76256294469027

   => Energetics <=

    Nuclear Repulsion Energy =            487.7355266868304966
    One-Electron Energy =               -1510.0739834553478431
    Two-Electron Energy =                 620.5758938238269593
    Total Energy =                       -401.7625629446903304
  Basis Set: (AUG-CC-PVTZ AUX)
    Blend: AUG-CC-PVTZ-RI
    Molecular point group: c1

    Geometry (in Angstrom), charge = 0, multiplicity = 1:

       Center              X                  Y                   Z               Mass
    ------------   -----------------  -----------------  -----------------  -----------------
         N            0.188272040071    -0.918930616780    -0.000002009205    14.003074004430
         C            2.085754040071     0.565571383220    -0.000003009205    12.000000000000
         C            2.964215040071    -0.411768616780    -0.747422009205    12.000000000000
         C            2.964214040071    -0.411760616780     0.747426990795    12.000000000000
         C            0.618986040071     0.358595383220    -0.000003009205    12.000000000000
         C           -0.337878559929     1.515852083220    -0.000001909205    12.000000000000
         C           -1.642859959929     1.190877383220     0.000000990795    12.000000000000
         C           -2.107516959929    -0.129301616780     0.000002990795    12.000000000000
         C           -1.136897959929    -1.136335616780     0.000000990795    12.000000000000
         C           -3.576358959929    -0.453002616780    -0.000000009205    12.000000000000
         H            2.404771040071     1.605307383220    -0.000009009205     1.007825032230
         H            3.828860040071    -0.015408616780    -1.270401009205     1.007825032230
         H            2.446368040071    -1.226462616780    -1.241974009205     1.007825032230
         H            2.446369040071    -1.226450616780     1.241987990795     1.007825032230
         H            3.828858040071    -0.015394616780     1.270402990795     1.007825032230
         H            0.105059040071     2.458209383220    -0.000003009205     1.007825032230
         H           -2.349906959929     2.019637383220     0.000000990795     1.007825032230
         H           -1.440829959929    -2.184000616780     0.000001990795     1.007825032230
         H           -4.072011959929    -0.038080616780     0.883291990795     1.007825032230
         H           -3.737027959929    -1.534548616780     0.000041990795     1.007825032230
         H           -4.071991959929    -0.038151616780    -0.883337009205     1.007825032230

  Basis Set: AUG-CC-PVTZ
    Blend: AUG-CC-PVTZ
  Basis Set: (AUG-CC-PVTZ AUX)
    Blend: AUG-CC-PVTZ-JKFIT
	 Reference Energy          =    -401.7625629446902735 [Eh]
	 Singles Energy            =      -0.0000000000000000 [Eh]
	 Same-Spin Energy          =      -0.4455870359031359 [Eh]
	 Opposite-Spin Energy      =      -1.4318881029265553 [Eh]
	 Correlation Energy        =      -1.8774751388296913 [Eh]
	 Total Energy              =    -403.6400380835199826 [Eh]

	 ================> DF-SCS-MP2 Energies <==================
	-----------------------------------------------------------
	 SCS Same-Spin Scale       =       0.3333333333333333 [-]
	 SCS Opposite-Spin Scale   =       1.2000000000000000 [-]
	 SCS Same-Spin Energy      =      -0.1485290119677120 [Eh]
	 SCS Opposite-Spin Energy  =      -1.7182657235118663 [Eh]
	 SCS Correlation Energy    =      -1.8667947354795782 [Eh]
	 SCS Total Energy          =    -403.6293576801698464 [Eh]
	-----------------------------------------------------------

  Dipole Moment: [D]
     X:    -1.1386      Y:     1.4697      Z:    -0.0000     Total:     1.8591

*** Psi4 exiting successfully. Buy a developer a beer!
