                               Psi4 1.4a3.dev225

  ==> Input File <==

--------------------------------------------------------------------------
#psi4
#
memory 32 gb

molecule  {
0 1
  N        0.1871790    -0.9111820    -0.0000020
  C        2.0846610     0.5733200    -0.0000030
  C        2.9631220    -0.4040200    -0.7474220
  C        2.9631210    -0.4040120     0.7474270
  C        0.6178930     0.3663440    -0.0000030
  C       -0.2958762     1.5414051    -0.0000020
  C       -1.6439530     1.1986260     0.0000010
  C       -2.1086100    -0.1215530     0.0000030
  C       -1.1379910    -1.1285870     0.0000010
  C       -3.5774520    -0.4452540     0.0000000
  H        2.4036780     1.6130560    -0.0000090
  H        3.8277670    -0.0076600    -1.2704010
  H        2.4452750    -1.2187140    -1.2419740
  H        2.4452760    -1.2187020     1.2419880
  H        3.8277650    -0.0076460     1.2704030
  H        0.1039660     2.4659580    -0.0000030
  H       -2.3510000     2.0273860     0.0000010
  H       -1.4419230    -2.1762520     0.0000020
  H       -4.0731050    -0.0303320     0.8832920
  H       -3.7381210    -1.5268000     0.0000420
  H       -4.0730850    -0.0304030    -0.8833370
units angstrom
no_reorient  #important for SAPT in psi4, default
symmetry c1  #important for SAPT in psi4, default
}

set PROPERTIES_ORIGIN ["COM"]
properties('MP2/aug-cc-pvtz', properties = ['dipole'])
--------------------------------------------------------------------------

    Molecular point group: c1
  Charge       = 0
  Multiplicity = 1
  Basis Set: AUG-CC-PVTZ
    Blend: AUG-CC-PVTZ
  Basis Set: (AUG-CC-PVTZ AUX)
    Blend: AUG-CC-PVTZ-JKFIT

    Orbital Energies [Eh]
    ---------------------

    Doubly Occupied:

       1A    -15.555852     2A    -11.287524     3A    -11.268014
       4A    -11.251940     5A    -11.238100     6A    -11.236691
       7A    -11.232432     8A    -11.228660     9A    -11.222907
      10A    -11.222215    11A     -1.247402    12A     -1.141664
      13A     -1.090822    14A     -1.036972    15A     -0.948564
      16A     -0.865054    17A     -0.847290    18A     -0.815976
      19A     -0.776146    20A     -0.700045    21A     -0.665976
      22A     -0.649160    23A     -0.637850    24A     -0.593825
      25A     -0.582221    26A     -0.558196    27A     -0.548236
      28A     -0.531991    29A     -0.531077    30A     -0.504322
      31A     -0.503888    32A     -0.429923    33A     -0.429246
      34A     -0.401882    35A     -0.374506    36A     -0.306341

  @DF-RHF Final Energy:  -401.76105307970636

   => Energetics <=

    Nuclear Repulsion Energy =            487.3181198816497499
    One-Electron Energy =               -1509.2325228584072647
    Two-Electron Energy =                 620.1533498970511573
    Total Energy =                       -401.7610530797063575
  Basis Set: (AUG-CC-PVTZ AUX)
    Blend: AUG-CC-PVTZ-RI
    Molecular point group: c1

    Geometry (in Angstrom), charge = 0, multiplicity = 1:

       Center              X                  Y                   Z               Mass
    ------------   -----------------  -----------------  -----------------  -----------------
         N            0.184386337875    -0.920535952760    -0.000002000189    14.003074004430
         C            2.081868337875     0.563966047240    -0.000003000189    12.000000000000
         C            2.960329337875    -0.413373952760    -0.747422000189    12.000000000000
         C            2.960328337875    -0.413365952760     0.747426999811    12.000000000000
         C            0.615100337875     0.356990047240    -0.000003000189    12.000000000000
         C           -0.298668862125     1.532051147240    -0.000002000189    12.000000000000
         C           -1.646745662125     1.189272047240     0.000000999811    12.000000000000
         C           -2.111402662125    -0.130906952760     0.000002999811    12.000000000000
         C           -1.140783662125    -1.137940952760     0.000000999811    12.000000000000
         C           -3.580244662125    -0.454607952760    -0.000000000189    12.000000000000
         H            2.400885337875     1.603702047240    -0.000009000189     1.007825032230
         H            3.824974337875    -0.017013952760    -1.270401000189     1.007825032230
         H            2.442482337875    -1.228067952760    -1.241974000189     1.007825032230
         H            2.442483337875    -1.228055952760     1.241987999811     1.007825032230
         H            3.824972337875    -0.016999952760     1.270402999811     1.007825032230
         H            0.101173337875     2.456604047240    -0.000003000189     1.007825032230
         H           -2.353792662125     2.018032047240     0.000000999811     1.007825032230
         H           -1.444715662125    -2.185605952760     0.000001999811     1.007825032230
         H           -4.075897662125    -0.039685952760     0.883291999811     1.007825032230
         H           -3.740913662125    -1.536153952760     0.000041999811     1.007825032230
         H           -4.075877662125    -0.039756952760    -0.883337000189     1.007825032230

  Basis Set: AUG-CC-PVTZ
    Blend: AUG-CC-PVTZ
  Basis Set: (AUG-CC-PVTZ AUX)
    Blend: AUG-CC-PVTZ-JKFIT
	 Reference Energy          =    -401.7610530797063575 [Eh]
	 Singles Energy            =      -0.0000000000000000 [Eh]
	 Same-Spin Energy          =      -0.4457780039685560 [Eh]
	 Opposite-Spin Energy      =      -1.4322210172158467 [Eh]
	 Correlation Energy        =      -1.8779990211844027 [Eh]
	 Total Energy              =    -403.6390521008907513 [Eh]

	 ================> DF-SCS-MP2 Energies <==================
	-----------------------------------------------------------
	 SCS Same-Spin Scale       =       0.3333333333333333 [-]
	 SCS Opposite-Spin Scale   =       1.2000000000000000 [-]
	 SCS Same-Spin Energy      =      -0.1485926679895186 [Eh]
	 SCS Opposite-Spin Energy  =      -1.7186652206590161 [Eh]
	 SCS Correlation Energy    =      -1.8672578886485347 [Eh]
	 SCS Total Energy          =    -403.6283109683548673 [Eh]
	-----------------------------------------------------------

  Dipole Moment: [D]
     X:    -1.2037      Y:     1.4659      Z:    -0.0000     Total:     1.8968

*** Psi4 exiting successfully. Buy a developer a beer!
