                               Psi4 1.4a3.dev225

  ==> Input File <==

--------------------------------------------------------------------------
#psi4
#
memory 32 gb

molecule  {
0 1
  N        0.1871790    -0.9111820    -0.0000020
  C        2.0846610     0.5733200    -0.0000030
  C        2.9631220    -0.4040200    -0.7474220
  C        2.9631210    -0.4040120     0.7474270
  C        0.8159310     0.3942892    -0.0000030
  C       -0.2752490     1.4465330    -0.0000020
  C       -1.6439530     1.1986260     0.0000010
  C       -2.1086100    -0.1215530     0.0000030
  C       -1.1379910    -1.1285870     0.0000010
  C       -3.5774520    -0.4452540     0.0000000
  H        2.4036780     1.6130560    -0.0000090
  H        3.8277670    -0.0076600    -1.2704010
  H        2.4452750    -1.2187140    -1.2419740
  H        2.4452760    -1.2187020     1.2419880
  H        3.8277650    -0.0076460     1.2704030
  H        0.1039660     2.4659580    -0.0000030
  H       -2.3510000     2.0273860     0.0000010
  H       -1.4419230    -2.1762520     0.0000020
  H       -4.0731050    -0.0303320     0.8832920
  H       -3.7381210    -1.5268000     0.0000420
  H       -4.0730850    -0.0304030    -0.8833370
units angstrom
no_reorient  #important for SAPT in psi4, default
symmetry c1  #important for SAPT in psi4, default
}

set PROPERTIES_ORIGIN ["COM"]
properties('MP2/aug-cc-pvtz', properties = ['dipole'])
--------------------------------------------------------------------------

    Molecular point group: c1
  Charge       = 0
  Multiplicity = 1
  Basis Set: AUG-CC-PVTZ
    Blend: AUG-CC-PVTZ
  Basis Set: (AUG-CC-PVTZ AUX)
    Blend: AUG-CC-PVTZ-JKFIT

    Orbital Energies [Eh]
    ---------------------

    Doubly Occupied:

       1A    -15.551079     2A    -11.289544     3A    -11.261693
       4A    -11.245243     5A    -11.240078     6A    -11.238457
       7A    -11.237704     8A    -11.230939     9A    -11.230800
      10A    -11.223658    11A     -1.227419    12A     -1.164783
      13A     -1.077030    14A     -1.031792    15A     -0.965951
      16A     -0.882711    17A     -0.830670    18A     -0.829642
      19A     -0.775024    20A     -0.712409    21A     -0.671806
      22A     -0.631793    23A     -0.626269    24A     -0.591654
      25A     -0.576756    26A     -0.558317    27A     -0.554029
      28A     -0.537623    29A     -0.534979    30A     -0.510377
      31A     -0.505002    32A     -0.448080    33A     -0.440130
      34A     -0.377039    35A     -0.362182    36A     -0.286421

  @DF-RHF Final Energy:  -401.70485506741187

   => Energetics <=

    Nuclear Repulsion Energy =            488.2622859014190340
    One-Electron Energy =               -1511.0161190956855535
    Two-Electron Energy =                 621.0489781268545357
    Total Energy =                       -401.7048550674119269
  Basis Set: (AUG-CC-PVTZ AUX)
    Blend: AUG-CC-PVTZ-RI
    Molecular point group: c1

    Geometry (in Angstrom), charge = 0, multiplicity = 1:

       Center              X                  Y                   Z               Mass
    ------------   -----------------  -----------------  -----------------  -----------------
         N            0.164670362435    -0.914501480349    -0.000002000189    14.003074004430
         C            2.062152362435     0.570000519651    -0.000003000189    12.000000000000
         C            2.940613362435    -0.407339480349    -0.747422000189    12.000000000000
         C            2.940612362435    -0.407331480349     0.747426999811    12.000000000000
         C            0.793422362435     0.390969719651    -0.000003000189    12.000000000000
         C           -0.297757637565     1.443213519651    -0.000002000189    12.000000000000
         C           -1.666461637565     1.195306519651     0.000000999811    12.000000000000
         C           -2.131118637565    -0.124872480349     0.000002999811    12.000000000000
         C           -1.160499637565    -1.131906480349     0.000000999811    12.000000000000
         C           -3.599960637565    -0.448573480349    -0.000000000189    12.000000000000
         H            2.381169362435     1.609736519651    -0.000009000189     1.007825032230
         H            3.805258362435    -0.010979480349    -1.270401000189     1.007825032230
         H            2.422766362435    -1.222033480349    -1.241974000189     1.007825032230
         H            2.422767362435    -1.222021480349     1.241987999811     1.007825032230
         H            3.805256362435    -0.010965480349     1.270402999811     1.007825032230
         H            0.081457362435     2.462638519651    -0.000003000189     1.007825032230
         H           -2.373508637565     2.024066519651     0.000000999811     1.007825032230
         H           -1.464431637565    -2.179571480349     0.000001999811     1.007825032230
         H           -4.095613637565    -0.033651480349     0.883291999811     1.007825032230
         H           -3.760629637565    -1.530119480349     0.000041999811     1.007825032230
         H           -4.095593637565    -0.033722480349    -0.883337000189     1.007825032230

  Basis Set: AUG-CC-PVTZ
    Blend: AUG-CC-PVTZ
  Basis Set: (AUG-CC-PVTZ AUX)
    Blend: AUG-CC-PVTZ-JKFIT
	 Reference Energy          =    -401.7048550674118701 [Eh]
	 Singles Energy            =      -0.0000000000000000 [Eh]
	 Same-Spin Energy          =      -0.4513588165842713 [Eh]
	 Opposite-Spin Energy      =      -1.4404946892679544 [Eh]
	 Correlation Energy        =      -1.8918535058522257 [Eh]
	 Total Energy              =    -403.5967085732640953 [Eh]

	 ================> DF-SCS-MP2 Energies <==================
	-----------------------------------------------------------
	 SCS Same-Spin Scale       =       0.3333333333333333 [-]
	 SCS Opposite-Spin Scale   =       1.2000000000000000 [-]
	 SCS Same-Spin Energy      =      -0.1504529388614237 [Eh]
	 SCS Opposite-Spin Energy  =      -1.7285936271215452 [Eh]
	 SCS Correlation Energy    =      -1.8790465659829689 [Eh]
	 SCS Total Energy          =    -403.5839016333948166 [Eh]
	-----------------------------------------------------------

  Dipole Moment: [D]
     X:    -0.2036      Y:     1.4094      Z:    -0.0000     Total:     1.4240

*** Psi4 exiting successfully. Buy a developer a beer!
