                               Psi4 1.4a3.dev225

  ==> Input File <==

--------------------------------------------------------------------------
#psi4
#
memory 32 gb

molecule  {
0 1
  N        0.1871790    -0.9111820    -0.0000020
  C        2.0846610     0.5733200    -0.0000030
  C        2.9631220    -0.4040200    -0.7474220
  C        2.9631210    -0.4040120     0.7474270
  C        0.6178930     0.3663440    -0.0000030
  C       -0.2752490     1.4465330    -0.0000020
  C       -1.6439530     1.1986260     0.0000010
  C       -2.1750103    -0.3102088     0.0000033
  C       -1.1379910    -1.1285870     0.0000010
  C       -3.5774520    -0.4452540     0.0000000
  H        2.4036780     1.6130560    -0.0000090
  H        3.8277670    -0.0076600    -1.2704010
  H        2.4452750    -1.2187140    -1.2419740
  H        2.4452760    -1.2187020     1.2419880
  H        3.8277650    -0.0076460     1.2704030
  H        0.1039660     2.4659580    -0.0000030
  H       -2.3510000     2.0273860     0.0000010
  H       -1.4419230    -2.1762520     0.0000020
  H       -4.0731050    -0.0303320     0.8832920
  H       -3.7381210    -1.5268000     0.0000420
  H       -4.0730850    -0.0304030    -0.8833370
units angstrom
no_reorient  #important for SAPT in psi4, default
symmetry c1  #important for SAPT in psi4, default
}

set PROPERTIES_ORIGIN ["COM"]
properties('MP2/aug-cc-pvtz', properties = ['dipole'])
--------------------------------------------------------------------------

    Molecular point group: c1
  Charge       = 0
  Multiplicity = 1
  Basis Set: AUG-CC-PVTZ
    Blend: AUG-CC-PVTZ
  Basis Set: (AUG-CC-PVTZ AUX)
    Blend: AUG-CC-PVTZ-JKFIT

    Orbital Energies [Eh]
    ---------------------

    Doubly Occupied:

       1A    -15.549881     2A    -11.283245     3A    -11.268078
       4A    -11.252303     5A    -11.242019     6A    -11.236063
       7A    -11.234117     8A    -11.226750     9A    -11.224367
      10A    -11.223673    11A     -1.247292    12A     -1.143020
      13A     -1.087477    14A     -1.050968    15A     -0.959836
      16A     -0.882516    17A     -0.817316    18A     -0.817063
      19A     -0.783203    20A     -0.700448    21A     -0.662119
      22A     -0.641175    23A     -0.633030    24A     -0.602137
      25A     -0.591898    26A     -0.583964    27A     -0.558210
      28A     -0.534970    29A     -0.516309    30A     -0.504898
      31A     -0.466635    32A     -0.429606    33A     -0.426327
      34A     -0.406056    35A     -0.364075    36A     -0.317020

  @DF-RHF Final Energy:  -401.73123818176686

   => Energetics <=

    Nuclear Repulsion Energy =            488.0694661155437757
    One-Electron Energy =               -1510.6652770919054092
    Two-Electron Energy =                 620.8645727945948920
    Total Energy =                       -401.7312381817667983
  Basis Set: (AUG-CC-PVTZ AUX)
    Blend: AUG-CC-PVTZ-RI
    Molecular point group: c1

    Geometry (in Angstrom), charge = 0, multiplicity = 1:

       Center              X                  Y                   Z               Mass
    ------------   -----------------  -----------------  -----------------  -----------------
         N            0.188513475231    -0.894971623764    -0.000002027239    14.003074004430
         C            2.085995475231     0.589530376236    -0.000003027239    12.000000000000
         C            2.964456475231    -0.387809623764    -0.747422027239    12.000000000000
         C            2.964455475231    -0.387801623764     0.747426972761    12.000000000000
         C            0.619227475231     0.382554376236    -0.000003027239    12.000000000000
         C           -0.273914524769     1.462743376236    -0.000002027239    12.000000000000
         C           -1.642618524769     1.214836376236     0.000000972761    12.000000000000
         C           -2.173675824769    -0.293998423764     0.000003272761    12.000000000000
         C           -1.136656524769    -1.112376623764     0.000000972761    12.000000000000
         C           -3.576117524769    -0.429043623764    -0.000000027239    12.000000000000
         H            2.405012475231     1.629266376236    -0.000009027239     1.007825032230
         H            3.829101475231     0.008550376236    -1.270401027239     1.007825032230
         H            2.446609475231    -1.202503623764    -1.241974027239     1.007825032230
         H            2.446610475231    -1.202491623764     1.241987972761     1.007825032230
         H            3.829099475231     0.008564376236     1.270402972761     1.007825032230
         H            0.105300475231     2.482168376236    -0.000003027239     1.007825032230
         H           -2.349665524769     2.043596376236     0.000000972761     1.007825032230
         H           -1.440588524769    -2.160041623764     0.000001972761     1.007825032230
         H           -4.071770524769    -0.014121623764     0.883291972761     1.007825032230
         H           -3.736786524769    -1.510589623764     0.000041972761     1.007825032230
         H           -4.071750524769    -0.014192623764    -0.883337027239     1.007825032230

  Basis Set: AUG-CC-PVTZ
    Blend: AUG-CC-PVTZ
  Basis Set: (AUG-CC-PVTZ AUX)
    Blend: AUG-CC-PVTZ-JKFIT
	 Reference Energy          =    -401.7312381817668552 [Eh]
	 Singles Energy            =      -0.0000000000000000 [Eh]
	 Same-Spin Energy          =      -0.4459850842249187 [Eh]
	 Opposite-Spin Energy      =      -1.4341514918215235 [Eh]
	 Correlation Energy        =      -1.8801365760464421 [Eh]
	 Total Energy              =    -403.6113747578132802 [Eh]

	 ================> DF-SCS-MP2 Energies <==================
	-----------------------------------------------------------
	 SCS Same-Spin Scale       =       0.3333333333333333 [-]
	 SCS Opposite-Spin Scale   =       1.2000000000000000 [-]
	 SCS Same-Spin Energy      =      -0.1486616947416396 [Eh]
	 SCS Opposite-Spin Energy  =      -1.7209817901858282 [Eh]
	 SCS Correlation Energy    =      -1.8696434849274677 [Eh]
	 SCS Total Energy          =    -403.6008816666943062 [Eh]
	-----------------------------------------------------------

  Dipole Moment: [D]
     X:    -1.3005      Y:     1.5972      Z:    -0.0000     Total:     2.0597

*** Psi4 exiting successfully. Buy a developer a beer!
