                               Psi4 1.4a3.dev225

  ==> Input File <==

--------------------------------------------------------------------------
#psi4
#
memory 32 gb

molecule  {
0 1
  N        0.1871790    -0.9111820    -0.0000020
  C        2.0846610     0.5733200    -0.0000030
  C        2.9631220    -0.4040200    -0.7474220
  C        2.9631210    -0.4040120     0.7474270
  C        0.6178930     0.3663440    -0.0000030
  C       -0.2752490     1.4465330    -0.0000020
  C       -1.6439530     1.1986260     0.0000010
  C       -2.1086100    -0.1215530     0.0000030
  C       -1.1205637    -1.1114940     0.0000011
  C       -3.5774520    -0.4452540     0.0000000
  H        2.4036780     1.6130560    -0.0000090
  H        3.8277670    -0.0076600    -1.2704010
  H        2.4452750    -1.2187140    -1.2419740
  H        2.4452760    -1.2187020     1.2419880
  H        3.8277650    -0.0076460     1.2704030
  H        0.1039660     2.4659580    -0.0000030
  H       -2.3510000     2.0273860     0.0000010
  H       -1.4419230    -2.1762520     0.0000020
  H       -4.0731050    -0.0303320     0.8832920
  H       -3.7381210    -1.5268000     0.0000420
  H       -4.0730850    -0.0304030    -0.8833370
units angstrom
no_reorient  #important for SAPT in psi4, default
symmetry c1  #important for SAPT in psi4, default
}

set PROPERTIES_ORIGIN ["COM"]
properties('MP2/aug-cc-pvtz', properties = ['dipole'])
--------------------------------------------------------------------------

    Molecular point group: c1
  Charge       = 0
  Multiplicity = 1
  Basis Set: AUG-CC-PVTZ
    Blend: AUG-CC-PVTZ
  Basis Set: (AUG-CC-PVTZ AUX)
    Blend: AUG-CC-PVTZ-JKFIT

    Orbital Energies [Eh]
    ---------------------

    Doubly Occupied:

       1A    -15.554918     2A    -11.276416     3A    -11.267775
       4A    -11.251465     5A    -11.238902     6A    -11.233201
       7A    -11.231561     8A    -11.229740     9A    -11.221840
      10A    -11.221147    11A     -1.257083    12A     -1.141523
      13A     -1.093082    14A     -1.042213    15A     -0.951725
      16A     -0.866141    17A     -0.840348    18A     -0.815219
      19A     -0.782796    20A     -0.700698    21A     -0.667482
      22A     -0.639622    23A     -0.624083    24A     -0.599097
      25A     -0.584275    26A     -0.563771    27A     -0.550340
      28A     -0.537497    29A     -0.528089    30A     -0.504801
      31A     -0.498108    32A     -0.430117    33A     -0.427369
      34A     -0.406848    35A     -0.374788    36A     -0.312001

  @DF-RHF Final Energy:  -401.77366380520959

   => Energetics <=

    Nuclear Repulsion Energy =            489.4471400255431490
    One-Electron Energy =               -1513.5094440489788212
    Two-Electron Energy =                 622.2886402182260781
    Total Energy =                       -401.7736638052095941
  Basis Set: (AUG-CC-PVTZ AUX)
    Blend: AUG-CC-PVTZ-RI
    Molecular point group: c1

    Geometry (in Angstrom), charge = 0, multiplicity = 1:

       Center              X                  Y                   Z               Mass
    ------------   -----------------  -----------------  -----------------  -----------------
         N            0.180955149065    -0.913522990363    -0.000002009205    14.003074004430
         C            2.078437149065     0.570979009637    -0.000003009205    12.000000000000
         C            2.956898149065    -0.406360990363    -0.747422009205    12.000000000000
         C            2.956897149065    -0.406352990363     0.747426990795    12.000000000000
         C            0.611669149065     0.364003009637    -0.000003009205    12.000000000000
         C           -0.281472850935     1.444192009637    -0.000002009205    12.000000000000
         C           -1.650176850935     1.196285009637     0.000000990795    12.000000000000
         C           -2.114833850935    -0.123893990363     0.000002990795    12.000000000000
         C           -1.126787550935    -1.113834990363     0.000001090795    12.000000000000
         C           -3.583675850935    -0.447594990363    -0.000000009205    12.000000000000
         H            2.397454149065     1.610715009637    -0.000009009205     1.007825032230
         H            3.821543149065    -0.010000990363    -1.270401009205     1.007825032230
         H            2.439051149065    -1.221054990363    -1.241974009205     1.007825032230
         H            2.439052149065    -1.221042990363     1.241987990795     1.007825032230
         H            3.821541149065    -0.009986990363     1.270402990795     1.007825032230
         H            0.097742149065     2.463617009637    -0.000003009205     1.007825032230
         H           -2.357223850935     2.025045009637     0.000000990795     1.007825032230
         H           -1.448146850935    -2.178592990363     0.000001990795     1.007825032230
         H           -4.079328850935    -0.032672990363     0.883291990795     1.007825032230
         H           -3.744344850935    -1.529140990363     0.000041990795     1.007825032230
         H           -4.079308850935    -0.032743990363    -0.883337009205     1.007825032230

  Basis Set: AUG-CC-PVTZ
    Blend: AUG-CC-PVTZ
  Basis Set: (AUG-CC-PVTZ AUX)
    Blend: AUG-CC-PVTZ-JKFIT
	 Reference Energy          =    -401.7736638052095941 [Eh]
	 Singles Energy            =      -0.0000000000000000 [Eh]
	 Same-Spin Energy          =      -0.4458328308708509 [Eh]
	 Opposite-Spin Energy      =      -1.4312516588169770 [Eh]
	 Correlation Energy        =      -1.8770844896878280 [Eh]
	 Total Energy              =    -403.6507482948974257 [Eh]

	 ================> DF-SCS-MP2 Energies <==================
	-----------------------------------------------------------
	 SCS Same-Spin Scale       =       0.3333333333333333 [-]
	 SCS Opposite-Spin Scale   =       1.2000000000000000 [-]
	 SCS Same-Spin Energy      =      -0.1486109436236170 [Eh]
	 SCS Opposite-Spin Energy  =      -1.7175019905803723 [Eh]
	 SCS Correlation Energy    =      -1.8661129342039893 [Eh]
	 SCS Total Energy          =    -403.6397767394136054 [Eh]
	-----------------------------------------------------------

  Dipole Moment: [D]
     X:    -1.2945      Y:     1.4776      Z:    -0.0000     Total:     1.9644

*** Psi4 exiting successfully. Buy a developer a beer!
