                               Psi4 1.4a3.dev225

  ==> Input File <==

--------------------------------------------------------------------------
#psi4
#
memory 32 gb

molecule  {
0 1
  N        0.1871790    -0.9111820    -0.0000020
  C        2.0846610     0.5733200    -0.0000030
  C        2.9631220    -0.4040200    -0.7474220
  C        2.9631210    -0.4040120     0.7474270
  C        0.6178930     0.3663440    -0.0000030
  C       -0.2752490     1.4465330    -0.0000020
  C       -1.6439530     1.1986260     0.0000010
  C       -2.1086100    -0.1215530     0.0000030
  C       -1.1379910    -1.1285870     0.0000010
  C       -3.5774520    -0.4452540     0.0000000
  H        2.4036780     1.6130560    -0.0000090
  H        3.8277670    -0.0076600    -1.2704010
  H        2.5407612    -1.0684920    -1.1507832
  H        2.4452760    -1.2187020     1.2419880
  H        3.8277650    -0.0076460     1.2704030
  H        0.1039660     2.4659580    -0.0000030
  H       -2.3510000     2.0273860     0.0000010
  H       -1.4419230    -2.1762520     0.0000020
  H       -4.0731050    -0.0303320     0.8832920
  H       -3.7381210    -1.5268000     0.0000420
  H       -4.0730850    -0.0304030    -0.8833370
units angstrom
no_reorient  #important for SAPT in psi4, default
symmetry c1  #important for SAPT in psi4, default
}

set PROPERTIES_ORIGIN ["COM"]
properties('MP2/aug-cc-pvtz', properties = ['dipole'])
--------------------------------------------------------------------------

    Molecular point group: c1
  Charge       = 0
  Multiplicity = 1
  Basis Set: AUG-CC-PVTZ
    Blend: AUG-CC-PVTZ
  Basis Set: (AUG-CC-PVTZ AUX)
    Blend: AUG-CC-PVTZ-JKFIT

    Orbital Energies [Eh]
    ---------------------

    Doubly Occupied:

       1A    -15.555752     2A    -11.276136     3A    -11.267790
       4A    -11.251732     5A    -11.239362     6A    -11.233691
       7A    -11.230622     8A    -11.229244     9A    -11.220482
      10A    -11.198847    11A     -1.251334    12A     -1.144787
      13A     -1.091760    14A     -1.042999    15A     -0.951800
      16A     -0.870358    17A     -0.845884    18A     -0.835670
      19A     -0.783656    20A     -0.706624    21A     -0.670476
      22A     -0.641482    23A     -0.626198    24A     -0.608722
      25A     -0.583697    26A     -0.564699    27A     -0.550415
      28A     -0.537704    29A     -0.532662    30A     -0.515527
      31A     -0.498968    32A     -0.430879    33A     -0.427373
      34A     -0.406043    35A     -0.372543    36A     -0.312501

  @DF-RHF Final Energy:  -401.73831912842883

   => Energetics <=

    Nuclear Repulsion Energy =            489.9501933910452749
    One-Electron Energy =               -1514.3601837529834029
    Two-Electron Energy =                 622.6716712335093007
    Total Energy =                       -401.7383191284287705
  Basis Set: (AUG-CC-PVTZ AUX)
    Blend: AUG-CC-PVTZ-RI
    Molecular point group: c1

    Geometry (in Angstrom), charge = 0, multiplicity = 1:

       Center              X                  Y                   Z               Mass
    ------------   -----------------  -----------------  -----------------  -----------------
         N            0.181803409182    -0.913119362356    -0.000692547626    14.003074004430
         C            2.079285409182     0.571382637644    -0.000693547626    12.000000000000
         C            2.957746409182    -0.405957362356    -0.748112547626    12.000000000000
         C            2.957745409182    -0.405949362356     0.746736452374    12.000000000000
         C            0.612517409182     0.364406637644    -0.000693547626    12.000000000000
         C           -0.280624590818     1.444595637644    -0.000692547626    12.000000000000
         C           -1.649328590818     1.196688637644    -0.000689547626    12.000000000000
         C           -2.113985590818    -0.123490362356    -0.000687547626    12.000000000000
         C           -1.143366590818    -1.130524362356    -0.000689547626    12.000000000000
         C           -3.582827590818    -0.447191362356    -0.000690547626    12.000000000000
         H            2.398302409182     1.611118637644    -0.000699547626     1.007825032230
         H            3.822391409182    -0.009597362356    -1.271091547626     1.007825032230
         H            2.535385609182    -1.070429362356    -1.151473747626     1.007825032230
         H            2.439900409182    -1.220639362356     1.241297452374     1.007825032230
         H            3.822389409182    -0.009583362356     1.269712452374     1.007825032230
         H            0.098590409182     2.464020637644    -0.000693547626     1.007825032230
         H           -2.356375590818     2.025448637644    -0.000689547626     1.007825032230
         H           -1.447298590818    -2.178189362356    -0.000688547626     1.007825032230
         H           -4.078480590818    -0.032269362356     0.882601452374     1.007825032230
         H           -3.743496590818    -1.528737362356    -0.000648547626     1.007825032230
         H           -4.078460590818    -0.032340362356    -0.884027547626     1.007825032230

  Basis Set: AUG-CC-PVTZ
    Blend: AUG-CC-PVTZ
  Basis Set: (AUG-CC-PVTZ AUX)
    Blend: AUG-CC-PVTZ-JKFIT
	 Reference Energy          =    -401.7383191284288273 [Eh]
	 Singles Energy            =      -0.0000000000000000 [Eh]
	 Same-Spin Energy          =      -0.4457438175601060 [Eh]
	 Opposite-Spin Energy      =      -1.4310661391213246 [Eh]
	 Correlation Energy        =      -1.8768099566814307 [Eh]
	 Total Energy              =    -403.6151290851102544 [Eh]

	 ================> DF-SCS-MP2 Energies <==================
	-----------------------------------------------------------
	 SCS Same-Spin Scale       =       0.3333333333333333 [-]
	 SCS Opposite-Spin Scale   =       1.2000000000000000 [-]
	 SCS Same-Spin Energy      =      -0.1485812725200353 [Eh]
	 SCS Opposite-Spin Energy  =      -1.7172793669455895 [Eh]
	 SCS Correlation Energy    =      -1.8658606394656247 [Eh]
	 SCS Total Energy          =    -403.6041797678944363 [Eh]
	-----------------------------------------------------------

  Dipole Moment: [D]
     X:    -1.2979      Y:     1.4544      Z:    -0.0238     Total:     1.9495

*** Psi4 exiting successfully. Buy a developer a beer!
