                               Psi4 1.4a3.dev225

  ==> Input File <==

--------------------------------------------------------------------------
#psi4
#
memory 32 gb

molecule  {
0 1
  N        0.1871790    -0.9111820    -0.0000020
  C        2.0846610     0.5733200    -0.0000030
  C        2.9631220    -0.4040200    -0.7474220
  C        2.9631210    -0.4040120     0.7474270
  C        0.6178930     0.3663440    -0.0000030
  C       -0.2752490     1.4465330    -0.0000020
  C       -1.6439530     1.1986260     0.0000010
  C       -2.1086100    -0.1215530     0.0000030
  C       -1.1379910    -1.1285870     0.0000010
  C       -3.5774520    -0.4452540     0.0000000
  H        2.4036780     1.6130560    -0.0000090
  H        3.7879384    -0.0259177    -1.2463108
  H        2.4452750    -1.2187140    -1.2419740
  H        2.4452760    -1.2187020     1.2419880
  H        3.8277650    -0.0076460     1.2704030
  H        0.1039660     2.4659580    -0.0000030
  H       -2.3510000     2.0273860     0.0000010
  H       -1.4419230    -2.1762520     0.0000020
  H       -4.0731050    -0.0303320     0.8832920
  H       -3.7381210    -1.5268000     0.0000420
  H       -4.0730850    -0.0304030    -0.8833370
units angstrom
no_reorient  #important for SAPT in psi4, default
symmetry c1  #important for SAPT in psi4, default
}

set PROPERTIES_ORIGIN ["COM"]
properties('MP2/aug-cc-pvtz', properties = ['dipole'])
--------------------------------------------------------------------------

    Molecular point group: c1
  Charge       = 0
  Multiplicity = 1
  Basis Set: AUG-CC-PVTZ
    Blend: AUG-CC-PVTZ
  Basis Set: (AUG-CC-PVTZ AUX)
    Blend: AUG-CC-PVTZ-JKFIT

    Orbital Energies [Eh]
    ---------------------

    Doubly Occupied:

       1A    -15.555467     2A    -11.275950     3A    -11.267580
       4A    -11.251524     5A    -11.239210     6A    -11.233607
       7A    -11.231082     8A    -11.229136     9A    -11.220890
      10A    -11.215277    11A     -1.250979    12A     -1.141284
      13A     -1.091469    14A     -1.042410    15A     -0.951111
      16A     -0.867404    17A     -0.840477    18A     -0.819758
      19A     -0.781555    20A     -0.701431    21A     -0.667508
      22A     -0.642094    23A     -0.626528    24A     -0.600733
      25A     -0.583620    26A     -0.564575    27A     -0.549484
      28A     -0.536689    29A     -0.528398    30A     -0.506745
      31A     -0.498990    32A     -0.429523    33A     -0.427045
      34A     -0.406144    35A     -0.372292    36A     -0.312553

  @DF-RHF Final Energy:  -401.77277528025888

   => Energetics <=

    Nuclear Repulsion Energy =            489.2717999123527193
    One-Electron Energy =               -1513.1681120971670680
    Two-Electron Energy =                 622.1235369045555217
    Total Energy =                       -401.7727752802588839
  Basis Set: (AUG-CC-PVTZ AUX)
    Blend: AUG-CC-PVTZ-RI
    Molecular point group: c1

    Geometry (in Angstrom), charge = 0, multiplicity = 1:

       Center              X                  Y                   Z               Mass
    ------------   -----------------  -----------------  -----------------  -----------------
         N            0.182828088078    -0.911843540399    -0.000184424577    14.003074004430
         C            2.080310088078     0.572658459601    -0.000185424577    12.000000000000
         C            2.958771088078    -0.404681540399    -0.747604424577    12.000000000000
         C            2.958770088078    -0.404673540399     0.747244575423    12.000000000000
         C            0.613542088078     0.365682459601    -0.000185424577    12.000000000000
         C           -0.279599911922     1.445871459601    -0.000184424577    12.000000000000
         C           -1.648303911922     1.197964459601    -0.000181424577    12.000000000000
         C           -2.112960911922    -0.122214540399    -0.000179424577    12.000000000000
         C           -1.142341911922    -1.129248540399    -0.000181424577    12.000000000000
         C           -3.581802911922    -0.445915540399    -0.000182424577    12.000000000000
         H            2.399327088078     1.612394459601    -0.000191424577     1.007825032230
         H            3.783587488078    -0.026579240399    -1.246493224577     1.007825032230
         H            2.440924088078    -1.219375540399    -1.242156424577     1.007825032230
         H            2.440925088078    -1.219363540399     1.241805575423     1.007825032230
         H            3.823414088078    -0.008307540399     1.270220575423     1.007825032230
         H            0.099615088078     2.465296459601    -0.000185424577     1.007825032230
         H           -2.355350911922     2.026724459601    -0.000181424577     1.007825032230
         H           -1.446273911922    -2.176913540399    -0.000180424577     1.007825032230
         H           -4.077455911922    -0.030993540399     0.883109575423     1.007825032230
         H           -3.742471911922    -1.527461540399    -0.000140424577     1.007825032230
         H           -4.077435911922    -0.031064540399    -0.883519424577     1.007825032230

  Basis Set: AUG-CC-PVTZ
    Blend: AUG-CC-PVTZ
  Basis Set: (AUG-CC-PVTZ AUX)
    Blend: AUG-CC-PVTZ-JKFIT
	 Reference Energy          =    -401.7727752802588839 [Eh]
	 Singles Energy            =      -0.0000000000000000 [Eh]
	 Same-Spin Energy          =      -0.4459412647519407 [Eh]
	 Opposite-Spin Energy      =      -1.4314139952886547 [Eh]
	 Correlation Energy        =      -1.8773552600405954 [Eh]
	 Total Energy              =    -403.6501305402994717 [Eh]

	 ================> DF-SCS-MP2 Energies <==================
	-----------------------------------------------------------
	 SCS Same-Spin Scale       =       0.3333333333333333 [-]
	 SCS Opposite-Spin Scale   =       1.2000000000000000 [-]
	 SCS Same-Spin Energy      =      -0.1486470882506469 [Eh]
	 SCS Opposite-Spin Energy  =      -1.7176967943463854 [Eh]
	 SCS Correlation Energy    =      -1.8663438825970324 [Eh]
	 SCS Total Energy          =    -403.6391191628559341 [Eh]
	-----------------------------------------------------------

  Dipole Moment: [D]
     X:    -1.2923      Y:     1.4553      Z:    -0.0151     Total:     1.9463

*** Psi4 exiting successfully. Buy a developer a beer!
