                               Psi4 1.4a3.dev225

  ==> Input File <==

--------------------------------------------------------------------------
#psi4
#
memory 32 gb

molecule  {
0 1
  N        0.1871790    -0.9111820    -0.0000020
  C        2.0846610     0.5733200    -0.0000030
  C        2.9631220    -0.4040200    -0.7474220
  C        2.9394054    -0.4148835     0.7471994
  C        0.6178930     0.3663440    -0.0000030
  C       -0.2752490     1.4465330    -0.0000020
  C       -1.6439530     1.1986260     0.0000010
  C       -2.1086100    -0.1215530     0.0000030
  C       -1.1379910    -1.1285870     0.0000010
  C       -3.5774520    -0.4452540     0.0000000
  H        2.4036780     1.6130560    -0.0000090
  H        3.8277670    -0.0076600    -1.2704010
  H        2.4452750    -1.2187140    -1.2419740
  H        2.4452760    -1.2187020     1.2419880
  H        3.8277650    -0.0076460     1.2704030
  H        0.1039660     2.4659580    -0.0000030
  H       -2.3510000     2.0273860     0.0000010
  H       -1.4419230    -2.1762520     0.0000020
  H       -4.0731050    -0.0303320     0.8832920
  H       -3.7381210    -1.5268000     0.0000420
  H       -4.0730850    -0.0304030    -0.8833370
units angstrom
no_reorient  #important for SAPT in psi4, default
symmetry c1  #important for SAPT in psi4, default
}

set PROPERTIES_ORIGIN ["COM"]
properties('MP2/aug-cc-pvtz', properties = ['dipole'])
--------------------------------------------------------------------------

    Molecular point group: c1
  Charge       = 0
  Multiplicity = 1
  Basis Set: AUG-CC-PVTZ
    Blend: AUG-CC-PVTZ
  Basis Set: (AUG-CC-PVTZ AUX)
    Blend: AUG-CC-PVTZ-JKFIT

    Orbital Energies [Eh]
    ---------------------

    Doubly Occupied:

       1A    -15.555621     2A    -11.275973     3A    -11.267773
       4A    -11.251666     5A    -11.239325     6A    -11.233680
       7A    -11.231386     8A    -11.229232     9A    -11.221493
      10A    -11.220730    11A     -1.251305    12A     -1.142062
      13A     -1.091557    14A     -1.042382    15A     -0.950877
      16A     -0.867425    17A     -0.839893    18A     -0.814935
      19A     -0.781562    20A     -0.701632    21A     -0.667142
      22A     -0.637704    23A     -0.625805    24A     -0.602559
      25A     -0.583674    26A     -0.564609    27A     -0.549345
      28A     -0.534739    29A     -0.528155    30A     -0.504196
      31A     -0.498690    32A     -0.431037    33A     -0.426626
      34A     -0.406127    35A     -0.372416    36A     -0.312764

  @DF-RHF Final Energy:  -401.77291818337380

   => Energetics <=

    Nuclear Repulsion Energy =            489.2788822796742920
    One-Electron Energy =               -1513.1914063286440069
    Two-Electron Energy =                 622.1396058655959678
    Total Energy =                       -401.7729181833738039
  Basis Set: (AUG-CC-PVTZ AUX)
    Blend: AUG-CC-PVTZ-RI
    Molecular point group: c1

    Geometry (in Angstrom), charge = 0, multiplicity = 1:

       Center              X                  Y                   Z               Mass
    ------------   -----------------  -----------------  -----------------  -----------------
         N            0.184664803852    -0.911001567680     0.000018521394    14.003074004430
         C            2.082146803852     0.573500432320     0.000017521394    12.000000000000
         C            2.960607803852    -0.403839567680    -0.747401478606    12.000000000000
         C            2.936891203852    -0.414703067680     0.747219921394    12.000000000000
         C            0.615378803852     0.366524432320     0.000017521394    12.000000000000
         C           -0.277763196148     1.446713432320     0.000018521394    12.000000000000
         C           -1.646467196148     1.198806432320     0.000021521394    12.000000000000
         C           -2.111124196148    -0.121372567680     0.000023521394    12.000000000000
         C           -1.140505196148    -1.128406567680     0.000021521394    12.000000000000
         C           -3.579966196148    -0.445073567680     0.000020521394    12.000000000000
         H            2.401163803852     1.613236432320     0.000011521394     1.007825032230
         H            3.825252803852    -0.007479567680    -1.270380478606     1.007825032230
         H            2.442760803852    -1.218533567680    -1.241953478606     1.007825032230
         H            2.442761803852    -1.218521567680     1.242008521394     1.007825032230
         H            3.825250803852    -0.007465567680     1.270423521394     1.007825032230
         H            0.101451803852     2.466138432320     0.000017521394     1.007825032230
         H           -2.353514196148     2.027566432320     0.000021521394     1.007825032230
         H           -1.444437196148    -2.176071567680     0.000022521394     1.007825032230
         H           -4.075619196148    -0.030151567680     0.883312521394     1.007825032230
         H           -3.740635196148    -1.526619567680     0.000062521394     1.007825032230
         H           -4.075599196148    -0.030222567680    -0.883316478606     1.007825032230

  Basis Set: AUG-CC-PVTZ
    Blend: AUG-CC-PVTZ
  Basis Set: (AUG-CC-PVTZ AUX)
    Blend: AUG-CC-PVTZ-JKFIT
	 Reference Energy          =    -401.7729181833738039 [Eh]
	 Singles Energy            =      -0.0000000000000000 [Eh]
	 Same-Spin Energy          =      -0.4459597384774300 [Eh]
	 Opposite-Spin Energy      =      -1.4316705035247634 [Eh]
	 Correlation Energy        =      -1.8776302420021933 [Eh]
	 Total Energy              =    -403.6505484253759732 [Eh]

	 ================> DF-SCS-MP2 Energies <==================
	-----------------------------------------------------------
	 SCS Same-Spin Scale       =       0.3333333333333333 [-]
	 SCS Opposite-Spin Scale   =       1.2000000000000000 [-]
	 SCS Same-Spin Energy      =      -0.1486532461591433 [Eh]
	 SCS Opposite-Spin Energy  =      -1.7180046042297161 [Eh]
	 SCS Correlation Energy    =      -1.8666578503888593 [Eh]
	 SCS Total Energy          =    -403.6395760337626371 [Eh]
	-----------------------------------------------------------

  Dipole Moment: [D]
     X:    -1.3154      Y:     1.4508      Z:    -0.0032     Total:     1.9583

*** Psi4 exiting successfully. Buy a developer a beer!
