                               Psi4 1.4a3.dev225

  ==> Input File <==

--------------------------------------------------------------------------
#psi4
#
memory 32 gb

molecule  {
0 1
  N        0.1871790    -0.9111820    -0.0000020
  C        2.0846610     0.5733200    -0.0000030
  C        2.9631220    -0.4040200    -0.7474220
  C        2.9631210    -0.4040120     0.7474270
  C        0.6178930     0.3663440    -0.0000030
  C       -0.2752490     1.4465330    -0.0000020
  C       -1.6439530     1.1986260     0.0000010
  C       -2.1086100    -0.1215530     0.0000030
  C       -1.1379910    -1.1285870     0.0000010
  C       -3.5774520    -0.4452540     0.0000000
  H        2.4036780     1.6130560    -0.0000090
  H        3.8436984    -0.0003569    -1.2800371
  H        2.4452750    -1.2187140    -1.2419740
  H        2.4452760    -1.2187020     1.2419880
  H        3.8277650    -0.0076460     1.2704030
  H        0.1039660     2.4659580    -0.0000030
  H       -2.3510000     2.0273860     0.0000010
  H       -1.4419230    -2.1762520     0.0000020
  H       -4.0731050    -0.0303320     0.8832920
  H       -3.7381210    -1.5268000     0.0000420
  H       -4.0730850    -0.0304030    -0.8833370
units angstrom
no_reorient  #important for SAPT in psi4, default
symmetry c1  #important for SAPT in psi4, default
}

set PROPERTIES_ORIGIN ["COM"]
properties('MP2/aug-cc-pvtz', properties = ['dipole'])
--------------------------------------------------------------------------

    Molecular point group: c1
  Charge       = 0
  Multiplicity = 1
  Basis Set: AUG-CC-PVTZ
    Blend: AUG-CC-PVTZ
  Basis Set: (AUG-CC-PVTZ AUX)
    Blend: AUG-CC-PVTZ-JKFIT

    Orbital Energies [Eh]
    ---------------------

    Doubly Occupied:

       1A    -15.555812     2A    -11.276221     3A    -11.267820
       4A    -11.251750     5A    -11.239485     6A    -11.233885
       7A    -11.231523     8A    -11.229314     9A    -11.223586
      10A    -11.221317    11A     -1.251282    12A     -1.140733
      13A     -1.091648    14A     -1.042476    15A     -0.951015
      16A     -0.867363    17A     -0.839989    18A     -0.813197
      19A     -0.781197    20A     -0.700951    21A     -0.666593
      22A     -0.638029    23A     -0.625944    24A     -0.600999
      25A     -0.583762    26A     -0.564709    27A     -0.549420
      28A     -0.534999    29A     -0.527946    30A     -0.503047
      31A     -0.498696    32A     -0.429449    33A     -0.427333
      34A     -0.406465    35A     -0.372517    36A     -0.312774

  @DF-RHF Final Energy:  -401.77313102880544

   => Energetics <=

    Nuclear Repulsion Energy =            488.9205627401817651
    One-Electron Energy =               -1512.4808936137067121
    Two-Electron Energy =                 621.7871998447194528
    Total Energy =                       -401.7731310288054374
  Basis Set: (AUG-CC-PVTZ AUX)
    Blend: AUG-CC-PVTZ-RI
    Molecular point group: c1

    Geometry (in Angstrom), charge = 0, multiplicity = 1:

       Center              X                  Y                   Z               Mass
    ------------   -----------------  -----------------  -----------------  -----------------
         N            0.182405842357    -0.912037100987     0.000070969718    14.003074004430
         C            2.079887842357     0.572464899013     0.000069969718    12.000000000000
         C            2.958348842357    -0.404875100987    -0.747349030282    12.000000000000
         C            2.958347842357    -0.404867100987     0.747499969718    12.000000000000
         C            0.613119842357     0.365488899013     0.000069969718    12.000000000000
         C           -0.280022157643     1.445677899013     0.000070969718    12.000000000000
         C           -1.648726157643     1.197770899013     0.000073969718    12.000000000000
         C           -2.113383157643    -0.122408100987     0.000075969718    12.000000000000
         C           -1.142764157643    -1.129442100987     0.000073969718    12.000000000000
         C           -3.582225157643    -0.446109100987     0.000072969718    12.000000000000
         H            2.398904842357     1.612200899013     0.000063969718     1.007825032230
         H            3.838925242357    -0.001212000987    -1.279964130282     1.007825032230
         H            2.440501842357    -1.219569100987    -1.241901030282     1.007825032230
         H            2.440502842357    -1.219557100987     1.242060969718     1.007825032230
         H            3.822991842357    -0.008501100987     1.270475969718     1.007825032230
         H            0.099192842357     2.465102899013     0.000069969718     1.007825032230
         H           -2.355773157643     2.026530899013     0.000073969718     1.007825032230
         H           -1.446696157643    -2.177107100987     0.000074969718     1.007825032230
         H           -4.077878157643    -0.031187100987     0.883364969718     1.007825032230
         H           -3.742894157643    -1.527655100987     0.000114969718     1.007825032230
         H           -4.077858157643    -0.031258100987    -0.883264030282     1.007825032230

  Basis Set: AUG-CC-PVTZ
    Blend: AUG-CC-PVTZ
  Basis Set: (AUG-CC-PVTZ AUX)
    Blend: AUG-CC-PVTZ-JKFIT
	 Reference Energy          =    -401.7731310288054374 [Eh]
	 Singles Energy            =      -0.0000000000000000 [Eh]
	 Same-Spin Energy          =      -0.4459579825701988 [Eh]
	 Opposite-Spin Energy      =      -1.4317824014950704 [Eh]
	 Correlation Energy        =      -1.8777403840652691 [Eh]
	 Total Energy              =    -403.6508714128706856 [Eh]

	 ================> DF-SCS-MP2 Energies <==================
	-----------------------------------------------------------
	 SCS Same-Spin Scale       =       0.3333333333333333 [-]
	 SCS Opposite-Spin Scale   =       1.2000000000000000 [-]
	 SCS Same-Spin Energy      =      -0.1486526608567329 [Eh]
	 SCS Opposite-Spin Energy  =      -1.7181388817940844 [Eh]
	 SCS Correlation Energy    =      -1.8667915426508173 [Eh]
	 SCS Total Energy          =    -403.6399225714562817 [Eh]
	-----------------------------------------------------------

  Dipole Moment: [D]
     X:    -1.3228      Y:     1.4552      Z:     0.0070     Total:     1.9666

*** Psi4 exiting successfully. Buy a developer a beer!
