                               Psi4 1.4a3.dev225

  ==> Input File <==

--------------------------------------------------------------------------
#psi4
#
memory 32 gb

molecule  {
0 1
  N        0.1871790    -0.9111820    -0.0000020
  C        2.0846610     0.5733200    -0.0000030
  C        2.9631220    -0.4040200    -0.7474220
  C        2.9631210    -0.4040120     0.7474270
  C        0.6178930     0.3663440    -0.0000030
  C       -0.2752490     1.4465330    -0.0000020
  C       -1.6439530     1.1986260     0.0000010
  C       -2.1086100    -0.1215530     0.0000030
  C       -1.1518704    -1.1141869     0.0000010
  C       -3.5774520    -0.4452540     0.0000000
  H        2.4036780     1.6130560    -0.0000090
  H        3.8277670    -0.0076600    -1.2704010
  H        2.4452750    -1.2187140    -1.2419740
  H        2.4452760    -1.2187020     1.2419880
  H        3.8277650    -0.0076460     1.2704030
  H        0.1039660     2.4659580    -0.0000030
  H       -2.3510000     2.0273860     0.0000010
  H       -1.4419230    -2.1762520     0.0000020
  H       -4.0731050    -0.0303320     0.8832920
  H       -3.7381210    -1.5268000     0.0000420
  H       -4.0730850    -0.0304030    -0.8833370
units angstrom
no_reorient  #important for SAPT in psi4, default
symmetry c1  #important for SAPT in psi4, default
}

set PROPERTIES_ORIGIN ["COM"]
properties('MP2/aug-cc-pvtz', properties = ['dipole'])
--------------------------------------------------------------------------

    Molecular point group: c1
  Charge       = 0
  Multiplicity = 1
  Basis Set: AUG-CC-PVTZ
    Blend: AUG-CC-PVTZ
  Basis Set: (AUG-CC-PVTZ AUX)
    Blend: AUG-CC-PVTZ-JKFIT

    Orbital Energies [Eh]
    ---------------------

    Doubly Occupied:

       1A    -15.555991     2A    -11.276396     3A    -11.266434
       4A    -11.252562     5A    -11.237412     6A    -11.234122
       7A    -11.231530     8A    -11.229217     9A    -11.221781
      10A    -11.221088    11A     -1.249433    12A     -1.141157
      13A     -1.092405    14A     -1.042946    15A     -0.950977
      16A     -0.869441    17A     -0.839610    18A     -0.815079
      19A     -0.781077    20A     -0.700110    21A     -0.667242
      22A     -0.639267    23A     -0.624989    24A     -0.600949
      25A     -0.584201    26A     -0.563952    27A     -0.549153
      28A     -0.534975    29A     -0.528246    30A     -0.504247
      31A     -0.496724    32A     -0.430014    33A     -0.428009
      34A     -0.407823    35A     -0.370758    36A     -0.315456

  @DF-RHF Final Energy:  -401.77306675723810

   => Energetics <=

    Nuclear Repulsion Energy =            489.1596087830746455
    One-Electron Energy =               -1512.9557972157092536
    Two-Electron Energy =                 622.0231216753965100
    Total Energy =                       -401.7730667572380980
  Basis Set: (AUG-CC-PVTZ AUX)
    Blend: AUG-CC-PVTZ-RI
    Molecular point group: c1

    Geometry (in Angstrom), charge = 0, multiplicity = 1:

       Center              X                  Y                   Z               Mass
    ------------   -----------------  -----------------  -----------------  -----------------
         N            0.183777921633    -0.913280184693    -0.000002000189    14.003074004430
         C            2.081259921633     0.571221815307    -0.000003000189    12.000000000000
         C            2.959720921633    -0.406118184693    -0.747422000189    12.000000000000
         C            2.959719921633    -0.406110184693     0.747426999811    12.000000000000
         C            0.614491921633     0.364245815307    -0.000003000189    12.000000000000
         C           -0.278650078367     1.444434815307    -0.000002000189    12.000000000000
         C           -1.647354078367     1.196527815307     0.000000999811    12.000000000000
         C           -2.112011078367    -0.123651184693     0.000002999811    12.000000000000
         C           -1.155271478367    -1.116285084693     0.000000999811    12.000000000000
         C           -3.580853078367    -0.447352184693    -0.000000000189    12.000000000000
         H            2.400276921633     1.610957815307    -0.000009000189     1.007825032230
         H            3.824365921633    -0.009758184693    -1.270401000189     1.007825032230
         H            2.441873921633    -1.220812184693    -1.241974000189     1.007825032230
         H            2.441874921633    -1.220800184693     1.241987999811     1.007825032230
         H            3.824363921633    -0.009744184693     1.270402999811     1.007825032230
         H            0.100564921633     2.463859815307    -0.000003000189     1.007825032230
         H           -2.354401078367     2.025287815307     0.000000999811     1.007825032230
         H           -1.445324078367    -2.178350184693     0.000001999811     1.007825032230
         H           -4.076506078367    -0.032430184693     0.883291999811     1.007825032230
         H           -3.741522078367    -1.528898184693     0.000041999811     1.007825032230
         H           -4.076486078367    -0.032501184693    -0.883337000189     1.007825032230

  Basis Set: AUG-CC-PVTZ
    Blend: AUG-CC-PVTZ
  Basis Set: (AUG-CC-PVTZ AUX)
    Blend: AUG-CC-PVTZ-JKFIT
	 Reference Energy          =    -401.7730667572380980 [Eh]
	 Singles Energy            =      -0.0000000000000000 [Eh]
	 Same-Spin Energy          =      -0.4459583347914738 [Eh]
	 Opposite-Spin Energy      =      -1.4318229145063430 [Eh]
	 Correlation Energy        =      -1.8777812492978168 [Eh]
	 Total Energy              =    -403.6508480065359095 [Eh]

	 ================> DF-SCS-MP2 Energies <==================
	-----------------------------------------------------------
	 SCS Same-Spin Scale       =       0.3333333333333333 [-]
	 SCS Opposite-Spin Scale   =       1.2000000000000000 [-]
	 SCS Same-Spin Energy      =      -0.1486527782638246 [Eh]
	 SCS Opposite-Spin Energy  =      -1.7181874974076117 [Eh]
	 SCS Correlation Energy    =      -1.8668402756714362 [Eh]
	 SCS Total Energy          =    -403.6399070329095480 [Eh]
	-----------------------------------------------------------

  Dipole Moment: [D]
     X:    -1.3017      Y:     1.4837      Z:    -0.0000     Total:     1.9738

*** Psi4 exiting successfully. Buy a developer a beer!
