                               Psi4 1.4a3.dev225

  ==> Input File <==

--------------------------------------------------------------------------
#psi4
#
memory 32 gb

molecule  {
0 1
  N        0.1871790    -0.9111820    -0.0000020
  C        2.0846610     0.5733200    -0.0000030
  C        2.9631220    -0.4040200    -0.7474220
  C        3.0793352    -0.5333063     0.8463069
  C        0.6178930     0.3663440    -0.0000030
  C       -0.2752490     1.4465330    -0.0000020
  C       -1.6439530     1.1986260     0.0000010
  C       -2.1086100    -0.1215530     0.0000030
  C       -1.1379910    -1.1285870     0.0000010
  C       -3.5774520    -0.4452540     0.0000000
  H        2.4036780     1.6130560    -0.0000090
  H        3.8277670    -0.0076600    -1.2704010
  H        2.4452750    -1.2187140    -1.2419740
  H        2.4452760    -1.2187020     1.2419880
  H        3.8277650    -0.0076460     1.2704030
  H        0.1039660     2.4659580    -0.0000030
  H       -2.3510000     2.0273860     0.0000010
  H       -1.4419230    -2.1762520     0.0000020
  H       -4.0731050    -0.0303320     0.8832920
  H       -3.7381210    -1.5268000     0.0000420
  H       -4.0730850    -0.0304030    -0.8833370
units angstrom
no_reorient  #important for SAPT in psi4, default
symmetry c1  #important for SAPT in psi4, default
}

set PROPERTIES_ORIGIN ["COM"]
properties('MP2/aug-cc-pvtz', properties = ['dipole'])
--------------------------------------------------------------------------

    Molecular point group: c1
  Charge       = 0
  Multiplicity = 1
  Basis Set: AUG-CC-PVTZ
    Blend: AUG-CC-PVTZ
  Basis Set: (AUG-CC-PVTZ AUX)
    Blend: AUG-CC-PVTZ-JKFIT

    Orbital Energies [Eh]
    ---------------------

    Doubly Occupied:

       1A    -15.555488     2A    -11.277071     3A    -11.267868
       4A    -11.251852     5A    -11.239753     6A    -11.239122
       7A    -11.234906     8A    -11.233885     9A    -11.229174
      10A    -11.226315    11A     -1.250132    12A     -1.108814
      13A     -1.087498    14A     -1.039061    15A     -0.950361
      16A     -0.869212    17A     -0.844692    18A     -0.829002
      19A     -0.779755    20A     -0.699737    21A     -0.661668
      22A     -0.644277    23A     -0.625261    24A     -0.585212
      25A     -0.583646    26A     -0.565158    27A     -0.560584
      28A     -0.546960    29A     -0.531964    30A     -0.520035
      31A     -0.499521    32A     -0.436624    33A     -0.411450
      34A     -0.385276    35A     -0.372140    36A     -0.303929

  @DF-RHF Final Energy:  -401.74292891823058

   => Energetics <=

    Nuclear Repulsion Energy =            485.4406842607781982
    One-Electron Energy =               -1505.4724229338996793
    Two-Electron Energy =                 618.2888097548908490
    Total Energy =                       -401.7429289182306320
  Basis Set: (AUG-CC-PVTZ AUX)
    Blend: AUG-CC-PVTZ-RI
    Molecular point group: c1

    Geometry (in Angstrom), charge = 0, multiplicity = 1:

       Center              X                  Y                   Z               Mass
    ------------   -----------------  -----------------  -----------------  -----------------
         N            0.172048015721    -0.900323960927    -0.008917518890    14.003074004430
         C            2.069530015721     0.584178039073    -0.008918518890    12.000000000000
         C            2.947991015721    -0.393161960927    -0.756337518890    12.000000000000
         C            3.064204215721    -0.522448260927     0.837391381110    12.000000000000
         C            0.602762015721     0.377202039073    -0.008918518890    12.000000000000
         C           -0.290379984279     1.457391039073    -0.008917518890    12.000000000000
         C           -1.659083984279     1.209484039073    -0.008914518890    12.000000000000
         C           -2.123740984279    -0.110694960927    -0.008912518890    12.000000000000
         C           -1.153121984279    -1.117728960927    -0.008914518890    12.000000000000
         C           -3.592582984279    -0.434395960927    -0.008915518890    12.000000000000
         H            2.388547015721     1.623914039073    -0.008924518890     1.007825032230
         H            3.812636015721     0.003198039073    -1.279316518890     1.007825032230
         H            2.430144015721    -1.207855960927    -1.250889518890     1.007825032230
         H            2.430145015721    -1.207843960927     1.233072481110     1.007825032230
         H            3.812634015721     0.003212039073     1.261487481110     1.007825032230
         H            0.088835015721     2.476816039073    -0.008918518890     1.007825032230
         H           -2.366130984279     2.038244039073    -0.008914518890     1.007825032230
         H           -1.457053984279    -2.165393960927    -0.008913518890     1.007825032230
         H           -4.088235984279    -0.019473960927     0.874376481110     1.007825032230
         H           -3.753251984279    -1.515941960927    -0.008873518890     1.007825032230
         H           -4.088215984279    -0.019544960927    -0.892252518890     1.007825032230

  Basis Set: AUG-CC-PVTZ
    Blend: AUG-CC-PVTZ
  Basis Set: (AUG-CC-PVTZ AUX)
    Blend: AUG-CC-PVTZ-JKFIT
	 Reference Energy          =    -401.7429289182305752 [Eh]
	 Singles Energy            =      -0.0000000000000000 [Eh]
	 Same-Spin Energy          =      -0.4463616210112402 [Eh]
	 Opposite-Spin Energy      =      -1.4348725959412030 [Eh]
	 Correlation Energy        =      -1.8812342169524432 [Eh]
	 Total Energy              =    -403.6241631351830392 [Eh]

	 ================> DF-SCS-MP2 Energies <==================
	-----------------------------------------------------------
	 SCS Same-Spin Scale       =       0.3333333333333333 [-]
	 SCS Opposite-Spin Scale   =       1.2000000000000000 [-]
	 SCS Same-Spin Energy      =      -0.1487872070037467 [Eh]
	 SCS Opposite-Spin Energy  =      -1.7218471151294434 [Eh]
	 SCS Correlation Energy    =      -1.8706343221331903 [Eh]
	 SCS Total Energy          =    -403.6135632403637601 [Eh]
	-----------------------------------------------------------

  Dipole Moment: [D]
     X:    -1.3784      Y:     1.5479      Z:    -0.1336     Total:     2.0770

*** Psi4 exiting successfully. Buy a developer a beer!
