                               Psi4 1.4a3.dev225

  ==> Input File <==

--------------------------------------------------------------------------
#psi4
#
memory 32 gb

molecule  {
0 1
  N        0.1871790    -0.9111820    -0.0000020
  C        2.0846610     0.5733200    -0.0000030
  C        2.9631220    -0.4040200    -0.7474220
  C        2.9631210    -0.4040120     0.7474270
  C        0.6178930     0.3663440    -0.0000030
  C       -0.2752490     1.4465330    -0.0000020
  C       -1.6439530     1.1986260     0.0000010
  C       -2.1086100    -0.1215530     0.0000030
  C       -1.1379910    -1.1285870     0.0000010
  C       -3.5774520    -0.4452540     0.0000000
  H        2.4036780     1.6130560    -0.0000090
  H        3.8277670    -0.0076600    -1.2704010
  H        2.4452750    -1.2187140    -1.2419740
  H        2.4452760    -1.2187020     1.2419880
  H        3.8675935     0.0106120     1.2944931
  H        0.1039660     2.4659580    -0.0000030
  H       -2.3510000     2.0273860     0.0000010
  H       -1.4419230    -2.1762520     0.0000020
  H       -4.0731050    -0.0303320     0.8832920
  H       -3.7381210    -1.5268000     0.0000420
  H       -4.0730850    -0.0304030    -0.8833370
units angstrom
no_reorient  #important for SAPT in psi4, default
symmetry c1  #important for SAPT in psi4, default
}

set PROPERTIES_ORIGIN ["COM"]
properties('MP2/aug-cc-pvtz', properties = ['dipole'])
--------------------------------------------------------------------------

    Molecular point group: c1
  Charge       = 0
  Multiplicity = 1
  Basis Set: AUG-CC-PVTZ
    Blend: AUG-CC-PVTZ
  Basis Set: (AUG-CC-PVTZ AUX)
    Blend: AUG-CC-PVTZ-JKFIT

    Orbital Energies [Eh]
    ---------------------

    Doubly Occupied:

       1A    -15.555985     2A    -11.276360     3A    -11.267942
       4A    -11.251866     5A    -11.239624     6A    -11.234026
       7A    -11.231763     8A    -11.229405     9A    -11.226977
      10A    -11.221610    11A     -1.251436    12A     -1.140616
      13A     -1.091751    14A     -1.042541    15A     -0.951024
      16A     -0.867411    17A     -0.839941    18A     -0.810856
      19A     -0.781041    20A     -0.700817    21A     -0.666355
      22A     -0.636497    23A     -0.625531    24A     -0.601144
      25A     -0.583837    26A     -0.564791    27A     -0.549434
      28A     -0.534479    29A     -0.527715    30A     -0.501663
      31A     -0.497988    32A     -0.429461    33A     -0.427442
      34A     -0.406630    35A     -0.372631    36A     -0.312891

  @DF-RHF Final Energy:  -401.77141465399450

   => Energetics <=

    Nuclear Repulsion Energy =            488.7787950939974166
    One-Electron Energy =               -1512.1974536550796984
    Two-Electron Energy =                 621.6472439070878409
    Total Energy =                       -401.7714146539944977
  Basis Set: (AUG-CC-PVTZ AUX)
    Blend: AUG-CC-PVTZ-RI
    Molecular point group: c1

    Geometry (in Angstrom), charge = 0, multiplicity = 1:

       Center              X                  Y                   Z               Mass
    ------------   -----------------  -----------------  -----------------  -----------------
         N            0.182224880230    -0.912120057581    -0.000184423820    14.003074004430
         C            2.079706880230     0.572381942419    -0.000185423820    12.000000000000
         C            2.958167880230    -0.404958057581    -0.747604423820    12.000000000000
         C            2.958166880230    -0.404950057581     0.747244576180    12.000000000000
         C            0.612938880230     0.365405942419    -0.000185423820    12.000000000000
         C           -0.280203119770     1.445594942419    -0.000184423820    12.000000000000
         C           -1.648907119770     1.197687942419    -0.000181423820    12.000000000000
         C           -2.113564119770    -0.122491057581    -0.000179423820    12.000000000000
         C           -1.142945119770    -1.129525057581    -0.000181423820    12.000000000000
         C           -3.582406119770    -0.446192057581    -0.000182423820    12.000000000000
         H            2.398723880230     1.612117942419    -0.000191423820     1.007825032230
         H            3.822812880230    -0.008598057581    -1.270583423820     1.007825032230
         H            2.440320880230    -1.219652057581    -1.242156423820     1.007825032230
         H            2.440321880230    -1.219640057581     1.241805576180     1.007825032230
         H            3.862639380230     0.009673942419     1.294310676180     1.007825032230
         H            0.099011880230     2.465019942419    -0.000185423820     1.007825032230
         H           -2.355954119770     2.026447942419    -0.000181423820     1.007825032230
         H           -1.446877119770    -2.177190057581    -0.000180423820     1.007825032230
         H           -4.078059119770    -0.031270057581     0.883109576180     1.007825032230
         H           -3.743075119770    -1.527738057581    -0.000140423820     1.007825032230
         H           -4.078039119770    -0.031341057581    -0.883519423820     1.007825032230

  Basis Set: AUG-CC-PVTZ
    Blend: AUG-CC-PVTZ
  Basis Set: (AUG-CC-PVTZ AUX)
    Blend: AUG-CC-PVTZ-JKFIT
	 Reference Energy          =    -401.7714146539944977 [Eh]
	 Singles Energy            =      -0.0000000000000000 [Eh]
	 Same-Spin Energy          =      -0.4459702551214950 [Eh]
	 Opposite-Spin Energy      =      -1.4319894795688783 [Eh]
	 Correlation Energy        =      -1.8779597346903734 [Eh]
	 Total Energy              =    -403.6493743886848620 [Eh]

	 ================> DF-SCS-MP2 Energies <==================
	-----------------------------------------------------------
	 SCS Same-Spin Scale       =       0.3333333333333333 [-]
	 SCS Opposite-Spin Scale   =       1.2000000000000000 [-]
	 SCS Same-Spin Energy      =      -0.1486567517071650 [Eh]
	 SCS Opposite-Spin Energy  =      -1.7183873754826540 [Eh]
	 SCS Correlation Energy    =      -1.8670441271898190 [Eh]
	 SCS Total Energy          =    -403.6384587811843403 [Eh]
	-----------------------------------------------------------

  Dipole Moment: [D]
     X:    -1.3389      Y:     1.4549      Z:    -0.0184     Total:     1.9773

*** Psi4 exiting successfully. Buy a developer a beer!
