                               Psi4 1.3.2 release

  ==> Input File <==

--------------------------------------------------------------------------
#psi4
#
memory 32 gb

molecule  {
0 1
  C       -1.6389990    -0.4351500    -0.0000740
  C       -0.1438190    -0.2032140    -0.0000500
  C       -2.2926970     0.1332000    -1.2628670
  C       -2.2926340     0.1327630     1.2629610
  C        0.7493190    -1.2819130    -0.0001430
  C        0.3844301     1.0963951     0.3000690
  C        2.1305880    -1.0747930    -0.0000870
  C        1.7631970     1.3096170     0.0001230
  C        2.6421050     0.2235770     0.0000260
  H       -1.7988190    -1.5221670    -0.0002560
  H       -2.1859770     1.2220040    -1.2992740
  H       -3.3624420    -0.1008990    -1.2839610
  H       -1.8300540    -0.2824700    -2.1627150
  H       -1.8299510    -0.2832430     2.1626310
  H       -3.3623860    -0.1013120     1.2840290
  H       -2.1858740     1.2215510     1.2997470
  H        0.3566010    -2.2977830    -0.0002310
  H       -0.2855790     1.9543360     0.0001510
  H        2.8058120    -1.9275740    -0.0001650
  H        2.1529870     2.3251740     0.0002100
  H        3.7167440     0.3893290     0.0000760
units angstrom
no_reorient  #important for SAPT in psi4, default
symmetry c1  #important for SAPT in psi4, default
}

set PROPERTIES_ORIGIN ["COM"]
properties('MP2/aug-cc-pvtz', properties = ['dipole'])
--------------------------------------------------------------------------

    Molecular point group: c1
  Charge       = 0
  Multiplicity = 1
  Basis Set: AUG-CC-PVTZ
    Blend: AUG-CC-PVTZ
  Basis Set: (AUG-CC-PVTZ AUX)
    Blend: AUG-CC-PVTZ-JKFIT

    Orbital Energies [Eh]
    ---------------------

    Doubly Occupied:

       1A    -11.244688     2A    -11.241726     3A    -11.238685
       4A    -11.236286     5A    -11.234051     6A    -11.229603
       7A    -11.229006     8A    -11.215574     9A    -11.213683
      10A     -1.150374    11A     -1.081581    12A     -1.006526
      13A     -0.988403    14A     -0.930341    15A     -0.843872
      16A     -0.818540    17A     -0.765179    18A     -0.686931
      19A     -0.642952    20A     -0.625877    21A     -0.595149
      22A     -0.590038    23A     -0.572822    24A     -0.566642
      25A     -0.537636    26A     -0.525993    27A     -0.498453
      28A     -0.491597    29A     -0.473569    30A     -0.463039
      31A     -0.458202    32A     -0.333150    33A     -0.321341

  @DF-RHF Final Energy:  -347.89486348390324

   => Energetics <=

    Nuclear Repulsion Energy =            421.6797365198254965
    One-Electron Energy =               -1305.0461738313281330
    Two-Electron Energy =                 535.4715738275993999
    Total Energy =                       -347.8948634839032366
  Basis Set: (AUG-CC-PVTZ AUX)
    Blend: AUG-CC-PVTZ-RI
    Molecular point group: c1

    Geometry (in Angstrom), charge = 0, multiplicity = 1:

       Center              X                  Y                   Z               Mass
    ------------   -----------------  -----------------  -----------------  -----------------
         C           -1.703513833672    -0.430215547239    -0.030048377400    12.000000000000
         C           -0.208333833672    -0.198279547239    -0.030024377400    12.000000000000
         C           -2.357211833672     0.138134452761    -1.292841377400    12.000000000000
         C           -2.357148833672     0.137697452761     1.232986622600    12.000000000000
         C            0.684804166328    -1.276978547239    -0.030117377400    12.000000000000
         C            0.319915266328     1.101329552761     0.270094622600    12.000000000000
         C            2.066073166328    -1.069858547239    -0.030061377400    12.000000000000
         C            1.698682166328     1.314551452761    -0.029851377400    12.000000000000
         C            2.577590166328     0.228511452761    -0.029948377400    12.000000000000
         H           -1.863333833672    -1.517232547239    -0.030230377400     1.007825032230
         H           -2.250491833672     1.226938452761    -1.329248377400     1.007825032230
         H           -3.426956833672    -0.095964547239    -1.313935377400     1.007825032230
         H           -1.894568833672    -0.277535547239    -2.192689377400     1.007825032230
         H           -1.894465833672    -0.278308547239     2.132656622600     1.007825032230
         H           -3.426900833672    -0.096377547239     1.254054622600     1.007825032230
         H           -2.250388833672     1.226485452761     1.269772622600     1.007825032230
         H            0.292086166328    -2.292848547239    -0.030205377400     1.007825032230
         H           -0.350093833672     1.959270452761    -0.029823377400     1.007825032230
         H            2.741297166328    -1.922639547239    -0.030139377400     1.007825032230
         H            2.088472166328     2.330108452761    -0.029764377400     1.007825032230
         H            3.652229166328     0.394263452761    -0.029898377400     1.007825032230

  Basis Set: AUG-CC-PVTZ
    Blend: AUG-CC-PVTZ
  Basis Set: (AUG-CC-PVTZ AUX)
    Blend: AUG-CC-PVTZ-JKFIT
	 Reference Energy          =    -347.8948634839032366 [Eh]
	 Singles Energy            =      -0.0000000000000000 [Eh]
	 Same-Spin Energy          =      -0.3886734635000104 [Eh]
	 Opposite-Spin Energy      =      -1.2920648054279948 [Eh]
	 Correlation Energy        =      -1.6807382689280053 [Eh]
	 Total Energy              =    -349.5756017528312327 [Eh]

	 ================> DF-SCS-MP2 Energies <==================
	-----------------------------------------------------------
	 SCS Same-Spin Scale       =       0.3333333333333333 [-]
	 SCS Opposite-Spin Scale   =       1.2000000000000000 [-]
	 SCS Same-Spin Energy      =      -0.1295578211666701 [Eh]
	 SCS Opposite-Spin Energy  =      -1.5504777665135938 [Eh]
	 SCS Correlation Energy    =      -1.6800355876802640 [Eh]
	 SCS Total Energy          =    -349.5748990715835021 [Eh]
	-----------------------------------------------------------

  Dipole Moment: [D]
     X:    -0.2599      Y:    -0.2237      Z:    -0.1746     Total:     0.3848

*** Psi4 exiting successfully. Buy a developer a beer!
