                               Psi4 1.3.2 release

  ==> Input File <==

--------------------------------------------------------------------------
#psi4
#
memory 32 gb

molecule  {
0 1
  C       -1.6389990    -0.4351500    -0.0000740
  C       -0.1438190    -0.2032140    -0.0000500
  C       -2.2926970     0.1332000    -1.2628670
  C       -2.2926340     0.1327630     1.2629610
  C        0.7493190    -1.2819130    -0.0001430
  C        0.3844307     1.0964130     0.1000690
  C        2.1305880    -1.0747930    -0.0000870
  C        1.7631970     1.3096170     0.0001230
  C        2.6421050     0.2235770     0.0000260
  H       -1.7988190    -1.5221670    -0.0002560
  H       -2.1859770     1.2220040    -1.2992740
  H       -3.3624420    -0.1008990    -1.2839610
  H       -1.8300540    -0.2824700    -2.1627150
  H       -1.8299510    -0.2832430     2.1626310
  H       -3.3623860    -0.1013120     1.2840290
  H       -2.1858740     1.2215510     1.2997470
  H        0.3566010    -2.2977830    -0.0002310
  H       -0.2855790     1.9543360     0.0001510
  H        2.8058120    -1.9275740    -0.0001650
  H        2.1529870     2.3251740     0.0002100
  H        3.7167440     0.3893290     0.0000760
units angstrom
no_reorient  #important for SAPT in psi4, default
symmetry c1  #important for SAPT in psi4, default
}

set PROPERTIES_ORIGIN ["COM"]
properties('MP2/aug-cc-pvtz', properties = ['dipole'])
--------------------------------------------------------------------------

    Molecular point group: c1
  Charge       = 0
  Multiplicity = 1
  Basis Set: AUG-CC-PVTZ
    Blend: AUG-CC-PVTZ
  Basis Set: (AUG-CC-PVTZ AUX)
    Blend: AUG-CC-PVTZ-JKFIT

    Orbital Energies [Eh]
    ---------------------

    Doubly Occupied:

       1A    -11.237880     2A    -11.235122     3A    -11.234377
       4A    -11.233628     5A    -11.230244     6A    -11.229951
       7A    -11.229340     8A    -11.214863     9A    -11.214344
      10A     -1.152582    11A     -1.081293    12A     -1.009031
      13A     -0.990052    14A     -0.930365    15A     -0.844525
      16A     -0.821172    17A     -0.767652    18A     -0.690475
      19A     -0.644571    20A     -0.626795    21A     -0.597995
      22A     -0.590508    23A     -0.577239    24A     -0.567979
      25A     -0.537928    26A     -0.528848    27A     -0.498127
      28A     -0.495747    29A     -0.473734    30A     -0.465574
      31A     -0.461139    32A     -0.333188    33A     -0.322688

  @DF-RHF Final Energy:  -347.92030683733486

   => Energetics <=

    Nuclear Repulsion Energy =            422.5517004420917146
    One-Electron Energy =               -1306.8061000469194823
    Two-Electron Energy =                 536.3340927674928480
    Total Energy =                       -347.9203068373349197
  Basis Set: (AUG-CC-PVTZ AUX)
    Blend: AUG-CC-PVTZ-RI
    Molecular point group: c1

    Geometry (in Angstrom), charge = 0, multiplicity = 1:

       Center              X                  Y                   Z               Mass
    ------------   -----------------  -----------------  -----------------  -----------------
         C           -1.703513893625    -0.430217335840    -0.010064015228    12.000000000000
         C           -0.208333893625    -0.198281335840    -0.010040015228    12.000000000000
         C           -2.357211893625     0.138132664160    -1.272857015228    12.000000000000
         C           -2.357148893625     0.137695664160     1.252970984772    12.000000000000
         C            0.684804106375    -1.276980335840    -0.010133015228    12.000000000000
         C            0.319915806375     1.101345664160     0.090078984772    12.000000000000
         C            2.066073106375    -1.069860335840    -0.010077015228    12.000000000000
         C            1.698682106375     1.314549664160    -0.009867015228    12.000000000000
         C            2.577590106375     0.228509664160    -0.009964015228    12.000000000000
         H           -1.863333893625    -1.517234335840    -0.010246015228     1.007825032230
         H           -2.250491893625     1.226936664160    -1.309264015228     1.007825032230
         H           -3.426956893625    -0.095966335840    -1.293951015228     1.007825032230
         H           -1.894568893625    -0.277537335840    -2.172705015228     1.007825032230
         H           -1.894465893625    -0.278310335840     2.152640984772     1.007825032230
         H           -3.426900893625    -0.096379335840     1.274038984772     1.007825032230
         H           -2.250388893625     1.226483664160     1.289756984772     1.007825032230
         H            0.292086106375    -2.292850335840    -0.010221015228     1.007825032230
         H           -0.350093893625     1.959268664160    -0.009839015228     1.007825032230
         H            2.741297106375    -1.922641335840    -0.010155015228     1.007825032230
         H            2.088472106375     2.330106664160    -0.009780015228     1.007825032230
         H            3.652229106375     0.394261664160    -0.009914015228     1.007825032230

  Basis Set: AUG-CC-PVTZ
    Blend: AUG-CC-PVTZ
  Basis Set: (AUG-CC-PVTZ AUX)
    Blend: AUG-CC-PVTZ-JKFIT
	 Reference Energy          =    -347.9203068373348628 [Eh]
	 Singles Energy            =      -0.0000000000000000 [Eh]
	 Same-Spin Energy          =      -0.3874968147035999 [Eh]
	 Opposite-Spin Energy      =      -1.2884679951003810 [Eh]
	 Correlation Energy        =      -1.6759648098039810 [Eh]
	 Total Energy              =    -349.5962716471388489 [Eh]

	 ================> DF-SCS-MP2 Energies <==================
	-----------------------------------------------------------
	 SCS Same-Spin Scale       =       0.3333333333333333 [-]
	 SCS Opposite-Spin Scale   =       1.2000000000000000 [-]
	 SCS Same-Spin Energy      =      -0.1291656049012000 [Eh]
	 SCS Opposite-Spin Energy  =      -1.5461615941204572 [Eh]
	 SCS Correlation Energy    =      -1.6753271990216572 [Eh]
	 SCS Total Energy          =    -349.5956340363565005 [Eh]
	-----------------------------------------------------------

  Dipole Moment: [D]
     X:    -0.3547      Y:    -0.0993      Z:    -0.0551     Total:     0.3724

*** Psi4 exiting successfully. Buy a developer a beer!
