                               Psi4 1.3.2 release

  ==> Input File <==

--------------------------------------------------------------------------
#psi4
#
memory 32 gb

molecule  {
0 1
  C       -1.6389990    -0.4351500    -0.0000740
  C       -0.1438190    -0.2032140    -0.0000500
  C       -2.2926970     0.1332000    -1.2628670
  C       -2.2926340     0.1327630     1.2629610
  C        0.7493190    -1.2819130    -0.0001430
  C        0.3844304     1.0964041     0.2000690
  C        2.1305880    -1.0747930    -0.0000870
  C        1.7631970     1.3096170     0.0001230
  C        2.6421050     0.2235770     0.0000260
  H       -1.7988190    -1.5221670    -0.0002560
  H       -2.1859770     1.2220040    -1.2992740
  H       -3.3624420    -0.1008990    -1.2839610
  H       -1.8300540    -0.2824700    -2.1627150
  H       -1.8299510    -0.2832430     2.1626310
  H       -3.3623860    -0.1013120     1.2840290
  H       -2.1858740     1.2215510     1.2997470
  H        0.3566010    -2.2977830    -0.0002310
  H       -0.2855790     1.9543360     0.0001510
  H        2.8058120    -1.9275740    -0.0001650
  H        2.1529870     2.3251740     0.0002100
  H        3.7167440     0.3893290     0.0000760
units angstrom
no_reorient  #important for SAPT in psi4, default
symmetry c1  #important for SAPT in psi4, default
}

set PROPERTIES_ORIGIN ["COM"]
properties('MP2/aug-cc-pvtz', properties = ['dipole'])
--------------------------------------------------------------------------

    Molecular point group: c1
  Charge       = 0
  Multiplicity = 1
  Basis Set: AUG-CC-PVTZ
    Blend: AUG-CC-PVTZ
  Basis Set: (AUG-CC-PVTZ AUX)
    Blend: AUG-CC-PVTZ-JKFIT

    Orbital Energies [Eh]
    ---------------------

    Doubly Occupied:

       1A    -11.240489     2A    -11.237653     3A    -11.235959
       4A    -11.233789     5A    -11.232590     6A    -11.229812
       7A    -11.229194     8A    -11.215179     9A    -11.214056
      10A     -1.151710    11A     -1.081389    12A     -1.008034
      13A     -0.989481    14A     -0.930362    15A     -0.844276
      16A     -0.820103    17A     -0.766649    18A     -0.688943
      19A     -0.643893    20A     -0.626390    21A     -0.596763
      22A     -0.590477    23A     -0.575476    24A     -0.567471
      25A     -0.537822    26A     -0.527863    27A     -0.498490
      28A     -0.493887    29A     -0.473655    30A     -0.464614
      31A     -0.460251    32A     -0.333085    33A     -0.322167

  @DF-RHF Final Energy:  -347.91084854447331

   => Energetics <=

    Nuclear Repulsion Energy =            422.2194603868971399
    One-Electron Energy =               -1306.1366735650515238
    Two-Electron Energy =                 536.0063646336810734
    Total Energy =                       -347.9108485444733105
  Basis Set: (AUG-CC-PVTZ AUX)
    Blend: AUG-CC-PVTZ-RI
    Molecular point group: c1

    Geometry (in Angstrom), charge = 0, multiplicity = 1:

       Center              X                  Y                   Z               Mass
    ------------   -----------------  -----------------  -----------------  -----------------
         C           -1.703513863648    -0.430216446536    -0.020056196314    12.000000000000
         C           -0.208333863648    -0.198280446536    -0.020032196314    12.000000000000
         C           -2.357211863648     0.138133553464    -1.282849196314    12.000000000000
         C           -2.357148863648     0.137696553464     1.242978803686    12.000000000000
         C            0.684804136352    -1.276979446536    -0.020125196314    12.000000000000
         C            0.319915536352     1.101337653464     0.180086803686    12.000000000000
         C            2.066073136352    -1.069859446536    -0.020069196314    12.000000000000
         C            1.698682136352     1.314550553464    -0.019859196314    12.000000000000
         C            2.577590136352     0.228510553464    -0.019956196314    12.000000000000
         H           -1.863333863648    -1.517233446536    -0.020238196314     1.007825032230
         H           -2.250491863648     1.226937553464    -1.319256196314     1.007825032230
         H           -3.426956863648    -0.095965446536    -1.303943196314     1.007825032230
         H           -1.894568863648    -0.277536446536    -2.182697196314     1.007825032230
         H           -1.894465863648    -0.278309446536     2.142648803686     1.007825032230
         H           -3.426900863648    -0.096378446536     1.264046803686     1.007825032230
         H           -2.250388863648     1.226484553464     1.279764803686     1.007825032230
         H            0.292086136352    -2.292849446536    -0.020213196314     1.007825032230
         H           -0.350093863648     1.959269553464    -0.019831196314     1.007825032230
         H            2.741297136352    -1.922640446536    -0.020147196314     1.007825032230
         H            2.088472136352     2.330107553464    -0.019772196314     1.007825032230
         H            3.652229136352     0.394262553464    -0.019906196314     1.007825032230

  Basis Set: AUG-CC-PVTZ
    Blend: AUG-CC-PVTZ
  Basis Set: (AUG-CC-PVTZ AUX)
    Blend: AUG-CC-PVTZ-JKFIT
	 Reference Energy          =    -347.9108485444733105 [Eh]
	 Singles Energy            =      -0.0000000000000000 [Eh]
	 Same-Spin Energy          =      -0.3879538962180143 [Eh]
	 Opposite-Spin Energy      =      -1.2898200319666224 [Eh]
	 Correlation Energy        =      -1.6777739281846369 [Eh]
	 Total Energy              =    -349.5886224726579599 [Eh]

	 ================> DF-SCS-MP2 Energies <==================
	-----------------------------------------------------------
	 SCS Same-Spin Scale       =       0.3333333333333333 [-]
	 SCS Opposite-Spin Scale   =       1.2000000000000000 [-]
	 SCS Same-Spin Energy      =      -0.1293179654060048 [Eh]
	 SCS Opposite-Spin Energy  =      -1.5477840383599468 [Eh]
	 SCS Correlation Energy    =      -1.6771020037659516 [Eh]
	 SCS Total Energy          =    -349.5879505482392346 [Eh]
	-----------------------------------------------------------

  Dipole Moment: [D]
     X:    -0.3186      Y:    -0.1465      Z:    -0.1130     Total:     0.3684

*** Psi4 exiting successfully. Buy a developer a beer!
