                               Psi4 1.3.2 release

  ==> Input File <==

--------------------------------------------------------------------------
#psi4
#
memory 32 gb

molecule  {
0 1
  C       -1.6389990    -0.4351500    -0.0000740
  C       -0.1438190    -0.2032140    -0.0000500
  C       -2.2926970     0.1332000    -1.2628670
  C       -2.2926340     0.1327630     1.2629610
  C        0.7493190    -1.2819130    -0.0001430
  C        0.3844309     1.0964175     0.0500690
  C        2.1305880    -1.0747930    -0.0000870
  C        1.7631970     1.3096170     0.0001230
  C        2.6421050     0.2235770     0.0000260
  H       -1.7988190    -1.5221670    -0.0002560
  H       -2.1859770     1.2220040    -1.2992740
  H       -3.3624420    -0.1008990    -1.2839610
  H       -1.8300540    -0.2824700    -2.1627150
  H       -1.8299510    -0.2832430     2.1626310
  H       -3.3623860    -0.1013120     1.2840290
  H       -2.1858740     1.2215510     1.2997470
  H        0.3566010    -2.2977830    -0.0002310
  H       -0.2855790     1.9543360     0.0001510
  H        2.8058120    -1.9275740    -0.0001650
  H        2.1529870     2.3251740     0.0002100
  H        3.7167440     0.3893290     0.0000760
units angstrom
no_reorient  #important for SAPT in psi4, default
symmetry c1  #important for SAPT in psi4, default
}

set PROPERTIES_ORIGIN ["COM"]
properties('MP2/aug-cc-pvtz', properties = ['dipole'])
--------------------------------------------------------------------------

    Molecular point group: c1
  Charge       = 0
  Multiplicity = 1
  Basis Set: AUG-CC-PVTZ
    Blend: AUG-CC-PVTZ
  Basis Set: (AUG-CC-PVTZ AUX)
    Blend: AUG-CC-PVTZ-JKFIT

    Orbital Energies [Eh]
    ---------------------

    Doubly Occupied:

       1A    -11.237222     2A    -11.234489     3A    -11.233989
       4A    -11.233587     5A    -11.230022     6A    -11.229616
       7A    -11.229371     8A    -11.214726     9A    -11.214472
      10A     -1.152810    11A     -1.081273    12A     -1.009291
      13A     -0.990189    14A     -0.930365    15A     -0.844589
      16A     -0.821458    17A     -0.767920    18A     -0.690902
      19A     -0.644756    20A     -0.626909    21A     -0.598322
      22A     -0.590501    23A     -0.577695    24A     -0.568109
      25A     -0.537955    26A     -0.529078    27A     -0.497815
      28A     -0.496447    29A     -0.473757    30A     -0.465812
      31A     -0.461328    32A     -0.333232    33A     -0.322823

  @DF-RHF Final Energy:  -347.92265042197067

   => Energetics <=

    Nuclear Repulsion Energy =            422.6357766318121776
    One-Electron Energy =               -1306.9751921359763855
    Two-Electron Energy =                 536.4167650821934785
    Total Energy =                       -347.9226504219707294
  Basis Set: (AUG-CC-PVTZ AUX)
    Blend: AUG-CC-PVTZ-RI
    Molecular point group: c1

    Geometry (in Angstrom), charge = 0, multiplicity = 1:

       Center              X                  Y                   Z               Mass
    ------------   -----------------  -----------------  -----------------  -----------------
         C           -1.703513913609    -0.430217785488    -0.005067924685    12.000000000000
         C           -0.208333913609    -0.198281785488    -0.005043924685    12.000000000000
         C           -2.357211913609     0.138132214512    -1.267860924685    12.000000000000
         C           -2.357148913609     0.137695214512     1.257967075315    12.000000000000
         C            0.684804086391    -1.276980785488    -0.005136924685    12.000000000000
         C            0.319915986391     1.101349714512     0.045075075315    12.000000000000
         C            2.066073086391    -1.069860785488    -0.005080924685    12.000000000000
         C            1.698682086391     1.314549214512    -0.004870924685    12.000000000000
         C            2.577590086391     0.228509214512    -0.004967924685    12.000000000000
         H           -1.863333913609    -1.517234785488    -0.005249924685     1.007825032230
         H           -2.250491913609     1.226936214512    -1.304267924685     1.007825032230
         H           -3.426956913609    -0.095966785488    -1.288954924685     1.007825032230
         H           -1.894568913609    -0.277537785488    -2.167708924685     1.007825032230
         H           -1.894465913609    -0.278310785488     2.157637075315     1.007825032230
         H           -3.426900913609    -0.096379785488     1.279035075315     1.007825032230
         H           -2.250388913609     1.226483214512     1.294753075315     1.007825032230
         H            0.292086086391    -2.292850785488    -0.005224924685     1.007825032230
         H           -0.350093913609     1.959268214512    -0.004842924685     1.007825032230
         H            2.741297086391    -1.922641785488    -0.005158924685     1.007825032230
         H            2.088472086391     2.330106214512    -0.004783924685     1.007825032230
         H            3.652229086391     0.394261214512    -0.004917924685     1.007825032230

  Basis Set: AUG-CC-PVTZ
    Blend: AUG-CC-PVTZ
  Basis Set: (AUG-CC-PVTZ AUX)
    Blend: AUG-CC-PVTZ-JKFIT
	 Reference Energy          =    -347.9226504219706726 [Eh]
	 Singles Energy            =      -0.0000000000000000 [Eh]
	 Same-Spin Energy          =      -0.3873795102394963 [Eh]
	 Opposite-Spin Energy      =      -1.2881576478087857 [Eh]
	 Correlation Energy        =      -1.6755371580482821 [Eh]
	 Total Energy              =    -349.5981875800189300 [Eh]

	 ================> DF-SCS-MP2 Energies <==================
	-----------------------------------------------------------
	 SCS Same-Spin Scale       =       0.3333333333333333 [-]
	 SCS Opposite-Spin Scale   =       1.2000000000000000 [-]
	 SCS Same-Spin Energy      =      -0.1291265034131654 [Eh]
	 SCS Opposite-Spin Energy  =      -1.5457891773705428 [Eh]
	 SCS Correlation Energy    =      -1.6749156807837082 [Eh]
	 SCS Total Energy          =    -349.5975661027543993 [Eh]
	-----------------------------------------------------------

  Dipole Moment: [D]
     X:    -0.3638      Y:    -0.0873      Z:    -0.0274     Total:     0.3751

*** Psi4 exiting successfully. Buy a developer a beer!
