                               Psi4 1.3.2 release

  ==> Input File <==

--------------------------------------------------------------------------
#psi4
#
memory 32 gb

molecule  {
0 1
  C       -1.6389990    -0.4351500    -0.0000740
  C       -0.1438190    -0.2032140    -0.0000500
  C       -2.2926970     0.1332000    -1.2628670
  C       -2.2926340     0.1327630     1.2629610
  C        0.7493190    -1.2819130    -0.0001430
  C        0.3844303     1.0963996     0.2500690
  C        2.1305880    -1.0747930    -0.0000870
  C        1.7631970     1.3096170     0.0001230
  C        2.6421050     0.2235770     0.0000260
  H       -1.7988190    -1.5221670    -0.0002560
  H       -2.1859770     1.2220040    -1.2992740
  H       -3.3624420    -0.1008990    -1.2839610
  H       -1.8300540    -0.2824700    -2.1627150
  H       -1.8299510    -0.2832430     2.1626310
  H       -3.3623860    -0.1013120     1.2840290
  H       -2.1858740     1.2215510     1.2997470
  H        0.3566010    -2.2977830    -0.0002310
  H       -0.2855790     1.9543360     0.0001510
  H        2.8058120    -1.9275740    -0.0001650
  H        2.1529870     2.3251740     0.0002100
  H        3.7167440     0.3893290     0.0000760
units angstrom
no_reorient  #important for SAPT in psi4, default
symmetry c1  #important for SAPT in psi4, default
}

set PROPERTIES_ORIGIN ["COM"]
properties('MP2/aug-cc-pvtz', properties = ['dipole'])
--------------------------------------------------------------------------

    Molecular point group: c1
  Charge       = 0
  Multiplicity = 1
  Basis Set: AUG-CC-PVTZ
    Blend: AUG-CC-PVTZ
  Basis Set: (AUG-CC-PVTZ AUX)
    Blend: AUG-CC-PVTZ-JKFIT

    Orbital Energies [Eh]
    ---------------------

    Doubly Occupied:

       1A    -11.242403     2A    -11.239511     3A    -11.237174
       4A    -11.234292     5A    -11.233905     6A    -11.229709
       7A    -11.229099     8A    -11.215365     9A    -11.213883
      10A     -1.151091    11A     -1.081471    12A     -1.007330
      13A     -0.989018    14A     -0.930355    15A     -0.844094
      16A     -0.819368    17A     -0.765958    18A     -0.687961
      19A     -0.643441    20A     -0.626136    21A     -0.595950
      22A     -0.590356    23A     -0.574231    24A     -0.567096
      25A     -0.537739    26A     -0.527056    27A     -0.498522
      28A     -0.492783    29A     -0.473609    30A     -0.463897
      31A     -0.459424    32A     -0.333079    33A     -0.321789

  @DF-RHF Final Energy:  -347.90368330628843

   => Energetics <=

    Nuclear Repulsion Energy =            421.9744663414634829
    One-Electron Energy =               -1305.6421032822775032
    Two-Electron Energy =                 535.7639536345254783
    Total Energy =                       -347.9036833062884853
  Basis Set: (AUG-CC-PVTZ AUX)
    Blend: AUG-CC-PVTZ-RI
    Molecular point group: c1

    Geometry (in Angstrom), charge = 0, multiplicity = 1:

       Center              X                  Y                   Z               Mass
    ------------   -----------------  -----------------  -----------------  -----------------
         C           -1.703513853656    -0.430215996887    -0.025052286857    12.000000000000
         C           -0.208333853656    -0.198279996887    -0.025028286857    12.000000000000
         C           -2.357211853656     0.138134003113    -1.287845286857    12.000000000000
         C           -2.357148853656     0.137697003113     1.237982713143    12.000000000000
         C            0.684804146344    -1.276978996887    -0.025121286857    12.000000000000
         C            0.319915446344     1.101333603113     0.225090713143    12.000000000000
         C            2.066073146344    -1.069858996887    -0.025065286857    12.000000000000
         C            1.698682146344     1.314551003113    -0.024855286857    12.000000000000
         C            2.577590146344     0.228511003113    -0.024952286857    12.000000000000
         H           -1.863333853656    -1.517232996887    -0.025234286857     1.007825032230
         H           -2.250491853656     1.226938003113    -1.324252286857     1.007825032230
         H           -3.426956853656    -0.095964996887    -1.308939286857     1.007825032230
         H           -1.894568853656    -0.277535996887    -2.187693286857     1.007825032230
         H           -1.894465853656    -0.278308996887     2.137652713143     1.007825032230
         H           -3.426900853656    -0.096377996887     1.259050713143     1.007825032230
         H           -2.250388853656     1.226485003113     1.274768713143     1.007825032230
         H            0.292086146344    -2.292848996887    -0.025209286857     1.007825032230
         H           -0.350093853656     1.959270003113    -0.024827286857     1.007825032230
         H            2.741297146344    -1.922639996887    -0.025143286857     1.007825032230
         H            2.088472146344     2.330108003113    -0.024768286857     1.007825032230
         H            3.652229146344     0.394263003113    -0.024902286857     1.007825032230

  Basis Set: AUG-CC-PVTZ
    Blend: AUG-CC-PVTZ
  Basis Set: (AUG-CC-PVTZ AUX)
    Blend: AUG-CC-PVTZ-JKFIT
	 Reference Energy          =    -347.9036833062884284 [Eh]
	 Singles Energy            =      -0.0000000000000000 [Eh]
	 Same-Spin Energy          =      -0.3882841704142532 [Eh]
	 Opposite-Spin Energy      =      -1.2908389452748783 [Eh]
	 Correlation Energy        =      -1.6791231156891315 [Eh]
	 Total Energy              =    -349.5828064219775797 [Eh]

	 ================> DF-SCS-MP2 Energies <==================
	-----------------------------------------------------------
	 SCS Same-Spin Scale       =       0.3333333333333333 [-]
	 SCS Opposite-Spin Scale   =       1.2000000000000000 [-]
	 SCS Same-Spin Energy      =      -0.1294280568047511 [Eh]
	 SCS Opposite-Spin Energy  =      -1.5490067343298539 [Eh]
	 SCS Correlation Energy    =      -1.6784347911346049 [Eh]
	 SCS Total Energy          =    -349.5821180974230060 [Eh]
	-----------------------------------------------------------

  Dipole Moment: [D]
     X:    -0.2919      Y:    -0.1815      Z:    -0.1434     Total:     0.3725

*** Psi4 exiting successfully. Buy a developer a beer!
