                               Psi4 1.3.2 release

  ==> Input File <==

--------------------------------------------------------------------------
#psi4
#
memory 32 gb

molecule  {
0 1
  C       -1.6389990    -0.4351500    -0.0000740
  C       -0.1438190    -0.2032140    -0.0000500
  C       -2.2926970     0.1332000    -1.2628670
  C       -2.2926340     0.1327630     1.2629610
  C        0.7493190    -1.2819130    -0.0001430
  C        0.3844306     1.0964086     0.1500690
  C        2.1305880    -1.0747930    -0.0000870
  C        1.7631970     1.3096170     0.0001230
  C        2.6421050     0.2235770     0.0000260
  H       -1.7988190    -1.5221670    -0.0002560
  H       -2.1859770     1.2220040    -1.2992740
  H       -3.3624420    -0.1008990    -1.2839610
  H       -1.8300540    -0.2824700    -2.1627150
  H       -1.8299510    -0.2832430     2.1626310
  H       -3.3623860    -0.1013120     1.2840290
  H       -2.1858740     1.2215510     1.2997470
  H        0.3566010    -2.2977830    -0.0002310
  H       -0.2855790     1.9543360     0.0001510
  H        2.8058120    -1.9275740    -0.0001650
  H        2.1529870     2.3251740     0.0002100
  H        3.7167440     0.3893290     0.0000760
units angstrom
no_reorient  #important for SAPT in psi4, default
symmetry c1  #important for SAPT in psi4, default
}

set PROPERTIES_ORIGIN ["COM"]
properties('MP2/aug-cc-pvtz', properties = ['dipole'])
--------------------------------------------------------------------------

    Molecular point group: c1
  Charge       = 0
  Multiplicity = 1
  Basis Set: AUG-CC-PVTZ
    Blend: AUG-CC-PVTZ
  Basis Set: (AUG-CC-PVTZ AUX)
    Blend: AUG-CC-PVTZ-JKFIT

    Orbital Energies [Eh]
    ---------------------

    Doubly Occupied:

       1A    -11.238974     2A    -11.236182     3A    -11.235030
       4A    -11.233696     5A    -11.231227     6A    -11.229899
       7A    -11.229277     8A    -11.215012     9A    -11.214207
      10A     -1.152212    11A     -1.081331    12A     -1.008608
      13A     -0.989820    14A     -0.930364    15A     -0.844420
      16A     -0.820714    17A     -0.767222    18A     -0.689804
      19A     -0.644277    20A     -0.626617    21A     -0.597465
      22A     -0.590509    23A     -0.576492    24A     -0.567766
      25A     -0.537884    26A     -0.528450    27A     -0.498358
      28A     -0.494882    29A     -0.473698    30A     -0.465175
      31A     -0.460797    32A     -0.333131    33A     -0.322468

  @DF-RHF Final Energy:  -347.91638101407943

   => Energetics <=

    Nuclear Repulsion Energy =            422.4124787997034787
    One-Electron Energy =               -1306.5257800282568041
    Two-Electron Energy =                 536.1969202144739484
    Total Energy =                       -347.9163810140794340
  Basis Set: (AUG-CC-PVTZ AUX)
    Blend: AUG-CC-PVTZ-RI
    Molecular point group: c1

    Geometry (in Angstrom), charge = 0, multiplicity = 1:

       Center              X                  Y                   Z               Mass
    ------------   -----------------  -----------------  -----------------  -----------------
         C           -1.703513883633    -0.430216896184    -0.015060105771    12.000000000000
         C           -0.208333883633    -0.198280896184    -0.015036105771    12.000000000000
         C           -2.357211883633     0.138133103816    -1.277853105771    12.000000000000
         C           -2.357148883633     0.137696103816     1.247974894229    12.000000000000
         C            0.684804116367    -1.276979896184    -0.015129105771    12.000000000000
         C            0.319915716367     1.101341703816     0.135082894229    12.000000000000
         C            2.066073116367    -1.069859896184    -0.015073105771    12.000000000000
         C            1.698682116367     1.314550103816    -0.014863105771    12.000000000000
         C            2.577590116367     0.228510103816    -0.014960105771    12.000000000000
         H           -1.863333883633    -1.517233896184    -0.015242105771     1.007825032230
         H           -2.250491883633     1.226937103816    -1.314260105771     1.007825032230
         H           -3.426956883633    -0.095965896184    -1.298947105771     1.007825032230
         H           -1.894568883633    -0.277536896184    -2.177701105771     1.007825032230
         H           -1.894465883633    -0.278309896184     2.147644894229     1.007825032230
         H           -3.426900883633    -0.096378896184     1.269042894229     1.007825032230
         H           -2.250388883633     1.226484103816     1.284760894229     1.007825032230
         H            0.292086116367    -2.292849896184    -0.015217105771     1.007825032230
         H           -0.350093883633     1.959269103816    -0.014835105771     1.007825032230
         H            2.741297116367    -1.922640896184    -0.015151105771     1.007825032230
         H            2.088472116367     2.330107103816    -0.014776105771     1.007825032230
         H            3.652229116367     0.394262103816    -0.014910105771     1.007825032230

  Basis Set: AUG-CC-PVTZ
    Blend: AUG-CC-PVTZ
  Basis Set: (AUG-CC-PVTZ AUX)
    Blend: AUG-CC-PVTZ-JKFIT
	 Reference Energy          =    -347.9163810140794340 [Eh]
	 Singles Energy            =      -0.0000000000000000 [Eh]
	 Same-Spin Energy          =      -0.3876895731880033 [Eh]
	 Opposite-Spin Energy      =      -1.2890246083681651 [Eh]
	 Correlation Energy        =      -1.6767141815561684 [Eh]
	 Total Energy              =    -349.5930951956356125 [Eh]

	 ================> DF-SCS-MP2 Energies <==================
	-----------------------------------------------------------
	 SCS Same-Spin Scale       =       0.3333333333333333 [-]
	 SCS Opposite-Spin Scale   =       1.2000000000000000 [-]
	 SCS Same-Spin Energy      =      -0.1292298577293344 [Eh]
	 SCS Opposite-Spin Energy  =      -1.5468295300417980 [Eh]
	 SCS Correlation Energy    =      -1.6760593877711325 [Eh]
	 SCS Total Energy          =    -349.5924404018505811 [Eh]
	-----------------------------------------------------------

  Dipole Moment: [D]
     X:    -0.3396      Y:    -0.1190      Z:    -0.0836     Total:     0.3694

*** Psi4 exiting successfully. Buy a developer a beer!
