                               Psi4 1.3.2 release

  ==> Input File <==

--------------------------------------------------------------------------
#psi4
#
memory 32 gb

molecule  {
0 1
  O        0.6058420     1.9734460    -0.2200840
  N       -1.4635990     1.0552220     0.1204360
  C        0.3766720    -0.4191730    -0.2885420
  C        1.8447340    -0.6003330    -0.5373460
  C       -0.0912220     0.9510960    -0.1351610
  C       -0.4971459    -1.4690068    -0.1229494
  C        2.6774180    -0.3153160     0.7169370
  C       -1.8875120    -1.2656950     0.0948440
  C       -2.3418770     0.0139190     0.2382100
  H        2.0261970    -1.6222750    -0.8897120
  H        2.1501830     0.0866220    -1.3340180
  H       -0.1325060    -2.4831380    -0.2931490
  H        3.7430730    -0.4588370     0.5145620
  H        2.3896250    -0.9874320     1.5306780
  H        2.5223080     0.7158110     1.0392930
  H       -1.7867130     2.0140380     0.2231480
  H       -2.5740470    -2.0997260     0.1840740
  H       -3.3752970     0.2746480     0.4421650
units angstrom
no_reorient  #important for SAPT in psi4, default
symmetry c1  #important for SAPT in psi4, default
}

set PROPERTIES_ORIGIN ["COM"]
properties('MP2/aug-cc-pvtz', properties = ['dipole'])
--------------------------------------------------------------------------

    Molecular point group: c1
  Charge       = 0
  Multiplicity = 1
  Basis Set: AUG-CC-PVTZ
    Blend: AUG-CC-PVTZ
  Basis Set: (AUG-CC-PVTZ AUX)
    Blend: AUG-CC-PVTZ-JKFIT

    Orbital Energies [Eh]
    ---------------------

    Doubly Occupied:

       1A    -20.509898     2A    -15.626114     3A    -11.352940
       4A    -11.309379     5A    -11.266193     6A    -11.245279
       7A    -11.242651     8A    -11.224158     9A    -11.205603
      10A     -1.370284    11A     -1.271255    12A     -1.117551
      13A     -1.055149    14A     -0.993442    15A     -0.888804
      16A     -0.867794    17A     -0.817972    18A     -0.737119
      19A     -0.702858    20A     -0.671602    21A     -0.625022
      22A     -0.612223    23A     -0.603522    24A     -0.590581
      25A     -0.564083    26A     -0.545891    27A     -0.515109
      28A     -0.495806    29A     -0.485612    30A     -0.474392
      31A     -0.422533    32A     -0.411138    33A     -0.306304

  @DF-RHF Final Energy:  -399.77853537190555

   => Energetics <=

    Nuclear Repulsion Energy =            432.6293748998424462
    One-Electron Energy =               -1400.5592972670872314
    Two-Electron Energy =                 568.1513869953391804
    Total Energy =                       -399.7785353719056047
  Basis Set: (AUG-CC-PVTZ AUX)
    Blend: AUG-CC-PVTZ-RI
    Molecular point group: c1

    Geometry (in Angstrom), charge = 0, multiplicity = 1:

       Center              X                  Y                   Z               Mass
    ------------   -----------------  -----------------  -----------------  -----------------
         O            0.645088720124     1.936951071024    -0.213472149315    15.994914619570
         N           -1.424352279876     1.018727071024     0.127047850685    14.003074004430
         C            0.415918720124    -0.455667928976    -0.281930149315    12.000000000000
         C            1.883980720124    -0.636827928976    -0.530734149315    12.000000000000
         C           -0.051975279876     0.914601071024    -0.128549149315    12.000000000000
         C           -0.457899179876    -1.505501728976    -0.116337549315    12.000000000000
         C            2.716664720124    -0.351810928976     0.723548850685    12.000000000000
         C           -1.848265279876    -1.302189928976     0.101455850685    12.000000000000
         C           -2.302630279876    -0.022575928976     0.244821850685    12.000000000000
         H            2.065443720124    -1.658769928976    -0.883100149315     1.007825032230
         H            2.189429720124     0.050127071024    -1.327406149315     1.007825032230
         H           -0.093259279876    -2.519632928976    -0.286537149315     1.007825032230
         H            3.782319720124    -0.495331928976     0.521173850685     1.007825032230
         H            2.428871720124    -1.023926928976     1.537289850685     1.007825032230
         H            2.561554720124     0.679316071024     1.045904850685     1.007825032230
         H           -1.747466279876     1.977543071024     0.229759850685     1.007825032230
         H           -2.534800279876    -2.136220928976     0.190685850685     1.007825032230
         H           -3.336050279876     0.238153071024     0.448776850685     1.007825032230

  Basis Set: AUG-CC-PVTZ
    Blend: AUG-CC-PVTZ
  Basis Set: (AUG-CC-PVTZ AUX)
    Blend: AUG-CC-PVTZ-JKFIT
	 Reference Energy          =    -399.7785353719055479 [Eh]
	 Singles Energy            =      -0.0000000000000000 [Eh]
	 Same-Spin Energy          =      -0.4241272626182327 [Eh]
	 Opposite-Spin Energy      =      -1.3400743401843394 [Eh]
	 Correlation Energy        =      -1.7642016028025722 [Eh]
	 Total Energy              =    -401.5427369747081343 [Eh]

	 ================> DF-SCS-MP2 Energies <==================
	-----------------------------------------------------------
	 SCS Same-Spin Scale       =       0.3333333333333333 [-]
	 SCS Opposite-Spin Scale   =       1.2000000000000000 [-]
	 SCS Same-Spin Energy      =      -0.1413757542060776 [Eh]
	 SCS Opposite-Spin Energy  =      -1.6080892082212073 [Eh]
	 SCS Correlation Energy    =      -1.7494649624272849 [Eh]
	 SCS Total Energy          =    -401.5280003343328303 [Eh]
	-----------------------------------------------------------

  Dipole Moment: [D]
     X:    -2.9351      Y:    -2.2361      Z:     0.4521     Total:     3.7174

*** Psi4 exiting successfully. Buy a developer a beer!
