                               Psi4 1.3.2 release

  ==> Input File <==

--------------------------------------------------------------------------
#psi4
#
memory 32 gb

molecule  {
0 1
  O        0.6058420     1.9734460    -0.2200840
  N       -1.4635990     1.0552220     0.1204360
  C        0.4312205    -0.4328293     0.0061408
  C        1.8447340    -0.6003330    -0.5373460
  C       -0.0912220     0.9510960    -0.1351610
  C       -0.5056070    -1.4668030    -0.1721790
  C        2.6774180    -0.3153160     0.7169370
  C       -1.8875120    -1.2656950     0.0948440
  C       -2.3418770     0.0139190     0.2382100
  H        2.0261970    -1.6222750    -0.8897120
  H        2.1501830     0.0866220    -1.3340180
  H       -0.1325060    -2.4831380    -0.2931490
  H        3.7430730    -0.4588370     0.5145620
  H        2.3896250    -0.9874320     1.5306780
  H        2.5223080     0.7158110     1.0392930
  H       -1.7867130     2.0140380     0.2231480
  H       -2.5740470    -2.0997260     0.1840740
  H       -3.3752970     0.2746480     0.4421650
units angstrom
no_reorient  #important for SAPT in psi4, default
symmetry c1  #important for SAPT in psi4, default
}

set PROPERTIES_ORIGIN ["COM"]
properties('MP2/aug-cc-pvtz', properties = ['dipole'])
--------------------------------------------------------------------------

    Molecular point group: c1
  Charge       = 0
  Multiplicity = 1
  Basis Set: AUG-CC-PVTZ
    Blend: AUG-CC-PVTZ
  Basis Set: (AUG-CC-PVTZ AUX)
    Blend: AUG-CC-PVTZ-JKFIT

    Orbital Energies [Eh]
    ---------------------

    Doubly Occupied:

       1A    -20.511499     2A    -15.626885     3A    -11.356285
       4A    -11.313629     5A    -11.273415     6A    -11.249058
       7A    -11.243114     8A    -11.223725     9A    -11.199570
      10A     -1.370539    11A     -1.272215    12A     -1.113081
      13A     -1.055202    14A     -0.990072    15A     -0.882736
      16A     -0.862082    17A     -0.812545    18A     -0.739732
      19A     -0.698121    20A     -0.672915    21A     -0.629048
      22A     -0.611151    23A     -0.603767    24A     -0.588103
      25A     -0.567987    26A     -0.542621    27A     -0.506022
      28A     -0.492745    29A     -0.476675    30A     -0.471076
      31A     -0.419608    32A     -0.405929    33A     -0.307133

  @DF-RHF Final Energy:  -399.74752627027760

   => Energetics <=

    Nuclear Repulsion Energy =            432.1498869983898317
    One-Electron Energy =               -1399.6182517841248227
    Two-Electron Energy =                 567.7208385154574444
    Total Energy =                       -399.7475262702776035
  Basis Set: (AUG-CC-PVTZ AUX)
    Blend: AUG-CC-PVTZ-RI
    Molecular point group: c1

    Geometry (in Angstrom), charge = 0, multiplicity = 1:

       Center              X                  Y                   Z               Mass
    ------------   -----------------  -----------------  -----------------  -----------------
         O            0.640594887934     1.938067766979    -0.237405490993    15.994914619570
         N           -1.428846112066     1.019843766979     0.103114509007    14.003074004430
         C            0.465973387934    -0.468207533021    -0.011180690993    12.000000000000
         C            1.879486887934    -0.635711233021    -0.554667490993    12.000000000000
         C           -0.056469112066     0.915717766979    -0.152482490993    12.000000000000
         C           -0.470854112066    -1.502181233021    -0.189500490993    12.000000000000
         C            2.712170887934    -0.350694233021     0.699615509007    12.000000000000
         C           -1.852759112066    -1.301073233021     0.077522509007    12.000000000000
         C           -2.307124112066    -0.021459233021     0.220888509007    12.000000000000
         H            2.060949887934    -1.657653233021    -0.907033490993     1.007825032230
         H            2.184935887934     0.051243766979    -1.351339490993     1.007825032230
         H           -0.097753112066    -2.518516233021    -0.310470490993     1.007825032230
         H            3.777825887934    -0.494215233021     0.497240509007     1.007825032230
         H            2.424377887934    -1.022810233021     1.513356509007     1.007825032230
         H            2.557060887934     0.680432766979     1.021971509007     1.007825032230
         H           -1.751960112066     1.978659766979     0.205826509007     1.007825032230
         H           -2.539294112066    -2.135104233021     0.166752509007     1.007825032230
         H           -3.340544112066     0.239269766979     0.424843509007     1.007825032230

  Basis Set: AUG-CC-PVTZ
    Blend: AUG-CC-PVTZ
  Basis Set: (AUG-CC-PVTZ AUX)
    Blend: AUG-CC-PVTZ-JKFIT
	 Reference Energy          =    -399.7475262702776035 [Eh]
	 Singles Energy            =      -0.0000000000000000 [Eh]
	 Same-Spin Energy          =      -0.4255529560703357 [Eh]
	 Opposite-Spin Energy      =      -1.3439664136758949 [Eh]
	 Correlation Energy        =      -1.7695193697462306 [Eh]
	 Total Energy              =    -401.5170456400238095 [Eh]

	 ================> DF-SCS-MP2 Energies <==================
	-----------------------------------------------------------
	 SCS Same-Spin Scale       =       0.3333333333333333 [-]
	 SCS Opposite-Spin Scale   =       1.2000000000000000 [-]
	 SCS Same-Spin Energy      =      -0.1418509853567785 [Eh]
	 SCS Opposite-Spin Energy  =      -1.6127596964110738 [Eh]
	 SCS Correlation Energy    =      -1.7546106817678524 [Eh]
	 SCS Total Energy          =    -401.5021369520454755 [Eh]
	-----------------------------------------------------------

  Dipole Moment: [D]
     X:    -3.1001      Y:    -2.1740      Z:     0.3758     Total:     3.8050

*** Psi4 exiting successfully. Buy a developer a beer!
