                               Psi4 1.3.2 release

  ==> Input File <==

--------------------------------------------------------------------------
#psi4
#
memory 32 gb

molecule  {
0 1
  O        0.6058420     1.9734460    -0.2200840
  N       -1.4635990     1.0552220     0.1204360
  C        0.3857634    -0.4214490    -0.2394282
  C        1.8447340    -0.6003330    -0.5373460
  C       -0.0912220     0.9510960    -0.1351610
  C       -0.5056070    -1.4668030    -0.1721790
  C        2.6774180    -0.3153160     0.7169370
  C       -1.8875120    -1.2656950     0.0948440
  C       -2.3418770     0.0139190     0.2382100
  H        2.0261970    -1.6222750    -0.8897120
  H        2.1501830     0.0866220    -1.3340180
  H       -0.1325060    -2.4831380    -0.2931490
  H        3.7430730    -0.4588370     0.5145620
  H        2.3896250    -0.9874320     1.5306780
  H        2.5223080     0.7158110     1.0392930
  H       -1.7867130     2.0140380     0.2231480
  H       -2.5740470    -2.0997260     0.1840740
  H       -3.3752970     0.2746480     0.4421650
units angstrom
no_reorient  #important for SAPT in psi4, default
symmetry c1  #important for SAPT in psi4, default
}

set PROPERTIES_ORIGIN ["COM"]
properties('MP2/aug-cc-pvtz', properties = ['dipole'])
--------------------------------------------------------------------------

    Molecular point group: c1
  Charge       = 0
  Multiplicity = 1
  Basis Set: AUG-CC-PVTZ
    Blend: AUG-CC-PVTZ
  Basis Set: (AUG-CC-PVTZ AUX)
    Blend: AUG-CC-PVTZ-JKFIT

    Orbital Energies [Eh]
    ---------------------

    Doubly Occupied:

       1A    -20.509950     2A    -15.626071     3A    -11.353100
       4A    -11.309396     5A    -11.266054     6A    -11.245134
       7A    -11.242595     8A    -11.224148     9A    -11.204812
      10A     -1.370288    11A     -1.271242    12A     -1.117710
      13A     -1.055366    14A     -0.993492    15A     -0.888136
      16A     -0.867680    17A     -0.817427    18A     -0.737380
      19A     -0.702830    20A     -0.672038    21A     -0.626622
      22A     -0.611837    23A     -0.603482    24A     -0.590573
      25A     -0.565481    26A     -0.546039    27A     -0.512524
      28A     -0.495693    29A     -0.486789    30A     -0.473744
      31A     -0.422418    32A     -0.411082    33A     -0.306377

  @DF-RHF Final Energy:  -399.77862288123544

   => Energetics <=

    Nuclear Repulsion Energy =            432.6940420318384213
    One-Electron Energy =               -1400.6903163855943149
    Two-Electron Energy =                 568.2176514725204015
    Total Energy =                       -399.7786228812354921
  Basis Set: (AUG-CC-PVTZ AUX)
    Blend: AUG-CC-PVTZ-RI
    Molecular point group: c1

    Geometry (in Angstrom), charge = 0, multiplicity = 1:

       Center              X                  Y                   Z               Mass
    ------------   -----------------  -----------------  -----------------  -----------------
         O            0.645027261624     1.936958111010    -0.213460858034    15.994914619570
         N           -1.424413738376     1.018734111010     0.127059141966    14.003074004430
         C            0.424948661624    -0.457936888990    -0.232805058034    12.000000000000
         C            1.883919261624    -0.636820888990    -0.530722858034    12.000000000000
         C           -0.052036738376     0.914608111010    -0.128537858034    12.000000000000
         C           -0.466421738376    -1.503290888990    -0.165555858034    12.000000000000
         C            2.716603261624    -0.351803888990     0.723560141966    12.000000000000
         C           -1.848326738376    -1.302182888990     0.101467141966    12.000000000000
         C           -2.302691738376    -0.022568888990     0.244833141966    12.000000000000
         H            2.065382261624    -1.658762888990    -0.883088858034     1.007825032230
         H            2.189368261624     0.050134111010    -1.327394858034     1.007825032230
         H           -0.093320738376    -2.519625888990    -0.286525858034     1.007825032230
         H            3.782258261624    -0.495324888990     0.521185141966     1.007825032230
         H            2.428810261624    -1.023919888990     1.537301141966     1.007825032230
         H            2.561493261624     0.679323111010     1.045916141966     1.007825032230
         H           -1.747527738376     1.977550111010     0.229771141966     1.007825032230
         H           -2.534861738376    -2.136213888990     0.190697141966     1.007825032230
         H           -3.336111738376     0.238160111010     0.448788141966     1.007825032230

  Basis Set: AUG-CC-PVTZ
    Blend: AUG-CC-PVTZ
  Basis Set: (AUG-CC-PVTZ AUX)
    Blend: AUG-CC-PVTZ-JKFIT
	 Reference Energy          =    -399.7786228812354352 [Eh]
	 Singles Energy            =      -0.0000000000000000 [Eh]
	 Same-Spin Energy          =      -0.4241238232000379 [Eh]
	 Opposite-Spin Energy      =      -1.3401098955126634 [Eh]
	 Correlation Energy        =      -1.7642337187127013 [Eh]
	 Total Energy              =    -401.5428565999481521 [Eh]

	 ================> DF-SCS-MP2 Energies <==================
	-----------------------------------------------------------
	 SCS Same-Spin Scale       =       0.3333333333333333 [-]
	 SCS Opposite-Spin Scale   =       1.2000000000000000 [-]
	 SCS Same-Spin Energy      =      -0.1413746077333460 [Eh]
	 SCS Opposite-Spin Energy  =      -1.6081318746151960 [Eh]
	 SCS Correlation Energy    =      -1.7495064823485420 [Eh]
	 SCS Total Energy          =    -401.5281293635839575 [Eh]
	-----------------------------------------------------------

  Dipole Moment: [D]
     X:    -2.9405      Y:    -2.2436      Z:     0.4581     Total:     3.7269

*** Psi4 exiting successfully. Buy a developer a beer!
