                               Psi4 1.3.2 release

  ==> Input File <==

--------------------------------------------------------------------------
#psi4
#
memory 32 gb

molecule  {
0 1
  O        0.6058420     1.9734460    -0.2200840
  N       -1.4635990     1.0552220     0.1204360
  C        0.4130377    -0.4282772    -0.0920868
  C        1.8447340    -0.6003330    -0.5373460
  C       -0.0912220     0.9510960    -0.1351610
  C       -0.5056070    -1.4668030    -0.1721790
  C        2.6774180    -0.3153160     0.7169370
  C       -1.8875120    -1.2656950     0.0948440
  C       -2.3418770     0.0139190     0.2382100
  H        2.0261970    -1.6222750    -0.8897120
  H        2.1501830     0.0866220    -1.3340180
  H       -0.1325060    -2.4831380    -0.2931490
  H        3.7430730    -0.4588370     0.5145620
  H        2.3896250    -0.9874320     1.5306780
  H        2.5223080     0.7158110     1.0392930
  H       -1.7867130     2.0140380     0.2231480
  H       -2.5740470    -2.0997260     0.1840740
  H       -3.3752970     0.2746480     0.4421650
units angstrom
no_reorient  #important for SAPT in psi4, default
symmetry c1  #important for SAPT in psi4, default
}

set PROPERTIES_ORIGIN ["COM"]
properties('MP2/aug-cc-pvtz', properties = ['dipole'])
--------------------------------------------------------------------------

    Molecular point group: c1
  Charge       = 0
  Multiplicity = 1
  Basis Set: AUG-CC-PVTZ
    Blend: AUG-CC-PVTZ
  Basis Set: (AUG-CC-PVTZ AUX)
    Blend: AUG-CC-PVTZ-JKFIT

    Orbital Energies [Eh]
    ---------------------

    Doubly Occupied:

       1A    -20.510577     2A    -15.626387     3A    -11.354581
       4A    -11.311036     5A    -11.269184     6A    -11.246962
       7A    -11.242775     8A    -11.224080     9A    -11.201940
      10A     -1.370378    11A     -1.271603    12A     -1.115845
      13A     -1.055574    14A     -0.992043    15A     -0.885271
      16A     -0.864943    17A     -0.815027    18A     -0.738597
      19A     -0.700684    20A     -0.672562    21A     -0.628595
      22A     -0.611175    23A     -0.604160    24A     -0.589506
      25A     -0.567002    26A     -0.544550    27A     -0.508098
      28A     -0.493595    29A     -0.484089    30A     -0.472263
      31A     -0.421334    32A     -0.408788    33A     -0.306575

  @DF-RHF Final Energy:  -399.76536160603371

   => Energetics <=

    Nuclear Repulsion Energy =            432.5515204123250328
    One-Electron Energy =               -1400.4142066440078906
    Two-Electron Energy =                 568.0973246256490938
    Total Energy =                       -399.7653616060337072
  Basis Set: (AUG-CC-PVTZ AUX)
    Blend: AUG-CC-PVTZ-RI
    Molecular point group: c1

    Geometry (in Angstrom), charge = 0, multiplicity = 1:

       Center              X                  Y                   Z               Mass
    ------------   -----------------  -----------------  -----------------  -----------------
         O            0.642367833510     1.937623906541    -0.227827637810    15.994914619570
         N           -1.427073166490     1.019399906541     0.112692362190    14.003074004430
         C            0.449563533510    -0.464099293459    -0.099830437810    12.000000000000
         C            1.881259833510    -0.636155093459    -0.545089637810    12.000000000000
         C           -0.054696166490     0.915273906541    -0.142904637810    12.000000000000
         C           -0.469081166490    -1.502625093459    -0.179922637810    12.000000000000
         C            2.713943833510    -0.351138093459     0.709193362190    12.000000000000
         C           -1.850986166490    -1.301517093459     0.087100362190    12.000000000000
         C           -2.305351166490    -0.021903093459     0.230466362190    12.000000000000
         H            2.062722833510    -1.658097093459    -0.897455637810     1.007825032230
         H            2.186708833510     0.050799906541    -1.341761637810     1.007825032230
         H           -0.095980166490    -2.518960093459    -0.300892637810     1.007825032230
         H            3.779598833510    -0.494659093459     0.506818362190     1.007825032230
         H            2.426150833510    -1.023254093459     1.522934362190     1.007825032230
         H            2.558833833510     0.679988906541     1.031549362190     1.007825032230
         H           -1.750187166490     1.978215906541     0.215404362190     1.007825032230
         H           -2.537521166490    -2.135548093459     0.176330362190     1.007825032230
         H           -3.338771166490     0.238825906541     0.434421362190     1.007825032230

  Basis Set: AUG-CC-PVTZ
    Blend: AUG-CC-PVTZ
  Basis Set: (AUG-CC-PVTZ AUX)
    Blend: AUG-CC-PVTZ-JKFIT
	 Reference Energy          =    -399.7653616060337072 [Eh]
	 Singles Energy            =      -0.0000000000000000 [Eh]
	 Same-Spin Energy          =      -0.4247742711936052 [Eh]
	 Opposite-Spin Energy      =      -1.3418217819639400 [Eh]
	 Correlation Energy        =      -1.7665960531575453 [Eh]
	 Total Energy              =    -401.5319576591912778 [Eh]

	 ================> DF-SCS-MP2 Energies <==================
	-----------------------------------------------------------
	 SCS Same-Spin Scale       =       0.3333333333333333 [-]
	 SCS Opposite-Spin Scale   =       1.2000000000000000 [-]
	 SCS Same-Spin Energy      =      -0.1415914237312017 [Eh]
	 SCS Opposite-Spin Energy  =      -1.6101861383567280 [Eh]
	 SCS Correlation Energy    =      -1.7517775620879297 [Eh]
	 SCS Total Energy          =    -401.5171391681216164 [Eh]
	-----------------------------------------------------------

  Dipole Moment: [D]
     X:    -3.0124      Y:    -2.2174      Z:     0.4067     Total:     3.7626

*** Psi4 exiting successfully. Buy a developer a beer!
