                               Psi4 1.3.2 release

  ==> Input File <==

--------------------------------------------------------------------------
#psi4
#
memory 32 gb

molecule  {
0 1
  O        0.6058420     1.9734460    -0.2200840
  N       -1.4635990     1.0552220     0.1204360
  C        0.4039463    -0.4260011    -0.1412006
  C        1.8447340    -0.6003330    -0.5373460
  C       -0.0912220     0.9510960    -0.1351610
  C       -0.5056070    -1.4668030    -0.1721790
  C        2.6774180    -0.3153160     0.7169370
  C       -1.8875120    -1.2656950     0.0948440
  C       -2.3418770     0.0139190     0.2382100
  H        2.0261970    -1.6222750    -0.8897120
  H        2.1501830     0.0866220    -1.3340180
  H       -0.1325060    -2.4831380    -0.2931490
  H        3.7430730    -0.4588370     0.5145620
  H        2.3896250    -0.9874320     1.5306780
  H        2.5223080     0.7158110     1.0392930
  H       -1.7867130     2.0140380     0.2231480
  H       -2.5740470    -2.0997260     0.1840740
  H       -3.3752970     0.2746480     0.4421650
units angstrom
no_reorient  #important for SAPT in psi4, default
symmetry c1  #important for SAPT in psi4, default
}

set PROPERTIES_ORIGIN ["COM"]
properties('MP2/aug-cc-pvtz', properties = ['dipole'])
--------------------------------------------------------------------------

    Molecular point group: c1
  Charge       = 0
  Multiplicity = 1
  Basis Set: AUG-CC-PVTZ
    Blend: AUG-CC-PVTZ
  Basis Set: (AUG-CC-PVTZ AUX)
    Blend: AUG-CC-PVTZ-JKFIT

    Orbital Energies [Eh]
    ---------------------

    Doubly Occupied:

       1A    -20.510277     2A    -15.626231     3A    -11.353927
       4A    -11.310200     5A    -11.267691     6A    -11.246145
       7A    -11.242678     8A    -11.224149     9A    -11.202988
      10A     -1.370333    11A     -1.271416    12A     -1.116791
      13A     -1.055597    14A     -0.992730    15A     -0.886358
      16A     -0.866108    17A     -0.816016    18A     -0.738134
      19A     -0.701669    20A     -0.672357    21A     -0.628108
      22A     -0.611316    23A     -0.604094    24A     -0.590012
      25A     -0.566508    26A     -0.545211    27A     -0.509309
      28A     -0.494381    29A     -0.486043    30A     -0.472801
      31A     -0.421880    32A     -0.409823    33A     -0.306435

  @DF-RHF Final Energy:  -399.77157739600079

   => Energetics <=

    Nuclear Repulsion Energy =            432.6620285412866451
    One-Electron Energy =               -1400.6317752616505459
    Two-Electron Energy =                 568.1981693243631071
    Total Energy =                       -399.7715773960007937
  Basis Set: (AUG-CC-PVTZ AUX)
    Blend: AUG-CC-PVTZ-RI
    Molecular point group: c1

    Geometry (in Angstrom), charge = 0, multiplicity = 1:

       Center              X                  Y                   Z               Mass
    ------------   -----------------  -----------------  -----------------  -----------------
         O            0.643254306298     1.937401971447    -0.223038711218    15.994914619570
         N           -1.426186693702     1.019177971447     0.117481288782    14.003074004430
         C            0.441358606298    -0.462045128553    -0.144155311218    12.000000000000
         C            1.882146306298    -0.636377028553    -0.540300711218    12.000000000000
         C           -0.053809693702     0.915051971447    -0.138115711218    12.000000000000
         C           -0.468194693702    -1.502847028553    -0.175133711218    12.000000000000
         C            2.714830306298    -0.351360028553     0.713982288782    12.000000000000
         C           -1.850099693702    -1.301739028553     0.091889288782    12.000000000000
         C           -2.304464693702    -0.022125028553     0.235255288782    12.000000000000
         H            2.063609306298    -1.658319028553    -0.892666711218     1.007825032230
         H            2.187595306298     0.050577971447    -1.336972711218     1.007825032230
         H           -0.095093693702    -2.519182028553    -0.296103711218     1.007825032230
         H            3.780485306298    -0.494881028553     0.511607288782     1.007825032230
         H            2.427037306298    -1.023476028553     1.527723288782     1.007825032230
         H            2.559720306298     0.679766971447     1.036338288782     1.007825032230
         H           -1.749300693702     1.977993971447     0.220193288782     1.007825032230
         H           -2.536634693702    -2.135770028553     0.181119288782     1.007825032230
         H           -3.337884693702     0.238603971447     0.439210288782     1.007825032230

  Basis Set: AUG-CC-PVTZ
    Blend: AUG-CC-PVTZ
  Basis Set: (AUG-CC-PVTZ AUX)
    Blend: AUG-CC-PVTZ-JKFIT
	 Reference Energy          =    -399.7715773960007937 [Eh]
	 Singles Energy            =      -0.0000000000000000 [Eh]
	 Same-Spin Energy          =      -0.4244880304723053 [Eh]
	 Opposite-Spin Energy      =      -1.3410512193731619 [Eh]
	 Correlation Energy        =      -1.7655392498454672 [Eh]
	 Total Energy              =    -401.5371166458462540 [Eh]

	 ================> DF-SCS-MP2 Energies <==================
	-----------------------------------------------------------
	 SCS Same-Spin Scale       =       0.3333333333333333 [-]
	 SCS Opposite-Spin Scale   =       1.2000000000000000 [-]
	 SCS Same-Spin Energy      =      -0.1414960101574351 [Eh]
	 SCS Opposite-Spin Energy  =      -1.6092614632477942 [Eh]
	 SCS Correlation Energy    =      -1.7507574734052294 [Eh]
	 SCS Total Energy          =    -401.5223348694059951 [Eh]
	-----------------------------------------------------------

  Dipole Moment: [D]
     X:    -2.9801      Y:    -2.2311      Z:     0.4230     Total:     3.7467

*** Psi4 exiting successfully. Buy a developer a beer!
