                               Psi4 1.3.2 release

  ==> Input File <==

--------------------------------------------------------------------------
#psi4
#
memory 32 gb

molecule  {
0 1
  O        0.6058420     1.9734460    -0.2200840
  N       -1.4635990     1.0552220     0.1204360
  C        0.3766720    -0.4191730    -0.2885420
  C        1.8447340    -0.6003330    -0.5373460
  C       -0.0912220     0.9510960    -0.1351610
  C       -0.4802236    -1.4734144    -0.0244902
  C        2.6774180    -0.3153160     0.7169370
  C       -1.8875120    -1.2656950     0.0948440
  C       -2.3418770     0.0139190     0.2382100
  H        2.0261970    -1.6222750    -0.8897120
  H        2.1501830     0.0866220    -1.3340180
  H       -0.1325060    -2.4831380    -0.2931490
  H        3.7430730    -0.4588370     0.5145620
  H        2.3896250    -0.9874320     1.5306780
  H        2.5223080     0.7158110     1.0392930
  H       -1.7867130     2.0140380     0.2231480
  H       -2.5740470    -2.0997260     0.1840740
  H       -3.3752970     0.2746480     0.4421650
units angstrom
no_reorient  #important for SAPT in psi4, default
symmetry c1  #important for SAPT in psi4, default
}

set PROPERTIES_ORIGIN ["COM"]
properties('MP2/aug-cc-pvtz', properties = ['dipole'])
--------------------------------------------------------------------------

    Molecular point group: c1
  Charge       = 0
  Multiplicity = 1
  Basis Set: AUG-CC-PVTZ
    Blend: AUG-CC-PVTZ
  Basis Set: (AUG-CC-PVTZ AUX)
    Blend: AUG-CC-PVTZ-JKFIT

    Orbital Energies [Eh]
    ---------------------

    Doubly Occupied:

       1A    -20.510373     2A    -15.626239     3A    -11.353297
       4A    -11.308742     5A    -11.268064     6A    -11.247842
       7A    -11.243187     8A    -11.224672     9A    -11.206031
      10A     -1.370638    11A     -1.271243    12A     -1.116495
      13A     -1.054952    14A     -0.993123    15A     -0.888399
      16A     -0.867037    17A     -0.818071    18A     -0.737087
      19A     -0.701723    20A     -0.669159    21A     -0.623450
      22A     -0.612417    23A     -0.604439    24A     -0.590219
      25A     -0.561839    26A     -0.544086    27A     -0.516537
      28A     -0.496400    29A     -0.484479    30A     -0.474914
      31A     -0.423249    32A     -0.410154    33A     -0.305657

  @DF-RHF Final Energy:  -399.77170510286857

   => Energetics <=

    Nuclear Repulsion Energy =            432.4907340875577120
    One-Electron Energy =               -1400.2764488740967863
    Two-Electron Energy =                 568.0140096836704515
    Total Energy =                       -399.7717051028686228
  Basis Set: (AUG-CC-PVTZ AUX)
    Blend: AUG-CC-PVTZ-RI
    Molecular point group: c1

    Geometry (in Angstrom), charge = 0, multiplicity = 1:

       Center              X                  Y                   Z               Mass
    ------------   -----------------  -----------------  -----------------  -----------------
         O            0.643438681795     1.937380841737    -0.223072585060    15.994914619570
         N           -1.426002318205     1.019156841737     0.117447414940    14.003074004430
         C            0.414268681795    -0.455238158263    -0.291530585060    12.000000000000
         C            1.882330681795    -0.636398158263    -0.540334585060    12.000000000000
         C           -0.053625318205     0.915030841737    -0.138149585060    12.000000000000
         C           -0.442626918205    -1.509479558263    -0.027478785060    12.000000000000
         C            2.715014681795    -0.351381158263     0.713948414940    12.000000000000
         C           -1.849915318205    -1.301760158263     0.091855414940    12.000000000000
         C           -2.304280318205    -0.022146158263     0.235221414940    12.000000000000
         H            2.063793681795    -1.658340158263    -0.892700585060     1.007825032230
         H            2.187779681795     0.050556841737    -1.337006585060     1.007825032230
         H           -0.094909318205    -2.519203158263    -0.296137585060     1.007825032230
         H            3.780669681795    -0.494902158263     0.511573414940     1.007825032230
         H            2.427221681795    -1.023497158263     1.527689414940     1.007825032230
         H            2.559904681795     0.679745841737     1.036304414940     1.007825032230
         H           -1.749116318205     1.977972841737     0.220159414940     1.007825032230
         H           -2.536450318205    -2.135791158263     0.181085414940     1.007825032230
         H           -3.337700318205     0.238582841737     0.439176414940     1.007825032230

  Basis Set: AUG-CC-PVTZ
    Blend: AUG-CC-PVTZ
  Basis Set: (AUG-CC-PVTZ AUX)
    Blend: AUG-CC-PVTZ-JKFIT
	 Reference Energy          =    -399.7717051028685660 [Eh]
	 Singles Energy            =      -0.0000000000000000 [Eh]
	 Same-Spin Energy          =      -0.4245803797800249 [Eh]
	 Opposite-Spin Energy      =      -1.3411385250023224 [Eh]
	 Correlation Energy        =      -1.7657189047823474 [Eh]
	 Total Energy              =    -401.5374240076509409 [Eh]

	 ================> DF-SCS-MP2 Energies <==================
	-----------------------------------------------------------
	 SCS Same-Spin Scale       =       0.3333333333333333 [-]
	 SCS Opposite-Spin Scale   =       1.2000000000000000 [-]
	 SCS Same-Spin Energy      =      -0.1415267932600083 [Eh]
	 SCS Opposite-Spin Energy  =      -1.6093662300027869 [Eh]
	 SCS Correlation Energy    =      -1.7508930232627953 [Eh]
	 SCS Total Energy          =    -401.5225981261313564 [Eh]
	-----------------------------------------------------------

  Dipole Moment: [D]
     X:    -2.9152      Y:    -2.1910      Z:     0.3980     Total:     3.6685

*** Psi4 exiting successfully. Buy a developer a beer!
