                               Psi4 1.3.2 release

  ==> Input File <==

--------------------------------------------------------------------------
#psi4
#
memory 32 gb

molecule  {
0 1
  O        0.6058420     1.9734460    -0.2200840
  N       -1.4635990     1.0552220     0.1204360
  C        0.3766720    -0.4191730    -0.2885420
  C        1.8447340    -0.6003330    -0.5373460
  C       -0.0912220     0.9510960    -0.1351610
  C       -0.4548402    -1.4800258     0.1231985
  C        2.6774180    -0.3153160     0.7169370
  C       -1.8875120    -1.2656950     0.0948440
  C       -2.3418770     0.0139190     0.2382100
  H        2.0261970    -1.6222750    -0.8897120
  H        2.1501830     0.0866220    -1.3340180
  H       -0.1325060    -2.4831380    -0.2931490
  H        3.7430730    -0.4588370     0.5145620
  H        2.3896250    -0.9874320     1.5306780
  H        2.5223080     0.7158110     1.0392930
  H       -1.7867130     2.0140380     0.2231480
  H       -2.5740470    -2.0997260     0.1840740
  H       -3.3752970     0.2746480     0.4421650
units angstrom
no_reorient  #important for SAPT in psi4, default
symmetry c1  #important for SAPT in psi4, default
}

set PROPERTIES_ORIGIN ["COM"]
properties('MP2/aug-cc-pvtz', properties = ['dipole'])
--------------------------------------------------------------------------

    Molecular point group: c1
  Charge       = 0
  Multiplicity = 1
  Basis Set: AUG-CC-PVTZ
    Blend: AUG-CC-PVTZ
  Basis Set: (AUG-CC-PVTZ AUX)
    Blend: AUG-CC-PVTZ-JKFIT

    Orbital Energies [Eh]
    ---------------------

    Doubly Occupied:

       1A    -20.512474     2A    -15.626503     3A    -11.354856
       4A    -11.306467     5A    -11.273779     6A    -11.256407
       7A    -11.244870     8A    -11.226446     9A    -11.207653
      10A     -1.372133    11A     -1.271228    12A     -1.113065
      13A     -1.053946    14A     -0.992501    15A     -0.887024
      16A     -0.865309    17A     -0.817744    18A     -0.736927
      19A     -0.697947    20A     -0.662374    21A     -0.620492
      22A     -0.612984    23A     -0.605622    24A     -0.589317
      25A     -0.556981    26A     -0.538017    27A     -0.518711
      28A     -0.497903    29A     -0.482853    30A     -0.475694
      31A     -0.425289    32A     -0.407500    33A     -0.303973

  @DF-RHF Final Energy:  -399.74872215746024

   => Energetics <=

    Nuclear Repulsion Energy =            431.8773701925162527
    One-Electron Energy =               -1399.0222058168978947
    Two-Electron Energy =                 567.3961134669214061
    Total Energy =                       -399.7487221574601790
  Basis Set: (AUG-CC-PVTZ AUX)
    Blend: AUG-CC-PVTZ-RI
    Molecular point group: c1

    Geometry (in Angstrom), charge = 0, multiplicity = 1:

       Center              X                  Y                   Z               Mass
    ------------   -----------------  -----------------  -----------------  -----------------
         O            0.640963629177     1.938025497806    -0.237473228926    15.994914619570
         N           -1.428477370823     1.019801497806     0.103046771074    14.003074004430
         C            0.411793629177    -0.454593502194    -0.305931228926    12.000000000000
         C            1.879855629177    -0.635753502194    -0.554735228926    12.000000000000
         C           -0.056100370823     0.915675497806    -0.152550228926    12.000000000000
         C           -0.419718570823    -1.515446302194     0.105809271074    12.000000000000
         C            2.712539629177    -0.350736502194     0.699547771074    12.000000000000
         C           -1.852390370823    -1.301115502194     0.077454771074    12.000000000000
         C           -2.306755370823    -0.021501502194     0.220820771074    12.000000000000
         H            2.061318629177    -1.657695502194    -0.907101228926     1.007825032230
         H            2.185304629177     0.051201497806    -1.351407228926     1.007825032230
         H           -0.097384370823    -2.518558502194    -0.310538228926     1.007825032230
         H            3.778194629177    -0.494257502194     0.497172771074     1.007825032230
         H            2.424746629177    -1.022852502194     1.513288771074     1.007825032230
         H            2.557429629177     0.680390497806     1.021903771074     1.007825032230
         H           -1.751591370823     1.978617497806     0.205758771074     1.007825032230
         H           -2.538925370823    -2.135146502194     0.166684771074     1.007825032230
         H           -3.340175370823     0.239227497806     0.424775771074     1.007825032230

  Basis Set: AUG-CC-PVTZ
    Blend: AUG-CC-PVTZ
  Basis Set: (AUG-CC-PVTZ AUX)
    Blend: AUG-CC-PVTZ-JKFIT
	 Reference Energy          =    -399.7487221574602358 [Eh]
	 Singles Energy            =      -0.0000000000000000 [Eh]
	 Same-Spin Energy          =      -0.4259495059308672 [Eh]
	 Opposite-Spin Energy      =      -1.3449234992611636 [Eh]
	 Correlation Energy        =      -1.7708730051920307 [Eh]
	 Total Energy              =    -401.5195951626522515 [Eh]

	 ================> DF-SCS-MP2 Energies <==================
	-----------------------------------------------------------
	 SCS Same-Spin Scale       =       0.3333333333333333 [-]
	 SCS Opposite-Spin Scale   =       1.2000000000000000 [-]
	 SCS Same-Spin Energy      =      -0.1419831686436224 [Eh]
	 SCS Opposite-Spin Energy  =      -1.6139081991133963 [Eh]
	 SCS Correlation Energy    =      -1.7558913677570187 [Eh]
	 SCS Total Energy          =    -401.5046135252172803 [Eh]
	-----------------------------------------------------------

  Dipole Moment: [D]
     X:    -2.8372      Y:    -2.0470      Z:     0.3036     Total:     3.5117

*** Psi4 exiting successfully. Buy a developer a beer!
