                               Psi4 1.3.2 release

  ==> Input File <==

--------------------------------------------------------------------------
#psi4
#
memory 32 gb

molecule  {
0 1
  O        0.6058420     1.9734460    -0.2200840
  N       -1.4635990     1.0552220     0.1204360
  C        0.3766720    -0.4191730    -0.2885420
  C        1.8447340    -0.6003330    -0.5373460
  C       -0.0912220     0.9510960    -0.1351610
  C       -0.4633013    -1.4778220     0.0739690
  C        2.6774180    -0.3153160     0.7169370
  C       -1.8875120    -1.2656950     0.0948440
  C       -2.3418770     0.0139190     0.2382100
  H        2.0261970    -1.6222750    -0.8897120
  H        2.1501830     0.0866220    -1.3340180
  H       -0.1325060    -2.4831380    -0.2931490
  H        3.7430730    -0.4588370     0.5145620
  H        2.3896250    -0.9874320     1.5306780
  H        2.5223080     0.7158110     1.0392930
  H       -1.7867130     2.0140380     0.2231480
  H       -2.5740470    -2.0997260     0.1840740
  H       -3.3752970     0.2746480     0.4421650
units angstrom
no_reorient  #important for SAPT in psi4, default
symmetry c1  #important for SAPT in psi4, default
}

set PROPERTIES_ORIGIN ["COM"]
properties('MP2/aug-cc-pvtz', properties = ['dipole'])
--------------------------------------------------------------------------

    Molecular point group: c1
  Charge       = 0
  Multiplicity = 1
  Basis Set: AUG-CC-PVTZ
    Blend: AUG-CC-PVTZ
  Basis Set: (AUG-CC-PVTZ AUX)
    Blend: AUG-CC-PVTZ-JKFIT

    Orbital Energies [Eh]
    ---------------------

    Doubly Occupied:

       1A    -20.511572     2A    -15.626401     3A    -11.354186
       4A    -11.307388     5A    -11.271545     6A    -11.252945
       7A    -11.244222     8A    -11.225717     9A    -11.206981
      10A     -1.371494    11A     -1.271224    12A     -1.114422
      13A     -1.054388    14A     -0.992724    15A     -0.887564
      16A     -0.865943    17A     -0.817916    18A     -0.736978
      19A     -0.699453    20A     -0.664903    21A     -0.621538
      22A     -0.612743    23A     -0.605243    24A     -0.589618
      25A     -0.558799    26A     -0.540556    27A     -0.518024
      28A     -0.497319    29A     -0.483387    30A     -0.475445
      31A     -0.424501    32A     -0.408497    33A     -0.304607

  @DF-RHF Final Energy:  -399.75811238707195

   => Energetics <=

    Nuclear Repulsion Energy =            432.1333473546339974
    One-Electron Energy =               -1399.5464335544470487
    Two-Electron Energy =                 567.6549738127411047
    Total Energy =                       -399.7581123870719466
  Basis Set: (AUG-CC-PVTZ AUX)
    Blend: AUG-CC-PVTZ-RI
    Molecular point group: c1

    Geometry (in Angstrom), charge = 0, multiplicity = 1:

       Center              X                  Y                   Z               Mass
    ------------   -----------------  -----------------  -----------------  -----------------
         O            0.641788643466     1.937810612450    -0.232673020805    15.994914619570
         N           -1.427652356534     1.019586612450     0.107846979195    14.003074004430
         C            0.412618643466    -0.454808387550    -0.301131020805    12.000000000000
         C            1.880680643466    -0.635968387550    -0.549935020805    12.000000000000
         C           -0.055275356534     0.915460612450    -0.147750020805    12.000000000000
         C           -0.427354656534    -1.513457387550     0.061379979195    12.000000000000
         C            2.713364643466    -0.350951387550     0.704347979195    12.000000000000
         C           -1.851565356534    -1.301330387550     0.082254979195    12.000000000000
         C           -2.305930356534    -0.021716387550     0.225620979195    12.000000000000
         H            2.062143643466    -1.657910387550    -0.902301020805     1.007825032230
         H            2.186129643466     0.050986612450    -1.346607020805     1.007825032230
         H           -0.096559356534    -2.518773387550    -0.305738020805     1.007825032230
         H            3.779019643466    -0.494472387550     0.501972979195     1.007825032230
         H            2.425571643466    -1.023067387550     1.518088979195     1.007825032230
         H            2.558254643466     0.680175612450     1.026703979195     1.007825032230
         H           -1.750766356534     1.978402612450     0.210558979195     1.007825032230
         H           -2.538100356534    -2.135361387550     0.171484979195     1.007825032230
         H           -3.339350356534     0.239012612450     0.429575979195     1.007825032230

  Basis Set: AUG-CC-PVTZ
    Blend: AUG-CC-PVTZ
  Basis Set: (AUG-CC-PVTZ AUX)
    Blend: AUG-CC-PVTZ-JKFIT
	 Reference Energy          =    -399.7581123870719466 [Eh]
	 Singles Energy            =      -0.0000000000000000 [Eh]
	 Same-Spin Energy          =      -0.4254062084595442 [Eh]
	 Opposite-Spin Energy      =      -1.3433713715349245 [Eh]
	 Correlation Energy        =      -1.7687775799944687 [Eh]
	 Total Energy              =    -401.5268899670664382 [Eh]

	 ================> DF-SCS-MP2 Energies <==================
	-----------------------------------------------------------
	 SCS Same-Spin Scale       =       0.3333333333333333 [-]
	 SCS Opposite-Spin Scale   =       1.2000000000000000 [-]
	 SCS Same-Spin Energy      =      -0.1418020694865147 [Eh]
	 SCS Opposite-Spin Energy  =      -1.6120456458419092 [Eh]
	 SCS Correlation Energy    =      -1.7538477153284240 [Eh]
	 SCS Total Energy          =    -401.5119601024003941 [Eh]
	-----------------------------------------------------------

  Dipole Moment: [D]
     X:    -2.8684      Y:    -2.1046      Z:     0.3369     Total:     3.5736

*** Psi4 exiting successfully. Buy a developer a beer!
