                               Psi4 1.3.2 release

  ==> Input File <==

--------------------------------------------------------------------------
#psi4
#
memory 32 gb

molecule  {
0 1
  O        0.6058420     1.9734460    -0.2200840
  N       -1.4635990     1.0552220     0.1204360
  C        0.4221291    -0.4305532    -0.0429730
  C        1.8447340    -0.6003330    -0.5373460
  C       -0.0912220     0.9510960    -0.1351610
  C       -0.5056070    -1.4668030    -0.1721790
  C        2.6774180    -0.3153160     0.7169370
  C       -1.8875120    -1.2656950     0.0948440
  C       -2.3418770     0.0139190     0.2382100
  H        2.0261970    -1.6222750    -0.8897120
  H        2.1501830     0.0866220    -1.3340180
  H       -0.1325060    -2.4831380    -0.2931490
  H        3.7430730    -0.4588370     0.5145620
  H        2.3896250    -0.9874320     1.5306780
  H        2.5223080     0.7158110     1.0392930
  H       -1.7867130     2.0140380     0.2231480
  H       -2.5740470    -2.0997260     0.1840740
  H       -3.3752970     0.2746480     0.4421650
units angstrom
no_reorient  #important for SAPT in psi4, default
symmetry c1  #important for SAPT in psi4, default
}

set PROPERTIES_ORIGIN ["COM"]
properties('MP2/aug-cc-pvtz', properties = ['dipole'])
--------------------------------------------------------------------------

    Molecular point group: c1
  Charge       = 0
  Multiplicity = 1
  Basis Set: AUG-CC-PVTZ
    Blend: AUG-CC-PVTZ
  Basis Set: (AUG-CC-PVTZ AUX)
    Blend: AUG-CC-PVTZ-JKFIT

    Orbital Energies [Eh]
    ---------------------

    Doubly Occupied:

       1A    -20.510981     2A    -15.626602     3A    -11.355374
       4A    -11.312174     5A    -11.271102     6A    -11.247945
       7A    -11.242918     8A    -11.223945     9A    -11.200800
      10A     -1.370444    11A     -1.271867    12A     -1.114598
      13A     -1.055447    14A     -0.991155    15A     -0.884061
      16A     -0.863584    17A     -0.813865    18A     -0.739127
      19A     -0.699480    20A     -0.672763    21A     -0.628904
      22A     -0.611126    23A     -0.604046    24A     -0.588866
      25A     -0.567494    26A     -0.543694    27A     -0.507042
      28A     -0.493073    29A     -0.480887    30A     -0.471688
      31A     -0.420585    32A     -0.407489    33A     -0.306803

  @DF-RHF Final Energy:  -399.75734326593749

   => Energetics <=

    Nuclear Repulsion Energy =            432.3800933128153474
    One-Electron Energy =               -1400.0750192106447685
    Two-Electron Energy =                 567.9375826318919280
    Total Energy =                       -399.7573432659374930
  Basis Set: (AUG-CC-PVTZ AUX)
    Blend: AUG-CC-PVTZ-RI
    Molecular point group: c1

    Geometry (in Angstrom), charge = 0, multiplicity = 1:

       Center              X                  Y                   Z               Mass
    ------------   -----------------  -----------------  -----------------  -----------------
         O            0.641481360722     1.937845831885    -0.232616564401    15.994914619570
         N           -1.427959639278     1.019621831885     0.107903435599    14.003074004430
         C            0.457768460722    -0.466153368115    -0.055505564401    12.000000000000
         C            1.880373360722    -0.635933168115    -0.549878564401    12.000000000000
         C           -0.055582639278     0.915495831885    -0.147693564401    12.000000000000
         C           -0.469967639278    -1.502403168115    -0.184711564401    12.000000000000
         C            2.713057360722    -0.350916168115     0.704404435599    12.000000000000
         C           -1.851872639278    -1.301295168115     0.082311435599    12.000000000000
         C           -2.306237639278    -0.021681168115     0.225677435599    12.000000000000
         H            2.061836360722    -1.657875168115    -0.902244564401     1.007825032230
         H            2.185822360722     0.051021831885    -1.346550564401     1.007825032230
         H           -0.096866639278    -2.518738168115    -0.305681564401     1.007825032230
         H            3.778712360722    -0.494437168115     0.502029435599     1.007825032230
         H            2.425264360722    -1.023032168115     1.518145435599     1.007825032230
         H            2.557947360722     0.680210831885     1.026760435599     1.007825032230
         H           -1.751073639278     1.978437831885     0.210615435599     1.007825032230
         H           -2.538407639278    -2.135326168115     0.171541435599     1.007825032230
         H           -3.339657639278     0.239047831885     0.429632435599     1.007825032230

  Basis Set: AUG-CC-PVTZ
    Blend: AUG-CC-PVTZ
  Basis Set: (AUG-CC-PVTZ AUX)
    Blend: AUG-CC-PVTZ-JKFIT
	 Reference Energy          =    -399.7573432659374930 [Eh]
	 Singles Energy            =      -0.0000000000000000 [Eh]
	 Same-Spin Energy          =      -0.4251298671558701 [Eh]
	 Opposite-Spin Energy      =      -1.3427929548670492 [Eh]
	 Correlation Energy        =      -1.7679228220229193 [Eh]
	 Total Energy              =    -401.5252660879604036 [Eh]

	 ================> DF-SCS-MP2 Energies <==================
	-----------------------------------------------------------
	 SCS Same-Spin Scale       =       0.3333333333333333 [-]
	 SCS Opposite-Spin Scale   =       1.2000000000000000 [-]
	 SCS Same-Spin Energy      =      -0.1417099557186234 [Eh]
	 SCS Opposite-Spin Energy  =      -1.6113515458404590 [Eh]
	 SCS Correlation Energy    =      -1.7530615015590825 [Eh]
	 SCS Total Energy          =    -401.5104047674965955 [Eh]
	-----------------------------------------------------------

  Dipole Moment: [D]
     X:    -3.0526      Y:    -2.1984      Z:     0.3910     Total:     3.7821

*** Psi4 exiting successfully. Buy a developer a beer!
