                               Psi4 1.3.2 release

  ==> Input File <==

--------------------------------------------------------------------------
#psi4
#
memory 32 gb

molecule  {
0 1
  O        0.6058420     1.9734460    -0.2200840
  N       -1.4635990     1.0552220     0.1204360
  C        0.3766720    -0.4191730    -0.2885420
  C        1.8447340    -0.6003330    -0.5373460
  C       -0.0912220     0.9510960    -0.1351610
  C       -0.4717625    -1.4756182     0.0247394
  C        2.6774180    -0.3153160     0.7169370
  C       -1.8875120    -1.2656950     0.0948440
  C       -2.3418770     0.0139190     0.2382100
  H        2.0261970    -1.6222750    -0.8897120
  H        2.1501830     0.0866220    -1.3340180
  H       -0.1325060    -2.4831380    -0.2931490
  H        3.7430730    -0.4588370     0.5145620
  H        2.3896250    -0.9874320     1.5306780
  H        2.5223080     0.7158110     1.0392930
  H       -1.7867130     2.0140380     0.2231480
  H       -2.5740470    -2.0997260     0.1840740
  H       -3.3752970     0.2746480     0.4421650
units angstrom
no_reorient  #important for SAPT in psi4, default
symmetry c1  #important for SAPT in psi4, default
}

set PROPERTIES_ORIGIN ["COM"]
properties('MP2/aug-cc-pvtz', properties = ['dipole'])
--------------------------------------------------------------------------

    Molecular point group: c1
  Charge       = 0
  Multiplicity = 1
  Basis Set: AUG-CC-PVTZ
    Blend: AUG-CC-PVTZ
  Basis Set: (AUG-CC-PVTZ AUX)
    Blend: AUG-CC-PVTZ-JKFIT

    Orbital Energies [Eh]
    ---------------------

    Doubly Occupied:

       1A    -20.510876     2A    -15.626314     3A    -11.353670
       4A    -11.308151     5A    -11.269623     6A    -11.250083
       7A    -11.243652     8A    -11.225127     9A    -11.206441
      10A     -1.370999    11A     -1.271231    12A     -1.115576
      13A     -1.054719    14A     -0.992933    15A     -0.888028
      16A     -0.866525    17A     -0.818026    18A     -0.737036
      19A     -0.700720    20A     -0.667206    21A     -0.622530
      22A     -0.612559    23A     -0.604851    24A     -0.589933
      25A     -0.560421    26A     -0.542563    27A     -0.517284
      28A     -0.496818    29A     -0.483929    30A     -0.475181
      31A     -0.423817    32A     -0.409393    33A     -0.305175

  @DF-RHF Final Energy:  -399.76576671115737

   => Energetics <=

    Nuclear Repulsion Energy =            432.3385441506041502
    One-Electron Energy =               -1399.9658431966263379
    Two-Electron Energy =                 567.8615323348649326
    Total Energy =                       -399.7657667111573119
  Basis Set: (AUG-CC-PVTZ AUX)
    Blend: AUG-CC-PVTZ-RI
    Molecular point group: c1

    Geometry (in Angstrom), charge = 0, multiplicity = 1:

       Center              X                  Y                   Z               Mass
    ------------   -----------------  -----------------  -----------------  -----------------
         O            0.642613667506     1.937595727093    -0.227872802932    15.994914619570
         N           -1.426827332494     1.019371727093     0.112647197068    14.003074004430
         C            0.413443667506    -0.455023272907    -0.296330802932    12.000000000000
         C            1.881505667506    -0.636183272907    -0.545134802932    12.000000000000
         C           -0.054450332494     0.915245727093    -0.142949802932    12.000000000000
         C           -0.434990832494    -1.511468472907     0.016950597068    12.000000000000
         C            2.714189667506    -0.351166272907     0.709148197068    12.000000000000
         C           -1.850740332494    -1.301545272907     0.087055197068    12.000000000000
         C           -2.305105332494    -0.021931272907     0.230421197068    12.000000000000
         H            2.062968667506    -1.658125272907    -0.897500802932     1.007825032230
         H            2.186954667506     0.050771727093    -1.341806802932     1.007825032230
         H           -0.095734332494    -2.518988272907    -0.300937802932     1.007825032230
         H            3.779844667506    -0.494687272907     0.506773197068     1.007825032230
         H            2.426396667506    -1.023282272907     1.522889197068     1.007825032230
         H            2.559079667506     0.679960727093     1.031504197068     1.007825032230
         H           -1.749941332494     1.978187727093     0.215359197068     1.007825032230
         H           -2.537275332494    -2.135576272907     0.176285197068     1.007825032230
         H           -3.338525332494     0.238797727093     0.434376197068     1.007825032230

  Basis Set: AUG-CC-PVTZ
    Blend: AUG-CC-PVTZ
  Basis Set: (AUG-CC-PVTZ AUX)
    Blend: AUG-CC-PVTZ-JKFIT
	 Reference Energy          =    -399.7657667111573687 [Eh]
	 Singles Energy            =      -0.0000000000000000 [Eh]
	 Same-Spin Energy          =      -0.4249482365101825 [Eh]
	 Opposite-Spin Energy      =      -1.3421077829575339 [Eh]
	 Correlation Energy        =      -1.7670560194677165 [Eh]
	 Total Energy              =    -401.5328227306250710 [Eh]

	 ================> DF-SCS-MP2 Energies <==================
	-----------------------------------------------------------
	 SCS Same-Spin Scale       =       0.3333333333333333 [-]
	 SCS Opposite-Spin Scale   =       1.2000000000000000 [-]
	 SCS Same-Spin Energy      =      -0.1416494121700608 [Eh]
	 SCS Opposite-Spin Energy  =      -1.6105293395490405 [Eh]
	 SCS Correlation Energy    =      -1.7521787517191014 [Eh]
	 SCS Total Energy          =    -401.5179454628764688 [Eh]
	-----------------------------------------------------------

  Dipole Moment: [D]
     X:    -2.8948      Y:    -2.1529      Z:     0.3684     Total:     3.6263

*** Psi4 exiting successfully. Buy a developer a beer!
