                               Psi4 1.3.2 release

  ==> Input File <==

--------------------------------------------------------------------------
#psi4
#
memory 32 gb

molecule  {
0 1
  O        0.6058420     1.9734460    -0.2200840
  N       -1.4635990     1.0552220     0.1204360
  C        0.3948548    -0.4237251    -0.1903144
  C        1.8447340    -0.6003330    -0.5373460
  C       -0.0912220     0.9510960    -0.1351610
  C       -0.5056070    -1.4668030    -0.1721790
  C        2.6774180    -0.3153160     0.7169370
  C       -1.8875120    -1.2656950     0.0948440
  C       -2.3418770     0.0139190     0.2382100
  H        2.0261970    -1.6222750    -0.8897120
  H        2.1501830     0.0866220    -1.3340180
  H       -0.1325060    -2.4831380    -0.2931490
  H        3.7430730    -0.4588370     0.5145620
  H        2.3896250    -0.9874320     1.5306780
  H        2.5223080     0.7158110     1.0392930
  H       -1.7867130     2.0140380     0.2231480
  H       -2.5740470    -2.0997260     0.1840740
  H       -3.3752970     0.2746480     0.4421650
units angstrom
no_reorient  #important for SAPT in psi4, default
symmetry c1  #important for SAPT in psi4, default
}

set PROPERTIES_ORIGIN ["COM"]
properties('MP2/aug-cc-pvtz', properties = ['dipole'])
--------------------------------------------------------------------------

    Molecular point group: c1
  Charge       = 0
  Multiplicity = 1
  Basis Set: AUG-CC-PVTZ
    Blend: AUG-CC-PVTZ
  Basis Set: (AUG-CC-PVTZ AUX)
    Blend: AUG-CC-PVTZ-JKFIT

    Orbital Energies [Eh]
    ---------------------

    Doubly Occupied:

       1A    -20.510070     2A    -15.626127     3A    -11.353430
       4A    -11.309657     5A    -11.266643     6A    -11.245528
       7A    -11.242619     8A    -11.224168     9A    -11.203946
      10A     -1.370305    11A     -1.271297    12A     -1.117416
      13A     -1.055526    14A     -0.993213    15A     -0.887316
      16A     -0.867033    17A     -0.816820    18A     -0.737730
      19A     -0.702393    20A     -0.672177    21A     -0.627446
      22A     -0.611544    23A     -0.603858    24A     -0.590371
      25A     -0.566005    26A     -0.545701    27A     -0.510778
      28A     -0.495210    29A     -0.486829    30A     -0.473297
      31A     -0.422238    32A     -0.410590    33A     -0.306372

  @DF-RHF Final Energy:  -399.77599496647161

   => Energetics <=

    Nuclear Repulsion Energy =            432.7099302753965731
    One-Electron Energy =               -1400.7245485518799342
    Two-Electron Energy =                 568.2386233100118034
    Total Energy =                       -399.7759949664715577
  Basis Set: (AUG-CC-PVTZ AUX)
    Blend: AUG-CC-PVTZ-RI
    Molecular point group: c1

    Geometry (in Angstrom), charge = 0, multiplicity = 1:

       Center              X                  Y                   Z               Mass
    ------------   -----------------  -----------------  -----------------  -----------------
         O            0.644140788836     1.937180046104    -0.218249784626    15.994914619570
         N           -1.425300211164     1.018956046104     0.122270215374    14.003074004430
         C            0.433153588836    -0.459991053896    -0.188480184626    12.000000000000
         C            1.883032788836    -0.636598953896    -0.535511784626    12.000000000000
         C           -0.052923211164     0.914830046104    -0.133326784626    12.000000000000
         C           -0.467308211164    -1.503068953896    -0.170344784626    12.000000000000
         C            2.715716788836    -0.351581953896     0.718771215374    12.000000000000
         C           -1.849213211164    -1.301960953896     0.096678215374    12.000000000000
         C           -2.303578211164    -0.022346953896     0.240044215374    12.000000000000
         H            2.064495788836    -1.658540953896    -0.887877784626     1.007825032230
         H            2.188481788836     0.050356046104    -1.332183784626     1.007825032230
         H           -0.094207211164    -2.519403953896    -0.291314784626     1.007825032230
         H            3.781371788836    -0.495102953896     0.516396215374     1.007825032230
         H            2.427923788836    -1.023697953896     1.532512215374     1.007825032230
         H            2.560606788836     0.679545046104     1.041127215374     1.007825032230
         H           -1.748414211164     1.977772046104     0.224982215374     1.007825032230
         H           -2.535748211164    -2.135991953896     0.185908215374     1.007825032230
         H           -3.336998211164     0.238382046104     0.443999215374     1.007825032230

  Basis Set: AUG-CC-PVTZ
    Blend: AUG-CC-PVTZ
  Basis Set: (AUG-CC-PVTZ AUX)
    Blend: AUG-CC-PVTZ-JKFIT
	 Reference Energy          =    -399.7759949664716146 [Eh]
	 Singles Energy            =      -0.0000000000000000 [Eh]
	 Same-Spin Energy          =      -0.4242715486633961 [Eh]
	 Opposite-Spin Energy      =      -1.3404812818563396 [Eh]
	 Correlation Energy        =      -1.7647528305197357 [Eh]
	 Total Energy              =    -401.5407477969913543 [Eh]

	 ================> DF-SCS-MP2 Energies <==================
	-----------------------------------------------------------
	 SCS Same-Spin Scale       =       0.3333333333333333 [-]
	 SCS Opposite-Spin Scale   =       1.2000000000000000 [-]
	 SCS Same-Spin Energy      =      -0.1414238495544654 [Eh]
	 SCS Opposite-Spin Energy  =      -1.6085775382276075 [Eh]
	 SCS Correlation Energy    =      -1.7500013877820728 [Eh]
	 SCS Total Energy          =    -401.5259963542536639 [Eh]
	-----------------------------------------------------------

  Dipole Moment: [D]
     X:    -2.9561      Y:    -2.2398      Z:     0.4401     Total:     3.7348

*** Psi4 exiting successfully. Buy a developer a beer!
