                               Psi4 1.3.2 release

  ==> Input File <==

--------------------------------------------------------------------------
#psi4
#
memory 32 gb

molecule  {
0 1
  O        0.6058420     1.9734460    -0.2200840
  N       -1.4635990     1.0552220     0.1204360
  C        0.3766720    -0.4191730    -0.2885420
  C        1.8447340    -0.6003330    -0.5373460
  C       -0.0912220     0.9510960    -0.1351610
  C       -0.4886847    -1.4712106    -0.0737198
  C        2.6774180    -0.3153160     0.7169370
  C       -1.8875120    -1.2656950     0.0948440
  C       -2.3418770     0.0139190     0.2382100
  H        2.0261970    -1.6222750    -0.8897120
  H        2.1501830     0.0866220    -1.3340180
  H       -0.1325060    -2.4831380    -0.2931490
  H        3.7430730    -0.4588370     0.5145620
  H        2.3896250    -0.9874320     1.5306780
  H        2.5223080     0.7158110     1.0392930
  H       -1.7867130     2.0140380     0.2231480
  H       -2.5740470    -2.0997260     0.1840740
  H       -3.3752970     0.2746480     0.4421650
units angstrom
no_reorient  #important for SAPT in psi4, default
symmetry c1  #important for SAPT in psi4, default
}

set PROPERTIES_ORIGIN ["COM"]
properties('MP2/aug-cc-pvtz', properties = ['dipole'])
--------------------------------------------------------------------------

    Molecular point group: c1
  Charge       = 0
  Multiplicity = 1
  Basis Set: AUG-CC-PVTZ
    Blend: AUG-CC-PVTZ
  Basis Set: (AUG-CC-PVTZ AUX)
    Blend: AUG-CC-PVTZ-JKFIT

    Orbital Energies [Eh]
    ---------------------

    Doubly Occupied:

       1A    -20.510050     2A    -15.626173     3A    -11.353056
       4A    -11.309154     5A    -11.266910     6A    -11.246237
       7A    -11.242848     8A    -11.224350     9A    -11.205752
      10A     -1.370402    11A     -1.271252    12A     -1.117158
      13A     -1.055094    14A     -0.993293    15A     -0.888662
      16A     -0.867464    17A     -0.818053    18A     -0.737118
      19A     -0.702440    20A     -0.670653    21A     -0.624283
      22A     -0.612306    23A     -0.603999    24A     -0.590444
      25A     -0.563057    26A     -0.545180    27A     -0.515807
      28A     -0.496063    29A     -0.485040    30A     -0.474651
      31A     -0.422815    32A     -0.410747    33A     -0.306038

  @DF-RHF Final Energy:  -399.77595308213159

   => Energetics <=

    Nuclear Repulsion Energy =            432.5881167228997128
    One-Electron Energy =               -1400.4750424477692832
    Two-Electron Energy =                 568.1109726427379201
    Total Energy =                       -399.7759530821316503
  Basis Set: (AUG-CC-PVTZ AUX)
    Blend: AUG-CC-PVTZ-RI
    Molecular point group: c1

    Geometry (in Angstrom), charge = 0, multiplicity = 1:

       Center              X                  Y                   Z               Mass
    ------------   -----------------  -----------------  -----------------  -----------------
         O            0.644263696084     1.937165956380    -0.218272367187    15.994914619570
         N           -1.425177303916     1.018941956380     0.122247632813    14.003074004430
         C            0.415093696084    -0.455453043620    -0.286730367187    12.000000000000
         C            1.883155696084    -0.636613043620    -0.535534367187    12.000000000000
         C           -0.052800303916     0.914815956380    -0.133349367187    12.000000000000
         C           -0.450263003916    -1.507490643620    -0.071908167187    12.000000000000
         C            2.715839696084    -0.351596043620     0.718748632813    12.000000000000
         C           -1.849090303916    -1.301975043620     0.096655632813    12.000000000000
         C           -2.303455303916    -0.022361043620     0.240021632813    12.000000000000
         H            2.064618696084    -1.658555043620    -0.887900367187     1.007825032230
         H            2.188604696084     0.050341956380    -1.332206367187     1.007825032230
         H           -0.094084303916    -2.519418043620    -0.291337367187     1.007825032230
         H            3.781494696084    -0.495117043620     0.516373632813     1.007825032230
         H            2.428046696084    -1.023712043620     1.532489632813     1.007825032230
         H            2.560729696084     0.679530956380     1.041104632813     1.007825032230
         H           -1.748291303916     1.977757956380     0.224959632813     1.007825032230
         H           -2.535625303916    -2.136006043620     0.185885632813     1.007825032230
         H           -3.336875303916     0.238367956380     0.443976632813     1.007825032230

  Basis Set: AUG-CC-PVTZ
    Blend: AUG-CC-PVTZ
  Basis Set: (AUG-CC-PVTZ AUX)
    Blend: AUG-CC-PVTZ-JKFIT
	 Reference Energy          =    -399.7759530821315934 [Eh]
	 Singles Energy            =      -0.0000000000000000 [Eh]
	 Same-Spin Energy          =      -0.4243060722010230 [Eh]
	 Opposite-Spin Energy      =      -1.3404644825186889 [Eh]
	 Correlation Energy        =      -1.7647705547197119 [Eh]
	 Total Energy              =    -401.5407236368512827 [Eh]

	 ================> DF-SCS-MP2 Energies <==================
	-----------------------------------------------------------
	 SCS Same-Spin Scale       =       0.3333333333333333 [-]
	 SCS Opposite-Spin Scale   =       1.2000000000000000 [-]
	 SCS Same-Spin Energy      =      -0.1414353574003410 [Eh]
	 SCS Opposite-Spin Energy  =      -1.6085573790224266 [Eh]
	 SCS Correlation Energy    =      -1.7499927364227676 [Eh]
	 SCS Total Energy          =    -401.5259458185543622 [Eh]
	-----------------------------------------------------------

  Dipole Moment: [D]
     X:    -2.9289      Y:    -2.2188      Z:     0.4257     Total:     3.6990

*** Psi4 exiting successfully. Buy a developer a beer!
