                               Psi4 1.4a3.dev225

  ==> Input File <==

--------------------------------------------------------------------------
#psi4
#
memory 32 gb

molecule  {
0 1
  O       -1.4373610     0.6812660     0.0112400
  N        0.8840130     0.5088410    -0.0326410
  N        1.9094790    -0.3796650    -0.0187050
  C       -0.3727218    -0.1268187     0.0045126
  C       -0.1032490    -1.4732180     0.0219040
  C        1.1440790     1.9331410     0.0175110
  C        1.3002790    -1.5787310     0.0070160
  C       -2.6563940    -0.0670400    -0.0135030
  H       -0.8330430    -2.2689870     0.0348200
  H        1.1952250     2.2834660     1.0517640
  H        2.0986020     2.1064990    -0.4777900
  H        0.3432740     2.4564130    -0.5057130
  H        1.9052260    -2.4764620     0.0069120
  H       -3.4562640     0.6719480    -0.0131020
  H       -2.7349570    -0.7043590     0.8727740
  H       -2.7131850    -0.6822330    -0.9168940
units angstrom
no_reorient  #important for SAPT in psi4, default
symmetry c1  #important for SAPT in psi4, default
}

set PROPERTIES_ORIGIN ["COM"]
properties('MP2/aug-cc-pvtz', properties = ['dipole'])
--------------------------------------------------------------------------

    Molecular point group: c1
  Charge       = 0
  Multiplicity = 1
  Basis Set: AUG-CC-PVTZ
    Blend: AUG-CC-PVTZ
  Basis Set: (AUG-CC-PVTZ AUX)
    Blend: AUG-CC-PVTZ-JKFIT

    Orbital Energies [Eh]
    ---------------------

    Doubly Occupied:

       1A    -20.614406     2A    -15.622993     3A    -15.576762
       4A    -11.336945     5A    -11.300433     6A    -11.260711
       7A    -11.250667     8A    -11.216759     9A     -1.447520
      10A     -1.347702    11A     -1.107759    12A     -1.049399
      13A     -0.969060    14A     -0.927028    15A     -0.798969
      16A     -0.775978    17A     -0.725485    18A     -0.684942
      19A     -0.648559    20A     -0.629408    21A     -0.624306
      22A     -0.594115    23A     -0.569433    24A     -0.544271
      25A     -0.542205    26A     -0.530247    27A     -0.504375
      28A     -0.447338    29A     -0.348227    30A     -0.317764

  @DF-RHF Final Energy:  -377.83864553007936

   => Energetics <=

    Nuclear Repulsion Energy =            377.1732896482965316
    One-Electron Energy =               -1261.3963373902922740
    Two-Electron Energy =                 506.3844022119163810
    Total Energy =                       -377.8386455300793614
  Basis Set: (AUG-CC-PVTZ AUX)
    Blend: AUG-CC-PVTZ-RI
    Molecular point group: c1

    Geometry (in Angstrom), charge = 0, multiplicity = 1:

       Center              X                  Y                   Z               Mass
    ------------   -----------------  -----------------  -----------------  -----------------
         O           -1.469869112582     0.695982769396     0.011567919522    15.994914619570
         N            0.851504887418     0.523557769396    -0.032313080478    14.003074004430
         N            1.876970887418    -0.364948230604    -0.018377080478    14.003074004430
         C           -0.405229912582    -0.112101930604     0.004840519522    12.000000000000
         C           -0.135757112582    -1.458501230604     0.022231919522    12.000000000000
         C            1.111570887418     1.947857769396     0.017838919522    12.000000000000
         C            1.267770887418    -1.564014230604     0.007343919522    12.000000000000
         C           -2.688902112582    -0.052323230604    -0.013175080478    12.000000000000
         H           -0.865551112582    -2.254270230604     0.035147919522     1.007825032230
         H            1.162716887418     2.298182769396     1.052091919522     1.007825032230
         H            2.066093887418     2.121215769396    -0.477462080478     1.007825032230
         H            0.310765887418     2.471129769396    -0.505385080478     1.007825032230
         H            1.872717887418    -2.461745230604     0.007239919522     1.007825032230
         H           -3.488772112582     0.686664769396    -0.012774080478     1.007825032230
         H           -2.767465112582    -0.689642230604     0.873101919522     1.007825032230
         H           -2.745693112582    -0.667516230604    -0.916566080478     1.007825032230

  Basis Set: AUG-CC-PVTZ
    Blend: AUG-CC-PVTZ
  Basis Set: (AUG-CC-PVTZ AUX)
    Blend: AUG-CC-PVTZ-JKFIT
	 Reference Energy          =    -377.8386455300793614 [Eh]
	 Singles Energy            =      -0.0000000000000000 [Eh]
	 Same-Spin Energy          =      -0.3970738358718338 [Eh]
	 Opposite-Spin Energy      =      -1.2409538474069246 [Eh]
	 Correlation Energy        =      -1.6380276832787584 [Eh]
	 Total Energy              =    -379.4766732133581399 [Eh]

	 ================> DF-SCS-MP2 Energies <==================
	-----------------------------------------------------------
	 SCS Same-Spin Scale       =       0.3333333333333333 [-]
	 SCS Opposite-Spin Scale   =       1.2000000000000000 [-]
	 SCS Same-Spin Energy      =      -0.1323579452906112 [Eh]
	 SCS Opposite-Spin Energy  =      -1.4891446168883096 [Eh]
	 SCS Correlation Energy    =      -1.6215025621789207 [Eh]
	 SCS Total Energy          =    -379.4601480922582937 [Eh]
	-----------------------------------------------------------

  Dipole Moment: [D]
     X:    -3.1913      Y:     0.5944      Z:     0.0058     Total:     3.2462

*** Psi4 exiting successfully. Buy a developer a beer!
