                               Psi4 1.3.2 release

  ==> Input File <==

--------------------------------------------------------------------------
#psi4
#
memory 32 gb

molecule  {
0 1
  O       -1.4373610     0.6812660     0.0112400
  N        0.8840130     0.5088410    -0.0326410
  N        1.8450990    -0.4489902    -0.0231154
  C       -0.3281200    -0.1042590     0.0031940
  C       -0.1032490    -1.4732180     0.0219040
  C        1.1440790     1.9331410     0.0175110
  C        1.3002790    -1.5787310     0.0070160
  C       -2.6563940    -0.0670400    -0.0135030
  H       -0.8330430    -2.2689870     0.0348200
  H        1.1952250     2.2834660     1.0517640
  H        2.0986020     2.1064990    -0.4777900
  H        0.3432740     2.4564130    -0.5057130
  H        1.9052260    -2.4764620     0.0069120
  H       -3.4562640     0.6719480    -0.0131020
  H       -2.7349570    -0.7043590     0.8727740
  H       -2.7131850    -0.6822330    -0.9168940
units angstrom
no_reorient  #important for SAPT in psi4, default
symmetry c1  #important for SAPT in psi4, default
}

set PROPERTIES_ORIGIN ["COM"]
properties('MP2/aug-cc-pvtz', properties = ['dipole'])
--------------------------------------------------------------------------

    Molecular point group: c1
  Charge       = 0
  Multiplicity = 1
  Basis Set: AUG-CC-PVTZ
    Blend: AUG-CC-PVTZ
  Basis Set: (AUG-CC-PVTZ AUX)
    Blend: AUG-CC-PVTZ-JKFIT

    Orbital Energies [Eh]
    ---------------------

    Doubly Occupied:

       1A    -20.607280     2A    -15.624327     3A    -15.562467
       4A    -11.332762     5A    -11.295838     6A    -11.266961
       7A    -11.239774     8A    -11.207989     9A     -1.435811
      10A     -1.366267    11A     -1.136109    12A     -1.042554
      13A     -0.962241    14A     -0.939636    15A     -0.803991
      16A     -0.771647    17A     -0.727441    18A     -0.681255
      19A     -0.642562    20A     -0.634275    21A     -0.625229
      22A     -0.594709    23A     -0.584528    24A     -0.551471
      25A     -0.549817    26A     -0.522686    27A     -0.503473
      28A     -0.431685    29A     -0.355225    30A     -0.323255

  @DF-RHF Final Energy:  -377.84306061978464

   => Energetics <=

    Nuclear Repulsion Energy =            379.3539825080866308
    One-Electron Energy =               -1265.7475525795832709
    Two-Electron Energy =                 508.5505094517120597
    Total Energy =                       -377.8430606197846373
  Basis Set: (AUG-CC-PVTZ AUX)
    Blend: AUG-CC-PVTZ-RI
    Molecular point group: c1

    Geometry (in Angstrom), charge = 0, multiplicity = 1:

       Center              X                  Y                   Z               Mass
    ------------   -----------------  -----------------  -----------------  -----------------
         O           -1.466600467822     0.702229660564     0.012260225623    15.994914619570
         N            0.854773532178     0.529804660564    -0.031620774377    14.003074004430
         N            1.815859532178    -0.428026539436    -0.022095174377    14.003074004430
         C           -0.357359467822    -0.083295339436     0.004214225623    12.000000000000
         C           -0.132488467822    -1.452254339436     0.022924225623    12.000000000000
         C            1.114839532178     1.954104660564     0.018531225623    12.000000000000
         C            1.271039532178    -1.557767339436     0.008036225623    12.000000000000
         C           -2.685633467822    -0.046076339436    -0.012482774377    12.000000000000
         H           -0.862282467822    -2.248023339436     0.035840225623     1.007825032230
         H            1.165985532178     2.304429660564     1.052784225623     1.007825032230
         H            2.069362532178     2.127462660564    -0.476769774377     1.007825032230
         H            0.314034532178     2.477376660564    -0.504692774377     1.007825032230
         H            1.875986532178    -2.455498339436     0.007932225623     1.007825032230
         H           -3.485503467822     0.692911660564    -0.012081774377     1.007825032230
         H           -2.764196467822    -0.683395339436     0.873794225623     1.007825032230
         H           -2.742424467822    -0.661269339436    -0.915873774377     1.007825032230

  Basis Set: AUG-CC-PVTZ
    Blend: AUG-CC-PVTZ
  Basis Set: (AUG-CC-PVTZ AUX)
    Blend: AUG-CC-PVTZ-JKFIT
	 Reference Energy          =    -377.8430606197846373 [Eh]
	 Singles Energy            =      -0.0000000000000000 [Eh]
	 Same-Spin Energy          =      -0.3940397116254322 [Eh]
	 Opposite-Spin Energy      =      -1.2346451247128525 [Eh]
	 Correlation Energy        =      -1.6286848363382846 [Eh]
	 Total Energy              =    -379.4717454561229033 [Eh]

	 ================> DF-SCS-MP2 Energies <==================
	-----------------------------------------------------------
	 SCS Same-Spin Scale       =       0.3333333333333333 [-]
	 SCS Opposite-Spin Scale   =       1.2000000000000000 [-]
	 SCS Same-Spin Energy      =      -0.1313465705418107 [Eh]
	 SCS Opposite-Spin Energy  =      -1.4815741496554229 [Eh]
	 SCS Correlation Energy    =      -1.6129207201972335 [Eh]
	 SCS Total Energy          =    -379.4559813399818609 [Eh]
	-----------------------------------------------------------

  Dipole Moment: [D]
     X:    -2.7590      Y:     0.7215      Z:     0.0065     Total:     2.8518

*** Psi4 exiting successfully. Buy a developer a beer!
