                               Psi4 1.3.2 release

  ==> Input File <==

--------------------------------------------------------------------------
#psi4
#
memory 32 gb

molecule  {
0 1
  O       -1.4373610     0.6812660     0.0112400
  N        0.8840130     0.5088410    -0.0326410
  N        1.9248051    -0.3616437    -0.0176122
  C       -0.3281200    -0.1042590     0.0031940
  C       -0.1032490    -1.4732180     0.0219040
  C        1.1440790     1.9331410     0.0175110
  C        1.3002790    -1.5787310     0.0070160
  C       -2.6563940    -0.0670400    -0.0135030
  H       -0.8330430    -2.2689870     0.0348200
  H        1.1952250     2.2834660     1.0517640
  H        2.0986020     2.1064990    -0.4777900
  H        0.3432740     2.4564130    -0.5057130
  H        1.9052260    -2.4764620     0.0069120
  H       -3.4562640     0.6719480    -0.0131020
  H       -2.7349570    -0.7043590     0.8727740
  H       -2.7131850    -0.6822330    -0.9168940
units angstrom
no_reorient  #important for SAPT in psi4, default
symmetry c1  #important for SAPT in psi4, default
}

set PROPERTIES_ORIGIN ["COM"]
properties('MP2/aug-cc-pvtz', properties = ['dipole'])
--------------------------------------------------------------------------

    Molecular point group: c1
  Charge       = 0
  Multiplicity = 1
  Basis Set: AUG-CC-PVTZ
    Blend: AUG-CC-PVTZ
  Basis Set: (AUG-CC-PVTZ AUX)
    Blend: AUG-CC-PVTZ-JKFIT

    Orbital Energies [Eh]
    ---------------------

    Doubly Occupied:

       1A    -20.609618     2A    -15.629592     3A    -15.576248
       4A    -11.336190     5A    -11.298555     6A    -11.263462
       7A    -11.255029     8A    -11.217630     9A     -1.437093
      10A     -1.354347    11A     -1.109101    12A     -1.051294
      13A     -0.964799    14A     -0.932657    15A     -0.805250
      16A     -0.770511    17A     -0.726173    18A     -0.682193
      19A     -0.645466    20A     -0.632734    21A     -0.619873
      22A     -0.593907    23A     -0.576204    24A     -0.545241
      25A     -0.543018    26A     -0.523910    27A     -0.500375
      28A     -0.451387    29A     -0.349599    30A     -0.319088

  @DF-RHF Final Energy:  -377.84086933337619

   => Energetics <=

    Nuclear Repulsion Energy =            377.0621735372091052
    One-Electron Energy =               -1261.1649967249591100
    Two-Electron Energy =                 506.2619538543738145
    Total Energy =                       -377.8408693333761903
  Basis Set: (AUG-CC-PVTZ AUX)
    Blend: AUG-CC-PVTZ-RI
    Molecular point group: c1

    Geometry (in Angstrom), charge = 0, multiplicity = 1:

       Center              X                  Y                   Z               Mass
    ------------   -----------------  -----------------  -----------------  -----------------
         O           -1.476560256644     0.691315154720     0.011572565459    15.994914619570
         N            0.844813743356     0.518890154720    -0.032308434541    14.003074004430
         N            1.885605843356    -0.351594545280    -0.017279634541    14.003074004430
         C           -0.367319256644    -0.094209845280     0.003526565459    12.000000000000
         C           -0.142448256644    -1.463168845280     0.022236565459    12.000000000000
         C            1.104879743356     1.943190154720     0.017843565459    12.000000000000
         C            1.261079743356    -1.568681845280     0.007348565459    12.000000000000
         C           -2.695593256644    -0.056990845280    -0.013170434541    12.000000000000
         H           -0.872242256644    -2.258937845280     0.035152565459     1.007825032230
         H            1.156025743356     2.293515154720     1.052096565459     1.007825032230
         H            2.059402743356     2.116548154720    -0.477457434541     1.007825032230
         H            0.304074743356     2.466462154720    -0.505380434541     1.007825032230
         H            1.866026743356    -2.466412845280     0.007244565459     1.007825032230
         H           -3.495463256644     0.681997154720    -0.012769434541     1.007825032230
         H           -2.774156256644    -0.694309845280     0.873106565459     1.007825032230
         H           -2.752384256644    -0.672183845280    -0.916561434541     1.007825032230

  Basis Set: AUG-CC-PVTZ
    Blend: AUG-CC-PVTZ
  Basis Set: (AUG-CC-PVTZ AUX)
    Blend: AUG-CC-PVTZ-JKFIT
	 Reference Energy          =    -377.8408693333761903 [Eh]
	 Singles Energy            =      -0.0000000000000000 [Eh]
	 Same-Spin Energy          =      -0.3971101274005601 [Eh]
	 Opposite-Spin Energy      =      -1.2410430085402251 [Eh]
	 Correlation Energy        =      -1.6381531359407853 [Eh]
	 Total Energy              =    -379.4790224693169876 [Eh]

	 ================> DF-SCS-MP2 Energies <==================
	-----------------------------------------------------------
	 SCS Same-Spin Scale       =       0.3333333333333333 [-]
	 SCS Opposite-Spin Scale   =       1.2000000000000000 [-]
	 SCS Same-Spin Energy      =      -0.1323700424668534 [Eh]
	 SCS Opposite-Spin Energy  =      -1.4892516102482700 [Eh]
	 SCS Correlation Energy    =      -1.6216216527151235 [Eh]
	 SCS Total Energy          =    -379.4624909860913249 [Eh]
	-----------------------------------------------------------

  Dipole Moment: [D]
     X:    -3.0506      Y:     0.6288      Z:     0.0022     Total:     3.1148

*** Psi4 exiting successfully. Buy a developer a beer!
