                               Psi4 1.3.2 release

  ==> Input File <==

--------------------------------------------------------------------------
#psi4
#
memory 32 gb

molecule  {
0 1
  O       -1.4373610     0.6812660     0.0112400
  N        0.8840130     0.5088410    -0.0326410
  N        1.9094790    -0.3796650    -0.0187050
  C       -0.3281200    -0.1042590     0.0031940
  C       -0.1032490    -1.4732180     0.0219040
  C        1.1440790     1.9331410     0.0175110
  C        1.3002790    -1.5787310     0.0070160
  C       -2.6563940    -0.0670400    -0.0135030
  H       -0.6978736    -2.1215980     0.0324278
  H        1.1952250     2.2834660     1.0517640
  H        2.0986020     2.1064990    -0.4777900
  H        0.3432740     2.4564130    -0.5057130
  H        1.9052260    -2.4764620     0.0069120
  H       -3.4562640     0.6719480    -0.0131020
  H       -2.7349570    -0.7043590     0.8727740
  H       -2.7131850    -0.6822330    -0.9168940
units angstrom
no_reorient  #important for SAPT in psi4, default
symmetry c1  #important for SAPT in psi4, default
}

set PROPERTIES_ORIGIN ["COM"]
properties('MP2/aug-cc-pvtz', properties = ['dipole'])
--------------------------------------------------------------------------

    Molecular point group: c1
  Charge       = 0
  Multiplicity = 1
  Basis Set: AUG-CC-PVTZ
    Blend: AUG-CC-PVTZ
  Basis Set: (AUG-CC-PVTZ AUX)
    Blend: AUG-CC-PVTZ-JKFIT

    Orbital Energies [Eh]
    ---------------------

    Doubly Occupied:

       1A    -20.609316     2A    -15.627637     3A    -15.572793
       4A    -11.334593     5A    -11.298702     6A    -11.263695
       7A    -11.250956     8A    -11.192469     9A     -1.436861
      10A     -1.355510    11A     -1.114283    12A     -1.054533
      13A     -0.969488    14A     -0.935682    15A     -0.818464
      16A     -0.774653    17A     -0.736897    18A     -0.681975
      19A     -0.663379    20A     -0.632766    21A     -0.628438
      22A     -0.595862    23A     -0.581501    24A     -0.546922
      25A     -0.545108    26A     -0.526006    27A     -0.501036
      28A     -0.448201    29A     -0.349282    30A     -0.320308

  @DF-RHF Final Energy:  -377.80741154318866

   => Energetics <=

    Nuclear Repulsion Energy =            378.6481063487641450
    One-Electron Energy =               -1264.1764015945618667
    Two-Electron Energy =                 507.7208837026090578
    Total Energy =                       -377.8074115431886639
  Basis Set: (AUG-CC-PVTZ AUX)
    Blend: AUG-CC-PVTZ-RI
    Molecular point group: c1

    Geometry (in Angstrom), charge = 0, multiplicity = 1:

       Center              X                  Y                   Z               Mass
    ------------   -----------------  -----------------  -----------------  -----------------
         O           -1.475860784526     0.692241514534     0.011730631667    15.994914619570
         N            0.845513215474     0.519816514534    -0.032150368333    14.003074004430
         N            1.870979215474    -0.368689485466    -0.018214368333    14.003074004430
         C           -0.366619784526    -0.093283485466     0.003684631667    12.000000000000
         C           -0.141748784526    -1.462242485466     0.022394631667    12.000000000000
         C            1.105579215474     1.944116514534     0.018001631667    12.000000000000
         C            1.261779215474    -1.567755485466     0.007506631667    12.000000000000
         C           -2.694893784526    -0.056064485466    -0.013012368333    12.000000000000
         H           -0.736373384526    -2.110622485466     0.032918431667     1.007825032230
         H            1.156725215474     2.294441514534     1.052254631667     1.007825032230
         H            2.060102215474     2.117474514534    -0.477299368333     1.007825032230
         H            0.304774215474     2.467388514534    -0.505222368333     1.007825032230
         H            1.866726215474    -2.465486485466     0.007402631667     1.007825032230
         H           -3.494763784526     0.682923514534    -0.012611368333     1.007825032230
         H           -2.773456784526    -0.693383485466     0.873264631667     1.007825032230
         H           -2.751684784526    -0.671257485466    -0.916403368333     1.007825032230

  Basis Set: AUG-CC-PVTZ
    Blend: AUG-CC-PVTZ
  Basis Set: (AUG-CC-PVTZ AUX)
    Blend: AUG-CC-PVTZ-JKFIT
	 Reference Energy          =    -377.8074115431886639 [Eh]
	 Singles Energy            =      -0.0000000000000000 [Eh]
	 Same-Spin Energy          =      -0.3961873105270882 [Eh]
	 Opposite-Spin Energy      =      -1.2392291618159652 [Eh]
	 Correlation Energy        =      -1.6354164723430533 [Eh]
	 Total Energy              =    -379.4428280155317452 [Eh]

	 ================> DF-SCS-MP2 Energies <==================
	-----------------------------------------------------------
	 SCS Same-Spin Scale       =       0.3333333333333333 [-]
	 SCS Opposite-Spin Scale   =       1.2000000000000000 [-]
	 SCS Same-Spin Energy      =      -0.1320624368423627 [Eh]
	 SCS Opposite-Spin Energy  =      -1.4870749941791581 [Eh]
	 SCS Correlation Energy    =      -1.6191374310215207 [Eh]
	 SCS Total Energy          =    -379.4265489742101636 [Eh]
	-----------------------------------------------------------

  Dipole Moment: [D]
     X:    -3.0129      Y:     0.6587      Z:     0.0031     Total:     3.0840

*** Psi4 exiting successfully. Buy a developer a beer!
