                               Psi4 1.3.2 release

  ==> Input File <==

--------------------------------------------------------------------------
#psi4
#
memory 32 gb

molecule  {
0 1
  O       -1.4373610     0.6812660     0.0112400
  N        0.8840130     0.5088410    -0.0326410
  N        1.9094790    -0.3796650    -0.0187050
  C       -0.3419978    -0.1234925     0.0026890
  C       -0.1032490    -1.4732180     0.0219040
  C        1.1440790     1.9331410     0.0175110
  C        1.3002790    -1.5787310     0.0070160
  C       -2.6563940    -0.0670400    -0.0135030
  H       -0.8330430    -2.2689870     0.0348200
  H        1.1952250     2.2834660     1.0517640
  H        2.0986020     2.1064990    -0.4777900
  H        0.3432740     2.4564130    -0.5057130
  H        1.9052260    -2.4764620     0.0069120
  H       -3.4562640     0.6719480    -0.0131020
  H       -2.7349570    -0.7043590     0.8727740
  H       -2.7131850    -0.6822330    -0.9168940
units angstrom
no_reorient  #important for SAPT in psi4, default
symmetry c1  #important for SAPT in psi4, default
}

set PROPERTIES_ORIGIN ["COM"]
properties('MP2/aug-cc-pvtz', properties = ['dipole'])
--------------------------------------------------------------------------

    Molecular point group: c1
  Charge       = 0
  Multiplicity = 1
  Basis Set: AUG-CC-PVTZ
    Blend: AUG-CC-PVTZ
  Basis Set: (AUG-CC-PVTZ AUX)
    Blend: AUG-CC-PVTZ-JKFIT

    Orbital Energies [Eh]
    ---------------------

    Doubly Occupied:

       1A    -20.609928     2A    -15.626117     3A    -15.575936
       4A    -11.335011     5A    -11.297889     6A    -11.262911
       7A    -11.251902     8A    -11.216021     9A     -1.436811
      10A     -1.353055    11A     -1.111530    12A     -1.051410
      13A     -0.965036    14A     -0.930926    15A     -0.802897
      16A     -0.771858    17A     -0.725854    18A     -0.681357
      19A     -0.644770    20A     -0.631462    21A     -0.622075
      22A     -0.594477    23A     -0.574727    24A     -0.544937
      25A     -0.543702    26A     -0.526910    27A     -0.501084
      28A     -0.448569    29A     -0.349647    30A     -0.321512

  @DF-RHF Final Energy:  -377.84210790137809

   => Energetics <=

    Nuclear Repulsion Energy =            377.3540757289228509
    One-Electron Energy =               -1261.7717251219783066
    Two-Electron Energy =                 506.5755414916773134
    Total Energy =                       -377.8421079013780854
  Basis Set: (AUG-CC-PVTZ AUX)
    Blend: AUG-CC-PVTZ-RI
    Molecular point group: c1

    Geometry (in Angstrom), charge = 0, multiplicity = 1:

       Center              X                  Y                   Z               Mass
    ------------   -----------------  -----------------  -----------------  -----------------
         O           -1.473159099635     0.695626593282     0.011763194238    15.994914619570
         N            0.848214900365     0.523201593282    -0.032117805762    14.003074004430
         N            1.873680900365    -0.365304406718    -0.018181805762    14.003074004430
         C           -0.377795899635    -0.109131906718     0.003212194238    12.000000000000
         C           -0.139047099635    -1.458857406718     0.022427194238    12.000000000000
         C            1.108280900365     1.947501593282     0.018034194238    12.000000000000
         C            1.264480900365    -1.564370406718     0.007539194238    12.000000000000
         C           -2.692192099635    -0.052679406718    -0.012979805762    12.000000000000
         H           -0.868841099635    -2.254626406718     0.035343194238     1.007825032230
         H            1.159426900365     2.297826593282     1.052287194238     1.007825032230
         H            2.062803900365     2.120859593282    -0.477266805762     1.007825032230
         H            0.307475900365     2.470773593282    -0.505189805762     1.007825032230
         H            1.869427900365    -2.462101406718     0.007435194238     1.007825032230
         H           -3.492062099635     0.686308593282    -0.012578805762     1.007825032230
         H           -2.770755099635    -0.689998406718     0.873297194238     1.007825032230
         H           -2.748983099635    -0.667872406718    -0.916370805762     1.007825032230

  Basis Set: AUG-CC-PVTZ
    Blend: AUG-CC-PVTZ
  Basis Set: (AUG-CC-PVTZ AUX)
    Blend: AUG-CC-PVTZ-JKFIT
	 Reference Energy          =    -377.8421079013780854 [Eh]
	 Singles Energy            =      -0.0000000000000000 [Eh]
	 Same-Spin Energy          =      -0.3966598389747869 [Eh]
	 Opposite-Spin Energy      =      -1.2402579355297763 [Eh]
	 Correlation Energy        =      -1.6369177745045631 [Eh]
	 Total Energy              =    -379.4790256758826672 [Eh]

	 ================> DF-SCS-MP2 Energies <==================
	-----------------------------------------------------------
	 SCS Same-Spin Scale       =       0.3333333333333333 [-]
	 SCS Opposite-Spin Scale   =       1.2000000000000000 [-]
	 SCS Same-Spin Energy      =      -0.1322199463249289 [Eh]
	 SCS Opposite-Spin Energy  =      -1.4883095226357315 [Eh]
	 SCS Correlation Energy    =      -1.6205294689606604 [Eh]
	 SCS Total Energy          =    -379.4626373703387685 [Eh]
	-----------------------------------------------------------

  Dipole Moment: [D]
     X:    -3.0280      Y:     0.5875      Z:     0.0043     Total:     3.0844

*** Psi4 exiting successfully. Buy a developer a beer!
