                               Psi4 1.3.2 release

  ==> Input File <==

--------------------------------------------------------------------------
#psi4
#
memory 32 gb

molecule  {
0 1
  O       -1.4373610     0.6812660     0.0112400
  N        0.8840130     0.5088410    -0.0326410
  N        1.8111326    -0.4819232    -0.0253393
  C       -0.3281200    -0.1042590     0.0031940
  C       -0.1032490    -1.4732180     0.0219040
  C        1.1440790     1.9331410     0.0175110
  C        1.3002790    -1.5787310     0.0070160
  C       -2.6563940    -0.0670400    -0.0135030
  H       -0.8330430    -2.2689870     0.0348200
  H        1.1952250     2.2834660     1.0517640
  H        2.0986020     2.1064990    -0.4777900
  H        0.3432740     2.4564130    -0.5057130
  H        1.9052260    -2.4764620     0.0069120
  H       -3.4562640     0.6719480    -0.0131020
  H       -2.7349570    -0.7043590     0.8727740
  H       -2.7131850    -0.6822330    -0.9168940
units angstrom
no_reorient  #important for SAPT in psi4, default
symmetry c1  #important for SAPT in psi4, default
}

set PROPERTIES_ORIGIN ["COM"]
properties('MP2/aug-cc-pvtz', properties = ['dipole'])
--------------------------------------------------------------------------

    Molecular point group: c1
  Charge       = 0
  Multiplicity = 1
  Basis Set: AUG-CC-PVTZ
    Blend: AUG-CC-PVTZ
  Basis Set: (AUG-CC-PVTZ AUX)
    Blend: AUG-CC-PVTZ-JKFIT

    Orbital Energies [Eh]
    ---------------------

    Doubly Occupied:

       1A    -20.606279     2A    -15.622568     3A    -15.556159
       4A    -11.331338     5A    -11.294714     6A    -11.268465
       7A    -11.233241     8A    -11.204254     9A     -1.435586
      10A     -1.372411    11A     -1.148040    12A     -1.039187
      13A     -0.961078    14A     -0.942753    15A     -0.804035
      16A     -0.770843    17A     -0.728360    18A     -0.681164
      19A     -0.641927    20A     -0.635178    21A     -0.627145
      22A     -0.596823    23A     -0.587864    24A     -0.554672
      25A     -0.551205    26A     -0.521992    27A     -0.504639
      28A     -0.421337    29A     -0.360703    30A     -0.322112

  @DF-RHF Final Energy:  -377.83276275249534

   => Energetics <=

    Nuclear Repulsion Energy =            380.3776188521504196
    One-Electron Energy =               -1267.7686226147409343
    Two-Electron Energy =                 509.5582410100952302
    Total Energy =                       -377.8327627524953414
  Basis Set: (AUG-CC-PVTZ AUX)
    Blend: AUG-CC-PVTZ-RI
    Molecular point group: c1

    Geometry (in Angstrom), charge = 0, multiplicity = 1:

       Center              X                  Y                   Z               Mass
    ------------   -----------------  -----------------  -----------------  -----------------
         O           -1.462356148115     0.706344850308     0.012538116203    15.994914619570
         N            0.859017851885     0.533919850308    -0.031342883797    14.003074004430
         N            1.786137451885    -0.456844349692    -0.024041183797    14.003074004430
         C           -0.353115148115    -0.079180149692     0.004492116203    12.000000000000
         C           -0.128244148115    -1.448139149692     0.023202116203    12.000000000000
         C            1.119083851885     1.958219850308     0.018809116203    12.000000000000
         C            1.275283851885    -1.553652149692     0.008314116203    12.000000000000
         C           -2.681389148115    -0.041961149692    -0.012204883797    12.000000000000
         H           -0.858038148115    -2.243908149692     0.036118116203     1.007825032230
         H            1.170229851885     2.308544850308     1.053062116203     1.007825032230
         H            2.073606851885     2.131577850308    -0.476491883797     1.007825032230
         H            0.318278851885     2.481491850308    -0.504414883797     1.007825032230
         H            1.880230851885    -2.451383149692     0.008210116203     1.007825032230
         H           -3.481259148115     0.697026850308    -0.011803883797     1.007825032230
         H           -2.759952148115    -0.679280149692     0.874072116203     1.007825032230
         H           -2.738180148115    -0.657154149692    -0.915595883797     1.007825032230

  Basis Set: AUG-CC-PVTZ
    Blend: AUG-CC-PVTZ
  Basis Set: (AUG-CC-PVTZ AUX)
    Blend: AUG-CC-PVTZ-JKFIT
	 Reference Energy          =    -377.8327627524953414 [Eh]
	 Singles Energy            =      -0.0000000000000000 [Eh]
	 Same-Spin Energy          =      -0.3930738944733975 [Eh]
	 Opposite-Spin Energy      =      -1.2326609910948538 [Eh]
	 Correlation Energy        =      -1.6257348855682512 [Eh]
	 Total Energy              =    -379.4584976380635908 [Eh]

	 ================> DF-SCS-MP2 Energies <==================
	-----------------------------------------------------------
	 SCS Same-Spin Scale       =       0.3333333333333333 [-]
	 SCS Opposite-Spin Scale   =       1.2000000000000000 [-]
	 SCS Same-Spin Energy      =      -0.1310246314911325 [Eh]
	 SCS Opposite-Spin Energy  =      -1.4791931893138246 [Eh]
	 SCS Correlation Energy    =      -1.6102178208049571 [Eh]
	 SCS Total Energy          =    -379.4429805733003036 [Eh]
	-----------------------------------------------------------

  Dipole Moment: [D]
     X:    -2.6220      Y:     0.7667      Z:     0.0082     Total:     2.7318

*** Psi4 exiting successfully. Buy a developer a beer!
