                               Psi4 1.3.2 release

  ==> Input File <==

--------------------------------------------------------------------------
#psi4
#
memory 32 gb

molecule  {
0 1
  O       -1.4373610     0.6812660     0.0112400
  N        0.8245252     0.4351614    -0.0309840
  N        1.9094790    -0.3796650    -0.0187050
  C       -0.3281200    -0.1042590     0.0031940
  C       -0.1032490    -1.4732180     0.0219040
  C        1.1440790     1.9331410     0.0175110
  C        1.3002790    -1.5787310     0.0070160
  C       -2.6563940    -0.0670400    -0.0135030
  H       -0.8330430    -2.2689870     0.0348200
  H        1.1952250     2.2834660     1.0517640
  H        2.0986020     2.1064990    -0.4777900
  H        0.3432740     2.4564130    -0.5057130
  H        1.9052260    -2.4764620     0.0069120
  H       -3.4562640     0.6719480    -0.0131020
  H       -2.7349570    -0.7043590     0.8727740
  H       -2.7131850    -0.6822330    -0.9168940
units angstrom
no_reorient  #important for SAPT in psi4, default
symmetry c1  #important for SAPT in psi4, default
}

set PROPERTIES_ORIGIN ["COM"]
properties('MP2/aug-cc-pvtz', properties = ['dipole'])
--------------------------------------------------------------------------

    Molecular point group: c1
  Charge       = 0
  Multiplicity = 1
  Basis Set: AUG-CC-PVTZ
    Blend: AUG-CC-PVTZ
  Basis Set: (AUG-CC-PVTZ AUX)
    Blend: AUG-CC-PVTZ-JKFIT

    Orbital Energies [Eh]
    ---------------------

    Doubly Occupied:

       1A    -20.608445     2A    -15.628795     3A    -15.569765
       4A    -11.326268     5A    -11.297446     6A    -11.272513
       7A    -11.250268     8A    -11.208266     9A     -1.441412
      10A     -1.367197    11A     -1.110905    12A     -1.054826
      13A     -0.960946    14A     -0.938140    15A     -0.811096
      16A     -0.767783    17A     -0.726442    18A     -0.685651
      19A     -0.641640    20A     -0.630973    21A     -0.616881
      22A     -0.591085    23A     -0.568231    24A     -0.554676
      25A     -0.540416    26A     -0.521058    27A     -0.501311
      28A     -0.456201    29A     -0.351467    30A     -0.323551

  @DF-RHF Final Energy:  -377.83336404858414

   => Energetics <=

    Nuclear Repulsion Energy =            378.8274993462899829
    One-Electron Energy =               -1264.6744151849850368
    Two-Electron Energy =                 508.0135517901109097
    Total Energy =                       -377.8333640485841443
  Basis Set: (AUG-CC-PVTZ AUX)
    Blend: AUG-CC-PVTZ-RI
    Molecular point group: c1

    Geometry (in Angstrom), charge = 0, multiplicity = 1:

       Center              X                  Y                   Z               Mass
    ------------   -----------------  -----------------  -----------------  -----------------
         O           -1.467211779615     0.702773770795     0.011502065047    15.994914619570
         N            0.794674420385     0.456669170795    -0.030721934953    14.003074004430
         N            1.879628220385    -0.358157229205    -0.018442934953    14.003074004430
         C           -0.357970779615    -0.082751229205     0.003456065047    12.000000000000
         C           -0.133099779615    -1.451710229205     0.022166065047    12.000000000000
         C            1.114228220385     1.954648770795     0.017773065047    12.000000000000
         C            1.270428220385    -1.557223229205     0.007278065047    12.000000000000
         C           -2.686244779615    -0.045532229205    -0.013240934953    12.000000000000
         H           -0.862893779615    -2.247479229205     0.035082065047     1.007825032230
         H            1.165374220385     2.304973770795     1.052026065047     1.007825032230
         H            2.068751220385     2.128006770795    -0.477527934953     1.007825032230
         H            0.313423220385     2.477920770795    -0.505450934953     1.007825032230
         H            1.875375220385    -2.454954229205     0.007174065047     1.007825032230
         H           -3.486114779615     0.693455770795    -0.012839934953     1.007825032230
         H           -2.764807779615    -0.682851229205     0.873036065047     1.007825032230
         H           -2.743035779615    -0.660725229205    -0.916631934953     1.007825032230

  Basis Set: AUG-CC-PVTZ
    Blend: AUG-CC-PVTZ
  Basis Set: (AUG-CC-PVTZ AUX)
    Blend: AUG-CC-PVTZ-JKFIT
	 Reference Energy          =    -377.8333640485841443 [Eh]
	 Singles Energy            =      -0.0000000000000000 [Eh]
	 Same-Spin Energy          =      -0.3955948358393492 [Eh]
	 Opposite-Spin Energy      =      -1.2382965399350683 [Eh]
	 Correlation Energy        =      -1.6338913757744176 [Eh]
	 Total Energy              =    -379.4672554243585409 [Eh]

	 ================> DF-SCS-MP2 Energies <==================
	-----------------------------------------------------------
	 SCS Same-Spin Scale       =       0.3333333333333333 [-]
	 SCS Opposite-Spin Scale   =       1.2000000000000000 [-]
	 SCS Same-Spin Energy      =      -0.1318649452797830 [Eh]
	 SCS Opposite-Spin Energy  =      -1.4859558479220818 [Eh]
	 SCS Correlation Energy    =      -1.6178207932018649 [Eh]
	 SCS Total Energy          =    -379.4511848417860165 [Eh]
	-----------------------------------------------------------

  Dipole Moment: [D]
     X:    -2.8980      Y:     0.8661      Z:     0.0082     Total:     3.0246

*** Psi4 exiting successfully. Buy a developer a beer!
