                               Psi4 1.4a3.dev225

  ==> Input File <==

--------------------------------------------------------------------------
#psi4
#
memory 32 gb

molecule  {
0 1
  O       -1.4373610     0.6812660     0.0112400
  N        0.8840130     0.5088410    -0.0326410
  N        1.9094790    -0.3796650    -0.0187050
  C       -0.3281200    -0.1042590     0.0031940
  C       -0.1032490    -1.4732180     0.0219040
  C        1.1440790     1.9331410     0.0175110
  C        1.3202216    -1.5802302     0.0068045
  C       -2.6563940    -0.0670400    -0.0135030
  H       -0.8330430    -2.2689870     0.0348200
  H        1.1952250     2.2834660     1.0517640
  H        2.0986020     2.1064990    -0.4777900
  H        0.3432740     2.4564130    -0.5057130
  H        1.9052260    -2.4764620     0.0069120
  H       -3.4562640     0.6719480    -0.0131020
  H       -2.7349570    -0.7043590     0.8727740
  H       -2.7131850    -0.6822330    -0.9168940
units angstrom
no_reorient  #important for SAPT in psi4, default
symmetry c1  #important for SAPT in psi4, default
}

set PROPERTIES_ORIGIN ["COM"]
properties('MP2/aug-cc-pvtz', properties = ['dipole'])
--------------------------------------------------------------------------

    Molecular point group: c1
  Charge       = 0
  Multiplicity = 1
  Basis Set: AUG-CC-PVTZ
    Blend: AUG-CC-PVTZ
  Basis Set: (AUG-CC-PVTZ AUX)
    Blend: AUG-CC-PVTZ-JKFIT

    Orbital Energies [Eh]
    ---------------------

    Doubly Occupied:

       1A    -20.609052     2A    -15.627739     3A    -15.574863
       4A    -11.335344     5A    -11.297698     6A    -11.264101
       7A    -11.252867     8A    -11.216345     9A     -1.436541
      10A     -1.356424    11A     -1.114940    12A     -1.047909
      13A     -0.963225    14A     -0.933854    15A     -0.806433
      16A     -0.769961    17A     -0.726577    18A     -0.681644
      19A     -0.645307    20A     -0.632911    21A     -0.620159
      22A     -0.594401    23A     -0.577785    24A     -0.547167
      25A     -0.545390    26A     -0.524072    27A     -0.501005
      28A     -0.446289    29A     -0.347459    30A     -0.322484

  @DF-RHF Final Energy:  -377.84428890832334

   => Energetics <=

    Nuclear Repulsion Energy =            377.2612703746097509
    One-Electron Energy =               -1261.5712284791288766
    Two-Electron Energy =                 506.4656691961958472
    Total Energy =                       -377.8442889083233354
  Basis Set: (AUG-CC-PVTZ AUX)
    Blend: AUG-CC-PVTZ-RI
    Molecular point group: c1

    Geometry (in Angstrom), charge = 0, multiplicity = 1:

       Center              X                  Y                   Z               Mass
    ------------   -----------------  -----------------  -----------------  -----------------
         O           -1.476780655361     0.693727569151     0.011731765674    15.994914619570
         N            0.844593344639     0.521302569151    -0.032149234326    14.003074004430
         N            1.870059344639    -0.367203430849    -0.018213234326    14.003074004430
         C           -0.367539655361    -0.091797430849     0.003685765674    12.000000000000
         C           -0.142668655361    -1.460756430849     0.022395765674    12.000000000000
         C            1.104659344639     1.945602569151     0.018002765674    12.000000000000
         C            1.280801944639    -1.567768630849     0.007296265674    12.000000000000
         C           -2.695813655361    -0.054578430849    -0.013011234326    12.000000000000
         H           -0.872462655361    -2.256525430849     0.035311765674     1.007825032230
         H            1.155805344639     2.295927569151     1.052255765674     1.007825032230
         H            2.059182344639     2.118960569151    -0.477298234326     1.007825032230
         H            0.303854344639     2.468874569151    -0.505221234326     1.007825032230
         H            1.865806344639    -2.464000430849     0.007403765674     1.007825032230
         H           -3.495683655361     0.684409569151    -0.012610234326     1.007825032230
         H           -2.774376655361    -0.691897430849     0.873265765674     1.007825032230
         H           -2.752604655361    -0.669771430849    -0.916402234326     1.007825032230

  Basis Set: AUG-CC-PVTZ
    Blend: AUG-CC-PVTZ
  Basis Set: (AUG-CC-PVTZ AUX)
    Blend: AUG-CC-PVTZ-JKFIT
	 Reference Energy          =    -377.8442889083233354 [Eh]
	 Singles Energy            =      -0.0000000000000000 [Eh]
	 Same-Spin Energy          =      -0.3960536467241335 [Eh]
	 Opposite-Spin Energy      =      -1.2391371219716247 [Eh]
	 Correlation Energy        =      -1.6351907686957583 [Eh]
	 Total Energy              =    -379.4794796770190715 [Eh]

	 ================> DF-SCS-MP2 Energies <==================
	-----------------------------------------------------------
	 SCS Same-Spin Scale       =       0.3333333333333333 [-]
	 SCS Opposite-Spin Scale   =       1.2000000000000000 [-]
	 SCS Same-Spin Energy      =      -0.1320178822413778 [Eh]
	 SCS Opposite-Spin Energy  =      -1.4869645463659495 [Eh]
	 SCS Correlation Energy    =      -1.6189824286073273 [Eh]
	 SCS Total Energy          =    -379.4632713369306884 [Eh]
	-----------------------------------------------------------

  Dipole Moment: [D]
     X:    -2.9622      Y:     0.6356      Z:     0.0015     Total:     3.0296

*** Psi4 exiting successfully. Buy a developer a beer!
