                               Psi4 1.3.2 release

  ==> Input File <==

--------------------------------------------------------------------------
#psi4
#
memory 32 gb

molecule  {
0 1
  O       -1.4508937     0.6617918     0.0118722
  N        0.8840130     0.5088410    -0.0326410
  N        1.9094790    -0.3796650    -0.0187050
  C       -0.3281200    -0.1042590     0.0031940
  C       -0.1032490    -1.4732180     0.0219040
  C        1.1440790     1.9331410     0.0175110
  C        1.3002790    -1.5787310     0.0070160
  C       -2.6563940    -0.0670400    -0.0135030
  H       -0.8330430    -2.2689870     0.0348200
  H        1.1952250     2.2834660     1.0517640
  H        2.0986020     2.1064990    -0.4777900
  H        0.3432740     2.4564130    -0.5057130
  H        1.9052260    -2.4764620     0.0069120
  H       -3.4562640     0.6719480    -0.0131020
  H       -2.7349570    -0.7043590     0.8727740
  H       -2.7131850    -0.6822330    -0.9168940
units angstrom
no_reorient  #important for SAPT in psi4, default
symmetry c1  #important for SAPT in psi4, default
}

set PROPERTIES_ORIGIN ["COM"]
properties('MP2/aug-cc-pvtz', properties = ['dipole'])
--------------------------------------------------------------------------

    Molecular point group: c1
  Charge       = 0
  Multiplicity = 1
  Basis Set: AUG-CC-PVTZ
    Blend: AUG-CC-PVTZ
  Basis Set: (AUG-CC-PVTZ AUX)
    Blend: AUG-CC-PVTZ-JKFIT

    Orbital Energies [Eh]
    ---------------------

    Doubly Occupied:

       1A    -20.608292     2A    -15.629779     3A    -15.574388
       4A    -11.336410     5A    -11.295664     6A    -11.264874
       7A    -11.252542     8A    -11.215599     9A     -1.441098
      10A     -1.358191    11A     -1.114884    12A     -1.051428
      13A     -0.964354    14A     -0.934213    15A     -0.805516
      16A     -0.772788    17A     -0.727672    18A     -0.684491
      19A     -0.648441    20A     -0.634440    21A     -0.622017
      22A     -0.594793    23A     -0.578260    24A     -0.546187
      25A     -0.545379    26A     -0.520371    27A     -0.498673
      28A     -0.449078    29A     -0.350127    30A     -0.321327

  @DF-RHF Final Energy:  -377.84455307355609

   => Energetics <=

    Nuclear Repulsion Energy =            377.6939971524595876
    One-Electron Energy =               -1262.3945457326556152
    Two-Electron Energy =                 506.8559955066399425
    Total Energy =                       -377.8445530735560851
  Basis Set: (AUG-CC-PVTZ AUX)
    Blend: AUG-CC-PVTZ-RI
    Molecular point group: c1

    Geometry (in Angstrom), charge = 0, multiplicity = 1:

       Center              X                  Y                   Z               Mass
    ------------   -----------------  -----------------  -----------------  -----------------
         O           -1.486246331587     0.676872396218     0.012251083544    15.994914619570
         N            0.848660368413     0.523921596218    -0.032262116456    14.003074004430
         N            1.874126368413    -0.364584403782    -0.018326116456    14.003074004430
         C           -0.363472631587    -0.089178403782     0.003572883544    12.000000000000
         C           -0.138601631587    -1.458137403782     0.022282883544    12.000000000000
         C            1.108726368413     1.948221596218     0.017889883544    12.000000000000
         C            1.264926368413    -1.563650403782     0.007394883544    12.000000000000
         C           -2.691746631587    -0.051959403782    -0.013124116456    12.000000000000
         H           -0.868395631587    -2.253906403782     0.035198883544     1.007825032230
         H            1.159872368413     2.298546596218     1.052142883544     1.007825032230
         H            2.063249368413     2.121579596218    -0.477411116456     1.007825032230
         H            0.307921368413     2.471493596218    -0.505334116456     1.007825032230
         H            1.869873368413    -2.461381403782     0.007290883544     1.007825032230
         H           -3.491616631587     0.687028596218    -0.012723116456     1.007825032230
         H           -2.770309631587    -0.689278403782     0.873152883544     1.007825032230
         H           -2.748537631587    -0.667152403782    -0.916515116456     1.007825032230

  Basis Set: AUG-CC-PVTZ
    Blend: AUG-CC-PVTZ
  Basis Set: (AUG-CC-PVTZ AUX)
    Blend: AUG-CC-PVTZ-JKFIT
	 Reference Energy          =    -377.8445530735560851 [Eh]
	 Singles Energy            =      -0.0000000000000000 [Eh]
	 Same-Spin Energy          =      -0.3962792529952430 [Eh]
	 Opposite-Spin Energy      =      -1.2389752796170652 [Eh]
	 Correlation Energy        =      -1.6352545326123082 [Eh]
	 Total Energy              =    -379.4798076061683787 [Eh]

	 ================> DF-SCS-MP2 Energies <==================
	-----------------------------------------------------------
	 SCS Same-Spin Scale       =       0.3333333333333333 [-]
	 SCS Opposite-Spin Scale   =       1.2000000000000000 [-]
	 SCS Same-Spin Energy      =      -0.1320930843317477 [Eh]
	 SCS Opposite-Spin Energy  =      -1.4867703355404782 [Eh]
	 SCS Correlation Energy    =      -1.6188634198722258 [Eh]
	 SCS Total Energy          =    -379.4634164934283262 [Eh]
	-----------------------------------------------------------

  Dipole Moment: [D]
     X:    -2.9191      Y:     0.6878      Z:     0.0029     Total:     2.9991

*** Psi4 exiting successfully. Buy a developer a beer!
