                               Psi4 1.4a3.dev225

  ==> Input File <==

--------------------------------------------------------------------------
#psi4
#
memory 32 gb

molecule  {
0 1
  O       -1.4373610     0.6812660     0.0112400
  N        0.8840130     0.5088410    -0.0326410
  N        1.9094790    -0.3796650    -0.0187050
  C       -0.3281200    -0.1042590     0.0031940
  C       -0.1032490    -1.4732180     0.0219040
  C        1.1440790     1.9331410     0.0175110
  C        1.3501355    -1.5824791     0.0064871
  C       -2.6563940    -0.0670400    -0.0135030
  H       -0.8330430    -2.2689870     0.0348200
  H        1.1952250     2.2834660     1.0517640
  H        2.0986020     2.1064990    -0.4777900
  H        0.3432740     2.4564130    -0.5057130
  H        1.9052260    -2.4764620     0.0069120
  H       -3.4562640     0.6719480    -0.0131020
  H       -2.7349570    -0.7043590     0.8727740
  H       -2.7131850    -0.6822330    -0.9168940
units angstrom
no_reorient  #important for SAPT in psi4, default
symmetry c1  #important for SAPT in psi4, default
}

set PROPERTIES_ORIGIN ["COM"]
properties('MP2/aug-cc-pvtz', properties = ['dipole'])
--------------------------------------------------------------------------

    Molecular point group: c1
  Charge       = 0
  Multiplicity = 1
  Basis Set: AUG-CC-PVTZ
    Blend: AUG-CC-PVTZ
  Basis Set: (AUG-CC-PVTZ AUX)
    Blend: AUG-CC-PVTZ-JKFIT

    Orbital Energies [Eh]
    ---------------------

    Doubly Occupied:

       1A    -20.608885     2A    -15.626741     3A    -15.576485
       4A    -11.335081     5A    -11.297219     6A    -11.264060
       7A    -11.253940     8A    -11.217196     9A     -1.436183
      10A     -1.356527    11A     -1.116633    12A     -1.045395
      13A     -0.961687    14A     -0.933761    15A     -0.808886
      16A     -0.768421    17A     -0.727152    18A     -0.681204
      19A     -0.646189    20A     -0.632832    21A     -0.620032
      22A     -0.595047    23A     -0.577714    24A     -0.549270
      25A     -0.544890    26A     -0.524246    27A     -0.501055
      28A     -0.442952    29A     -0.345052    30A     -0.324292

  @DF-RHF Final Energy:  -377.84302499856472

   => Energetics <=

    Nuclear Repulsion Energy =            376.9235245052710752
    One-Electron Energy =               -1260.8950450592831203
    Two-Electron Energy =                 506.1284955554473299
    Total Energy =                       -377.8430249985647151
  Basis Set: (AUG-CC-PVTZ AUX)
    Blend: AUG-CC-PVTZ-RI
    Molecular point group: c1

    Geometry (in Angstrom), charge = 0, multiplicity = 1:

       Center              X                  Y                   Z               Mass
    ------------   -----------------  -----------------  -----------------  -----------------
         O           -1.479983895294     0.693968385838     0.011765753498    15.994914619570
         N            0.841390104706     0.521543385838    -0.032115246502    14.003074004430
         N            1.866856104706    -0.366962614162    -0.018179246502    14.003074004430
         C           -0.370742895294    -0.091556614162     0.003719753498    12.000000000000
         C           -0.145871895294    -1.460515614162     0.022429753498    12.000000000000
         C            1.101456104706     1.945843385838     0.018036753498    12.000000000000
         C            1.307512604706    -1.569776714162     0.007012853498    12.000000000000
         C           -2.699016895294    -0.054337614162    -0.012977246502    12.000000000000
         H           -0.875665895294    -2.256284614162     0.035345753498     1.007825032230
         H            1.152602104706     2.296168385838     1.052289753498     1.007825032230
         H            2.055979104706     2.119201385838    -0.477264246502     1.007825032230
         H            0.300651104706     2.469115385838    -0.505187246502     1.007825032230
         H            1.862603104706    -2.463759614162     0.007437753498     1.007825032230
         H           -3.498886895294     0.684650385838    -0.012576246502     1.007825032230
         H           -2.777579895294    -0.691656614162     0.873299753498     1.007825032230
         H           -2.755807895294    -0.669530614162    -0.916368246502     1.007825032230

  Basis Set: AUG-CC-PVTZ
    Blend: AUG-CC-PVTZ
  Basis Set: (AUG-CC-PVTZ AUX)
    Blend: AUG-CC-PVTZ-JKFIT
	 Reference Energy          =    -377.8430249985647151 [Eh]
	 Singles Energy            =      -0.0000000000000000 [Eh]
	 Same-Spin Energy          =      -0.3955168895131430 [Eh]
	 Opposite-Spin Energy      =      -1.2385372773553216 [Eh]
	 Correlation Energy        =      -1.6340541668684645 [Eh]
	 Total Energy              =    -379.4770791654331674 [Eh]

	 ================> DF-SCS-MP2 Energies <==================
	-----------------------------------------------------------
	 SCS Same-Spin Scale       =       0.3333333333333333 [-]
	 SCS Opposite-Spin Scale   =       1.2000000000000000 [-]
	 SCS Same-Spin Energy      =      -0.1318389631710477 [Eh]
	 SCS Opposite-Spin Energy  =      -1.4862447328263859 [Eh]
	 SCS Correlation Energy    =      -1.6180836959974336 [Eh]
	 SCS Total Energy          =    -379.4611086945621423 [Eh]
	-----------------------------------------------------------

  Dipole Moment: [D]
     X:    -2.9057      Y:     0.6205      Z:    -0.0008     Total:     2.9712

*** Psi4 exiting successfully. Buy a developer a beer!
