                               Psi4 1.3.2 release

  ==> Input File <==

--------------------------------------------------------------------------
#psi4
#
memory 32 gb

molecule  {
0 1
  O       -1.3492209     0.7928837     0.0074023
  N        0.8840130     0.5088410    -0.0326410
  N        1.9094790    -0.3796650    -0.0187050
  C       -0.3281200    -0.1042590     0.0031940
  C       -0.1032490    -1.4732180     0.0219040
  C        1.1440790     1.9331410     0.0175110
  C        1.3002790    -1.5787310     0.0070160
  C       -2.6563940    -0.0670400    -0.0135030
  H       -0.8330430    -2.2689870     0.0348200
  H        1.1952250     2.2834660     1.0517640
  H        2.0986020     2.1064990    -0.4777900
  H        0.3432740     2.4564130    -0.5057130
  H        1.9052260    -2.4764620     0.0069120
  H       -3.4562640     0.6719480    -0.0131020
  H       -2.7349570    -0.7043590     0.8727740
  H       -2.7131850    -0.6822330    -0.9168940
units angstrom
no_reorient  #important for SAPT in psi4, default
symmetry c1  #important for SAPT in psi4, default
}

set PROPERTIES_ORIGIN ["COM"]
properties('MP2/aug-cc-pvtz', properties = ['dipole'])
--------------------------------------------------------------------------

    Molecular point group: c1
  Charge       = 0
  Multiplicity = 1
  Basis Set: AUG-CC-PVTZ
    Blend: AUG-CC-PVTZ
  Basis Set: (AUG-CC-PVTZ AUX)
    Blend: AUG-CC-PVTZ-JKFIT

    Orbital Energies [Eh]
    ---------------------

    Doubly Occupied:

       1A    -20.612233     2A    -15.620770     3A    -15.570177
       4A    -11.331287     5A    -11.312764     6A    -11.259728
       7A    -11.249831     8A    -11.216365     9A     -1.417837
      10A     -1.344245    11A     -1.109185    12A     -1.040501
      13A     -0.965997    14A     -0.932610    15A     -0.801699
      16A     -0.761323    17A     -0.717759    18A     -0.670430
      19A     -0.630463    20A     -0.625263    21A     -0.612776
      22A     -0.588379    23A     -0.571995    24A     -0.548983
      25A     -0.542289    26A     -0.534297    27A     -0.510004
      28A     -0.442785    29A     -0.347109    30A     -0.317495

  @DF-RHF Final Energy:  -377.82460011098863

   => Energetics <=

    Nuclear Repulsion Energy =            376.5249448004794317
    One-Electron Energy =               -1260.2859294806905837
    Two-Electron Energy =                 505.9363845692224686
    Total Energy =                       -377.8246001109886265
  Basis Set: (AUG-CC-PVTZ AUX)
    Blend: AUG-CC-PVTZ-RI
    Molecular point group: c1

    Geometry (in Angstrom), charge = 0, multiplicity = 1:

       Center              X                  Y                   Z               Mass
    ------------   -----------------  -----------------  -----------------  -----------------
         O           -1.399085352041     0.789253469766     0.008419175084    15.994914619570
         N            0.834148547959     0.505210769766    -0.031624124916    14.003074004430
         N            1.859614547959    -0.383295230234    -0.017688124916    14.003074004430
         C           -0.377984452041    -0.107889230234     0.004210875084    12.000000000000
         C           -0.153113452041    -1.476848230234     0.022920875084    12.000000000000
         C            1.094214547959     1.929510769766     0.018527875084    12.000000000000
         C            1.250414547959    -1.582361230234     0.008032875084    12.000000000000
         C           -2.706258452041    -0.070670230234    -0.012486124916    12.000000000000
         H           -0.882907452041    -2.272617230234     0.035836875084     1.007825032230
         H            1.145360547959     2.279835769766     1.052780875084     1.007825032230
         H            2.048737547959     2.102868769766    -0.476773124916     1.007825032230
         H            0.293409547959     2.452782769766    -0.504696124916     1.007825032230
         H            1.855361547959    -2.480092230234     0.007928875084     1.007825032230
         H           -3.506128452041     0.668317769766    -0.012085124916     1.007825032230
         H           -2.784821452041    -0.707989230234     0.873790875084     1.007825032230
         H           -2.763049452041    -0.685863230234    -0.915877124916     1.007825032230

  Basis Set: AUG-CC-PVTZ
    Blend: AUG-CC-PVTZ
  Basis Set: (AUG-CC-PVTZ AUX)
    Blend: AUG-CC-PVTZ-JKFIT
	 Reference Energy          =    -377.8246001109886265 [Eh]
	 Singles Energy            =      -0.0000000000000000 [Eh]
	 Same-Spin Energy          =      -0.3979628204237241 [Eh]
	 Opposite-Spin Energy      =      -1.2445746435872818 [Eh]
	 Correlation Energy        =      -1.6425374640110058 [Eh]
	 Total Energy              =    -379.4671375749996400 [Eh]

	 ================> DF-SCS-MP2 Energies <==================
	-----------------------------------------------------------
	 SCS Same-Spin Scale       =       0.3333333333333333 [-]
	 SCS Opposite-Spin Scale   =       1.2000000000000000 [-]
	 SCS Same-Spin Energy      =      -0.1326542734745747 [Eh]
	 SCS Opposite-Spin Energy  =      -1.4934895723047381 [Eh]
	 SCS Correlation Energy    =      -1.6261438457793127 [Eh]
	 SCS Total Energy          =    -379.4507439567679512 [Eh]
	-----------------------------------------------------------

  Dipole Moment: [D]
     X:    -3.4245      Y:     0.4280      Z:     0.0041     Total:     3.4511

*** Psi4 exiting successfully. Buy a developer a beer!
