                               Psi4 1.3.2 release

  ==> Input File <==

--------------------------------------------------------------------------
#psi4
#
memory 32 gb

molecule  {
0 1
  O       -1.4092845     0.7194922     0.0100593
  N        0.8840130     0.5088410    -0.0326410
  N        1.9094790    -0.3796650    -0.0187050
  C       -0.3281200    -0.1042590     0.0031940
  C       -0.1032490    -1.4732180     0.0219040
  C        1.1440790     1.9331410     0.0175110
  C        1.3002790    -1.5787310     0.0070160
  C       -2.6563940    -0.0670400    -0.0135030
  H       -0.8330430    -2.2689870     0.0348200
  H        1.1952250     2.2834660     1.0517640
  H        2.0986020     2.1064990    -0.4777900
  H        0.3432740     2.4564130    -0.5057130
  H        1.9052260    -2.4764620     0.0069120
  H       -3.4562640     0.6719480    -0.0131020
  H       -2.7349570    -0.7043590     0.8727740
  H       -2.7131850    -0.6822330    -0.9168940
units angstrom
no_reorient  #important for SAPT in psi4, default
symmetry c1  #important for SAPT in psi4, default
}

set PROPERTIES_ORIGIN ["COM"]
properties('MP2/aug-cc-pvtz', properties = ['dipole'])
--------------------------------------------------------------------------

    Molecular point group: c1
  Charge       = 0
  Multiplicity = 1
  Basis Set: AUG-CC-PVTZ
    Blend: AUG-CC-PVTZ
  Basis Set: (AUG-CC-PVTZ AUX)
    Blend: AUG-CC-PVTZ-JKFIT

    Orbital Energies [Eh]
    ---------------------

    Doubly Occupied:

       1A    -20.610621     2A    -15.625871     3A    -15.572518
       4A    -11.333920     5A    -11.302851     6A    -11.262671
       7A    -11.251377     8A    -11.215885     9A     -1.429209
      10A     -1.352510    11A     -1.112426    12A     -1.046195
      13A     -0.964554    14A     -0.933402    15A     -0.803571
      16A     -0.767733    17A     -0.723556    18A     -0.677448
      19A     -0.638526    20A     -0.630146    21A     -0.618471
      22A     -0.591937    23A     -0.575816    24A     -0.546534
      25A     -0.544006    26A     -0.529336    27A     -0.504948
      28A     -0.446509    29A     -0.348784    30A     -0.319760

  @DF-RHF Final Energy:  -377.84015514399994

   => Energetics <=

    Nuclear Repulsion Energy =            377.1199030550163229
    One-Electron Energy =               -1261.3579328335497394
    Two-Electron Energy =                 506.3978746345335367
    Total Energy =                       -377.8401551439999366
  Basis Set: (AUG-CC-PVTZ AUX)
    Blend: AUG-CC-PVTZ-RI
    Molecular point group: c1

    Geometry (in Angstrom), charge = 0, multiplicity = 1:

       Center              X                  Y                   Z               Mass
    ------------   -----------------  -----------------  -----------------  -----------------
         O           -1.450576037958     0.726337183105     0.010696939861    15.994914619570
         N            0.842721462042     0.515685983105    -0.032003360139    14.003074004430
         N            1.868187462042    -0.372820016895    -0.018067360139    14.003074004430
         C           -0.369411537958    -0.097414016895     0.003831639861    12.000000000000
         C           -0.144540537958    -1.466373016895     0.022541639861    12.000000000000
         C            1.102787462042     1.939985983105     0.018148639861    12.000000000000
         C            1.258987462042    -1.571886016895     0.007653639861    12.000000000000
         C           -2.697685537958    -0.060195016895    -0.012865360139    12.000000000000
         H           -0.874334537958    -2.262142016895     0.035457639861     1.007825032230
         H            1.153933462042     2.290310983105     1.052401639861     1.007825032230
         H            2.057310462042     2.113343983105    -0.477152360139     1.007825032230
         H            0.301982462042     2.463257983105    -0.505075360139     1.007825032230
         H            1.863934462042    -2.469617016895     0.007549639861     1.007825032230
         H           -3.497555537958     0.678792983105    -0.012464360139     1.007825032230
         H           -2.776248537958    -0.697514016895     0.873411639861     1.007825032230
         H           -2.754476537958    -0.675388016895    -0.916256360139     1.007825032230

  Basis Set: AUG-CC-PVTZ
    Blend: AUG-CC-PVTZ
  Basis Set: (AUG-CC-PVTZ AUX)
    Blend: AUG-CC-PVTZ-JKFIT
	 Reference Energy          =    -377.8401551439999366 [Eh]
	 Singles Energy            =      -0.0000000000000000 [Eh]
	 Same-Spin Energy          =      -0.3968348797346090 [Eh]
	 Opposite-Spin Energy      =      -1.2410607335026393 [Eh]
	 Correlation Energy        =      -1.6378956132372484 [Eh]
	 Total Energy              =    -379.4780507572372130 [Eh]

	 ================> DF-SCS-MP2 Energies <==================
	-----------------------------------------------------------
	 SCS Same-Spin Scale       =       0.3333333333333333 [-]
	 SCS Opposite-Spin Scale   =       1.2000000000000000 [-]
	 SCS Same-Spin Energy      =      -0.1322782932448696 [Eh]
	 SCS Opposite-Spin Energy  =      -1.4892728802031672 [Eh]
	 SCS Correlation Energy    =      -1.6215511734480368 [Eh]
	 SCS Total Energy          =    -379.4617063174479767 [Eh]
	-----------------------------------------------------------

  Dipole Moment: [D]
     X:    -3.1499      Y:     0.5672      Z:     0.0033     Total:     3.2006

*** Psi4 exiting successfully. Buy a developer a beer!
