                               Psi4 1.3.2 release

  ==> Input File <==

--------------------------------------------------------------------------
#psi4
#
memory 32 gb

molecule  {
0 1
  O       -1.4373610     0.6812660     0.0112400
  N        0.8840130     0.5088410    -0.0326410
  N        1.9094790    -0.3796650    -0.0187050
  C       -0.3281200    -0.1042590     0.0031940
  C       -0.1032490    -1.4732180     0.0219040
  C        1.1440790     1.9331410     0.0175110
  C        1.3002790    -1.5787310     0.0070160
  C       -2.6563940    -0.0670400    -0.0135030
  H       -0.9006277    -2.3426815     0.0360161
  H        1.1952250     2.2834660     1.0517640
  H        2.0986020     2.1064990    -0.4777900
  H        0.3432740     2.4564130    -0.5057130
  H        1.9052260    -2.4764620     0.0069120
  H       -3.4562640     0.6719480    -0.0131020
  H       -2.7349570    -0.7043590     0.8727740
  H       -2.7131850    -0.6822330    -0.9168940
units angstrom
no_reorient  #important for SAPT in psi4, default
symmetry c1  #important for SAPT in psi4, default
}

set PROPERTIES_ORIGIN ["COM"]
properties('MP2/aug-cc-pvtz', properties = ['dipole'])
--------------------------------------------------------------------------

    Molecular point group: c1
  Charge       = 0
  Multiplicity = 1
  Basis Set: AUG-CC-PVTZ
    Blend: AUG-CC-PVTZ
  Basis Set: (AUG-CC-PVTZ AUX)
    Blend: AUG-CC-PVTZ-JKFIT

    Orbital Energies [Eh]
    ---------------------

    Doubly Occupied:

       1A    -20.609204     2A    -15.629105     3A    -15.574461
       4A    -11.336408     5A    -11.297627     6A    -11.264501
       7A    -11.253113     8A    -11.226629     9A     -1.436883
      10A     -1.356983    11A     -1.114397    12A     -1.048661
      13A     -0.962923    14A     -0.933545    15A     -0.801990
      16A     -0.770130    17A     -0.722723    18A     -0.682038
      19A     -0.640395    20A     -0.633192    21A     -0.614849
      22A     -0.592521    23A     -0.572595    24A     -0.546127
      25A     -0.543788    26A     -0.521317    27A     -0.501044
      28A     -0.448277    29A     -0.350218    30A     -0.321370

  @DF-RHF Final Energy:  -377.83622468936966

   => Energetics <=

    Nuclear Repulsion Energy =            377.0124589211513353
    One-Electron Energy =               -1261.0833387132211101
    Two-Electron Energy =                 506.2346551027000601
    Total Energy =                       -377.8362246893696579
  Basis Set: (AUG-CC-PVTZ AUX)
    Blend: AUG-CC-PVTZ-RI
    Molecular point group: c1

    Geometry (in Angstrom), charge = 0, multiplicity = 1:

       Center              X                  Y                   Z               Mass
    ------------   -----------------  -----------------  -----------------  -----------------
         O           -1.474037350845     0.694229790481     0.011698360916    15.994914619570
         N            0.847336649155     0.521804790481    -0.032182639084    14.003074004430
         N            1.872802649155    -0.366701209519    -0.018246639084    14.003074004430
         C           -0.364796350845    -0.091295209519     0.003652360916    12.000000000000
         C           -0.139925350845    -1.460254209519     0.022362360916    12.000000000000
         C            1.107402649155     1.946104790481     0.017969360916    12.000000000000
         C            1.263602649155    -1.565767209519     0.007474360916    12.000000000000
         C           -2.693070350845    -0.054076209519    -0.013044639084    12.000000000000
         H           -0.937304050845    -2.329717709519     0.036474460916     1.007825032230
         H            1.158548649155     2.296429790481     1.052222360916     1.007825032230
         H            2.061925649155     2.119462790481    -0.477331639084     1.007825032230
         H            0.306597649155     2.469376790481    -0.505254639084     1.007825032230
         H            1.868549649155    -2.463498209519     0.007370360916     1.007825032230
         H           -3.492940350845     0.684911790481    -0.012643639084     1.007825032230
         H           -2.771633350845    -0.691395209519     0.873232360916     1.007825032230
         H           -2.749861350845    -0.669269209519    -0.916435639084     1.007825032230

  Basis Set: AUG-CC-PVTZ
    Blend: AUG-CC-PVTZ
  Basis Set: (AUG-CC-PVTZ AUX)
    Blend: AUG-CC-PVTZ-JKFIT
	 Reference Energy          =    -377.8362246893696579 [Eh]
	 Singles Energy            =      -0.0000000000000000 [Eh]
	 Same-Spin Energy          =      -0.3966624933745145 [Eh]
	 Opposite-Spin Energy      =      -1.2404341769885256 [Eh]
	 Correlation Energy        =      -1.6370966703630403 [Eh]
	 Total Energy              =    -379.4733213597327222 [Eh]

	 ================> DF-SCS-MP2 Energies <==================
	-----------------------------------------------------------
	 SCS Same-Spin Scale       =       0.3333333333333333 [-]
	 SCS Opposite-Spin Scale   =       1.2000000000000000 [-]
	 SCS Same-Spin Energy      =      -0.1322208311248382 [Eh]
	 SCS Opposite-Spin Energy  =      -1.4885210123862307 [Eh]
	 SCS Correlation Energy    =      -1.6207418435110688 [Eh]
	 SCS Total Energy          =    -379.4569665328806991 [Eh]
	-----------------------------------------------------------

  Dipole Moment: [D]
     X:    -2.9822      Y:     0.6508      Z:     0.0028     Total:     3.0524

*** Psi4 exiting successfully. Buy a developer a beer!
