                               Psi4 1.4a3.dev225

  ==> Input File <==

--------------------------------------------------------------------------
#psi4
#
memory 32 gb

molecule  {
0 1
  O       -1.4373610     0.6812660     0.0112400
  N        0.8840130     0.5088410    -0.0326410
  N        1.9094790    -0.3796650    -0.0187050
  C       -0.2873162    -0.1331548     0.0028980
  C       -0.1032490    -1.4732180     0.0219040
  C        1.1440790     1.9331410     0.0175110
  C        1.3002790    -1.5787310     0.0070160
  C       -2.6563940    -0.0670400    -0.0135030
  H       -0.8330430    -2.2689870     0.0348200
  H        1.1952250     2.2834660     1.0517640
  H        2.0986020     2.1064990    -0.4777900
  H        0.3432740     2.4564130    -0.5057130
  H        1.9052260    -2.4764620     0.0069120
  H       -3.4562640     0.6719480    -0.0131020
  H       -2.7349570    -0.7043590     0.8727740
  H       -2.7131850    -0.6822330    -0.9168940
units angstrom
no_reorient  #important for SAPT in psi4, default
symmetry c1  #important for SAPT in psi4, default
}

set PROPERTIES_ORIGIN ["COM"]
properties('MP2/aug-cc-pvtz', properties = ['dipole'])
--------------------------------------------------------------------------

    Molecular point group: c1
  Charge       = 0
  Multiplicity = 1
  Basis Set: AUG-CC-PVTZ
    Blend: AUG-CC-PVTZ
  Basis Set: (AUG-CC-PVTZ AUX)
    Blend: AUG-CC-PVTZ-JKFIT

    Orbital Energies [Eh]
    ---------------------

    Doubly Occupied:

       1A    -20.601015     2A    -15.630219     3A    -15.575741
       4A    -11.331120     5A    -11.292526     6A    -11.266689
       7A    -11.254419     8A    -11.214899     9A     -1.419022
      10A     -1.359749    11A     -1.118061    12A     -1.057380
      13A     -0.959273    14A     -0.935238    15A     -0.810041
      16A     -0.765553    17A     -0.725095    18A     -0.676231
      19A     -0.637994    20A     -0.633224    21A     -0.617413
      22A     -0.596598    23A     -0.583025    24A     -0.548266
      25A     -0.547364    26A     -0.517036    27A     -0.492752
      28A     -0.450686    29A     -0.353728    30A     -0.329050

  @DF-RHF Final Energy:  -377.84059630652041

   => Energetics <=

    Nuclear Repulsion Energy =            377.6885231032181878
    One-Electron Energy =               -1262.4594211602720861
    Two-Electron Energy =                 506.9303017505335447
    Total Energy =                       -377.8405963065204105
  Basis Set: (AUG-CC-PVTZ AUX)
    Blend: AUG-CC-PVTZ-RI
    Molecular point group: c1

    Geometry (in Angstrom), charge = 0, multiplicity = 1:

       Center              X                  Y                   Z               Mass
    ------------   -----------------  -----------------  -----------------  -----------------
         O           -1.479014514165     0.696661251591     0.011740814102    15.994914619570
         N            0.842359485835     0.524236251591    -0.032140185898    14.003074004430
         N            1.867825485835    -0.364269748409    -0.018204185898    14.003074004430
         C           -0.328969714165    -0.117759548409     0.003398814102    12.000000000000
         C           -0.144902514165    -1.457822748409     0.022404814102    12.000000000000
         C            1.102425485835     1.948536251591     0.018011814102    12.000000000000
         C            1.258625485835    -1.563335748409     0.007516814102    12.000000000000
         C           -2.698047514165    -0.051644748409    -0.013002185898    12.000000000000
         H           -0.874696514165    -2.253591748409     0.035320814102     1.007825032230
         H            1.153571485835     2.298861251591     1.052264814102     1.007825032230
         H            2.056948485835     2.121894251591    -0.477289185898     1.007825032230
         H            0.301620485835     2.471808251591    -0.505212185898     1.007825032230
         H            1.863572485835    -2.461066748409     0.007412814102     1.007825032230
         H           -3.497917514165     0.687343251591    -0.012601185898     1.007825032230
         H           -2.776610514165    -0.688963748409     0.873274814102     1.007825032230
         H           -2.754838514165    -0.666837748409    -0.916393185898     1.007825032230

  Basis Set: AUG-CC-PVTZ
    Blend: AUG-CC-PVTZ
  Basis Set: (AUG-CC-PVTZ AUX)
    Blend: AUG-CC-PVTZ-JKFIT
	 Reference Energy          =    -377.8405963065204105 [Eh]
	 Singles Energy            =      -0.0000000000000000 [Eh]
	 Same-Spin Energy          =      -0.3961558223129101 [Eh]
	 Opposite-Spin Energy      =      -1.2396726680188757 [Eh]
	 Correlation Energy        =      -1.6358284903317859 [Eh]
	 Total Energy              =    -379.4764247968522000 [Eh]

	 ================> DF-SCS-MP2 Energies <==================
	-----------------------------------------------------------
	 SCS Same-Spin Scale       =       0.3333333333333333 [-]
	 SCS Opposite-Spin Scale   =       1.2000000000000000 [-]
	 SCS Same-Spin Energy      =      -0.1320519407709700 [Eh]
	 SCS Opposite-Spin Energy  =      -1.4876072016226507 [Eh]
	 SCS Correlation Energy    =      -1.6196591423936206 [Eh]
	 SCS Total Energy          =    -379.4602554489140402 [Eh]
	-----------------------------------------------------------

  Dipole Moment: [D]
     X:    -2.7102      Y:     0.5299      Z:     0.0030     Total:     2.7615

*** Psi4 exiting successfully. Buy a developer a beer!
