                               Psi4 1.4a3.dev225

  ==> Input File <==

--------------------------------------------------------------------------
#psi4
#
memory 32 gb

molecule  {
0 1
  O       -1.4373610     0.6812660     0.0112400
  N        0.8840130     0.5088410    -0.0326410
  N        1.9094790    -0.3796650    -0.0187050
  C       -0.3281200    -0.1042590     0.0031940
  C       -0.1032490    -1.4732180     0.0219040
  C        1.1440790     1.9331410     0.0175110
  C        1.3002790    -1.5787310     0.0070160
  C       -2.6563940    -0.0670400    -0.0135030
  H       -0.8330430    -2.2689870     0.0348200
  H        1.1952250     2.2834660     1.0517640
  H        2.0986020     2.1064990    -0.4777900
  H        0.3432740     2.4564130    -0.5057130
  H        1.8940495    -2.4598763     0.0069139
  H       -3.4562640     0.6719480    -0.0131020
  H       -2.7349570    -0.7043590     0.8727740
  H       -2.7131850    -0.6822330    -0.9168940
units angstrom
no_reorient  #important for SAPT in psi4, default
symmetry c1  #important for SAPT in psi4, default
}

set PROPERTIES_ORIGIN ["COM"]
properties('MP2/aug-cc-pvtz', properties = ['dipole'])
--------------------------------------------------------------------------

    Molecular point group: c1
  Charge       = 0
  Multiplicity = 1
  Basis Set: AUG-CC-PVTZ
    Blend: AUG-CC-PVTZ
  Basis Set: (AUG-CC-PVTZ AUX)
    Blend: AUG-CC-PVTZ-JKFIT

    Orbital Energies [Eh]
    ---------------------

    Doubly Occupied:

       1A    -20.609089     2A    -15.628378     3A    -15.573650
       4A    -11.335403     5A    -11.297976     6A    -11.264078
       7A    -11.249866     8A    -11.215508     9A     -1.436707
      10A     -1.356249    11A     -1.114266    12A     -1.049457
      13A     -0.964287    14A     -0.934495    15A     -0.806355
      16A     -0.771125    17A     -0.727442    18A     -0.681877
      19A     -0.645420    20A     -0.632906    21A     -0.620840
      22A     -0.594432    23A     -0.578943    24A     -0.546106
      25A     -0.545422    26A     -0.523980    27A     -0.500923
      28A     -0.448319    29A     -0.349588    30A     -0.320719

  @DF-RHF Final Energy:  -377.84399393354386

   => Energetics <=

    Nuclear Repulsion Energy =            377.5960955781776534
    One-Electron Energy =               -1262.2325691787070809
    Two-Electron Energy =                 506.7924796669855141
    Total Energy =                       -377.8439939335438567
  Basis Set: (AUG-CC-PVTZ AUX)
    Blend: AUG-CC-PVTZ-RI
    Molecular point group: c1

    Geometry (in Angstrom), charge = 0, multiplicity = 1:

       Center              X                  Y                   Z               Mass
    ------------   -----------------  -----------------  -----------------  -----------------
         O           -1.474544648166     0.693417871228     0.011709100746    15.994914619570
         N            0.846829351834     0.520992871228    -0.032171899254    14.003074004430
         N            1.872295351834    -0.367513128772    -0.018235899254    14.003074004430
         C           -0.365303648166    -0.092107128772     0.003663100746    12.000000000000
         C           -0.140432648166    -1.461066128772     0.022373100746    12.000000000000
         C            1.106895351834     1.945292871228     0.017980100746    12.000000000000
         C            1.263095351834    -1.566579128772     0.007485100746    12.000000000000
         C           -2.693577648166    -0.054888128772    -0.013033899254    12.000000000000
         H           -0.870226648166    -2.256835128772     0.035289100746     1.007825032230
         H            1.158041351834     2.295617871228     1.052233100746     1.007825032230
         H            2.061418351834     2.118650871228    -0.477320899254     1.007825032230
         H            0.306090351834     2.468564871228    -0.505243899254     1.007825032230
         H            1.856865851834    -2.447724428772     0.007383000746     1.007825032230
         H           -3.493447648166     0.684099871228    -0.012632899254     1.007825032230
         H           -2.772140648166    -0.692207128772     0.873243100746     1.007825032230
         H           -2.750368648166    -0.670081128772    -0.916424899254     1.007825032230

  Basis Set: AUG-CC-PVTZ
    Blend: AUG-CC-PVTZ
  Basis Set: (AUG-CC-PVTZ AUX)
    Blend: AUG-CC-PVTZ-JKFIT
	 Reference Energy          =    -377.8439939335438567 [Eh]
	 Singles Energy            =      -0.0000000000000000 [Eh]
	 Same-Spin Energy          =      -0.3964064749517789 [Eh]
	 Opposite-Spin Energy      =      -1.2394982940647368 [Eh]
	 Correlation Energy        =      -1.6359047690165158 [Eh]
	 Total Energy              =    -379.4798987025603765 [Eh]

	 ================> DF-SCS-MP2 Energies <==================
	-----------------------------------------------------------
	 SCS Same-Spin Scale       =       0.3333333333333333 [-]
	 SCS Opposite-Spin Scale   =       1.2000000000000000 [-]
	 SCS Same-Spin Energy      =      -0.1321354916505930 [Eh]
	 SCS Opposite-Spin Energy  =      -1.4873979528776842 [Eh]
	 SCS Correlation Energy    =      -1.6195334445282772 [Eh]
	 SCS Total Energy          =    -379.4635273780721150 [Eh]
	-----------------------------------------------------------

  Dipole Moment: [D]
     X:    -2.9967      Y:     0.6427      Z:     0.0031     Total:     3.0649

*** Psi4 exiting successfully. Buy a developer a beer!
