                               Psi4 1.3.2 release

  ==> Input File <==

--------------------------------------------------------------------------
#psi4
#
memory 32 gb

molecule  {
0 1
  O       -1.4373610     0.6812660     0.0112400
  N        0.8840130     0.5088410    -0.0326410
  N        1.9094790    -0.3796650    -0.0187050
  C       -0.2389164    -0.0591396     0.0005568
  C       -0.1032490    -1.4732180     0.0219040
  C        1.1440790     1.9331410     0.0175110
  C        1.3002790    -1.5787310     0.0070160
  C       -2.6563940    -0.0670400    -0.0135030
  H       -0.8330430    -2.2689870     0.0348200
  H        1.1952250     2.2834660     1.0517640
  H        2.0986020     2.1064990    -0.4777900
  H        0.3432740     2.4564130    -0.5057130
  H        1.9052260    -2.4764620     0.0069120
  H       -3.4562640     0.6719480    -0.0131020
  H       -2.7349570    -0.7043590     0.8727740
  H       -2.7131850    -0.6822330    -0.9168940
units angstrom
no_reorient  #important for SAPT in psi4, default
symmetry c1  #important for SAPT in psi4, default
}

set PROPERTIES_ORIGIN ["COM"]
properties('MP2/aug-cc-pvtz', properties = ['dipole'])
--------------------------------------------------------------------------

    Molecular point group: c1
  Charge       = 0
  Multiplicity = 1
  Basis Set: AUG-CC-PVTZ
    Blend: AUG-CC-PVTZ
  Basis Set: (AUG-CC-PVTZ AUX)
    Blend: AUG-CC-PVTZ-JKFIT

    Orbital Energies [Eh]
    ---------------------

    Doubly Occupied:

       1A    -20.598665     2A    -15.638059     3A    -15.567339
       4A    -11.333435     5A    -11.293457     6A    -11.271554
       7A    -11.254923     8A    -11.214103     9A     -1.425747
      10A     -1.369832    11A     -1.129345    12A     -1.051045
      13A     -0.958418    14A     -0.944718    15A     -0.816233
      16A     -0.762606    17A     -0.727482    18A     -0.683068
      19A     -0.637817    20A     -0.636820    21A     -0.616523
      22A     -0.595405    23A     -0.587354    24A     -0.552961
      25A     -0.551205    26A     -0.504835    27A     -0.492262
      28A     -0.448623    29A     -0.360447    30A     -0.320359

  @DF-RHF Final Energy:  -377.83406603053902

   => Energetics <=

    Nuclear Repulsion Energy =            378.2441086138503010
    One-Electron Energy =               -1263.4670725017979294
    Two-Electron Energy =                 507.3888978574085513
    Total Energy =                       -377.8340660305390202
  Basis Set: (AUG-CC-PVTZ AUX)
    Blend: AUG-CC-PVTZ-RI
    Molecular point group: c1

    Geometry (in Angstrom), charge = 0, multiplicity = 1:

       Center              X                  Y                   Z               Mass
    ------------   -----------------  -----------------  -----------------  -----------------
         O           -1.484197261052     0.688735556704     0.011991514457    15.994914619570
         N            0.837176738948     0.516310556704    -0.031889485543    14.003074004430
         N            1.862642738948    -0.372195443296    -0.017953485543    14.003074004430
         C           -0.285752661052    -0.051670043296     0.001308314457    12.000000000000
         C           -0.150085261052    -1.465748443296     0.022655514457    12.000000000000
         C            1.097242738948     1.940610556704     0.018262514457    12.000000000000
         C            1.253442738948    -1.571261443296     0.007767514457    12.000000000000
         C           -2.703230261052    -0.059570443296    -0.012751485543    12.000000000000
         H           -0.879879261052    -2.261517443296     0.035571514457     1.007825032230
         H            1.148388738948     2.290935556704     1.052515514457     1.007825032230
         H            2.051765738948     2.113968556704    -0.477038485543     1.007825032230
         H            0.296437738948     2.463882556704    -0.504961485543     1.007825032230
         H            1.858389738948    -2.468992443296     0.007663514457     1.007825032230
         H           -3.503100261052     0.679417556704    -0.012350485543     1.007825032230
         H           -2.781793261052    -0.696889443296     0.873525514457     1.007825032230
         H           -2.760021261052    -0.674763443296    -0.916142485543     1.007825032230

  Basis Set: AUG-CC-PVTZ
    Blend: AUG-CC-PVTZ
  Basis Set: (AUG-CC-PVTZ AUX)
    Blend: AUG-CC-PVTZ-JKFIT
	 Reference Energy          =    -377.8340660305390202 [Eh]
	 Singles Energy            =      -0.0000000000000000 [Eh]
	 Same-Spin Energy          =      -0.3953191567584097 [Eh]
	 Opposite-Spin Energy      =      -1.2375001355631852 [Eh]
	 Correlation Energy        =      -1.6328192923215950 [Eh]
	 Total Energy              =    -379.4668853228606054 [Eh]

	 ================> DF-SCS-MP2 Energies <==================
	-----------------------------------------------------------
	 SCS Same-Spin Scale       =       0.3333333333333333 [-]
	 SCS Opposite-Spin Scale   =       1.2000000000000000 [-]
	 SCS Same-Spin Energy      =      -0.1317730522528032 [Eh]
	 SCS Opposite-Spin Energy  =      -1.4850001626758222 [Eh]
	 SCS Correlation Energy    =      -1.6167732149286254 [Eh]
	 SCS Total Energy          =    -379.4508392454676482 [Eh]
	-----------------------------------------------------------

  Dipole Moment: [D]
     X:    -2.6299      Y:     0.7784      Z:    -0.0023     Total:     2.7427

*** Psi4 exiting successfully. Buy a developer a beer!
