                               Psi4 1.3.2 release

  ==> Input File <==

--------------------------------------------------------------------------
#psi4
#
memory 32 gb

molecule  {
0 1
  O       -1.4373610     0.6812660     0.0112400
  N        0.8536259     0.4725203    -0.0318205
  N        1.9094790    -0.3796650    -0.0187050
  C       -0.3281200    -0.1042590     0.0031940
  C       -0.1032490    -1.4732180     0.0219040
  C        1.1440790     1.9331410     0.0175110
  C        1.3002790    -1.5787310     0.0070160
  C       -2.6563940    -0.0670400    -0.0135030
  H       -0.8330430    -2.2689870     0.0348200
  H        1.1952250     2.2834660     1.0517640
  H        2.0986020     2.1064990    -0.4777900
  H        0.3432740     2.4564130    -0.5057130
  H        1.9052260    -2.4764620     0.0069120
  H       -3.4562640     0.6719480    -0.0131020
  H       -2.7349570    -0.7043590     0.8727740
  H       -2.7131850    -0.6822330    -0.9168940
units angstrom
no_reorient  #important for SAPT in psi4, default
symmetry c1  #important for SAPT in psi4, default
}

set PROPERTIES_ORIGIN ["COM"]
properties('MP2/aug-cc-pvtz', properties = ['dipole'])
--------------------------------------------------------------------------

    Molecular point group: c1
  Charge       = 0
  Multiplicity = 1
  Basis Set: AUG-CC-PVTZ
    Blend: AUG-CC-PVTZ
  Basis Set: (AUG-CC-PVTZ AUX)
    Blend: AUG-CC-PVTZ-JKFIT

    Orbital Energies [Eh]
    ---------------------

    Doubly Occupied:

       1A    -20.608766     2A    -15.628771     3A    -15.571675
       4A    -11.331048     5A    -11.297722     6A    -11.268333
       7A    -11.251160     8A    -11.211951     9A     -1.438781
      10A     -1.361367    11A     -1.110210    12A     -1.053339
      13A     -0.962418    14A     -0.936415    15A     -0.808205
      16A     -0.769415    17A     -0.726382    18A     -0.683532
      19A     -0.643013    20A     -0.631635    21A     -0.618421
      22A     -0.592161    23A     -0.572186    24A     -0.550220
      25A     -0.544634    26A     -0.522697    27A     -0.501186
      28A     -0.452505    29A     -0.349804    30A     -0.322953

  @DF-RHF Final Energy:  -377.84229637898267

   => Energetics <=

    Nuclear Repulsion Energy =            378.1362810357089757
    One-Electron Energy =               -1263.3153417408011592
    Two-Electron Energy =                 507.3367643261095168
    Total Energy =                       -377.8422963789826667
  Basis Set: (AUG-CC-PVTZ AUX)
    Blend: AUG-CC-PVTZ-RI
    Molecular point group: c1

    Geometry (in Angstrom), charge = 0, multiplicity = 1:

       Center              X                  Y                   Z               Mass
    ------------   -----------------  -----------------  -----------------  -----------------
         O           -1.470848098875     0.698105536436     0.011606591092    15.994914619570
         N            0.820138801125     0.489359836436    -0.031453908908    14.003074004430
         N            1.875991901125    -0.362825463564    -0.018338408908    14.003074004430
         C           -0.361607098875    -0.087419463564     0.003560591092    12.000000000000
         C           -0.136736098875    -1.456378463564     0.022270591092    12.000000000000
         C            1.110591901125     1.949980536436     0.017877591092    12.000000000000
         C            1.266791901125    -1.561891463564     0.007382591092    12.000000000000
         C           -2.689881098875    -0.050200463564    -0.013136408908    12.000000000000
         H           -0.866530098875    -2.252147463564     0.035186591092     1.007825032230
         H            1.161737901125     2.300305536436     1.052130591092     1.007825032230
         H            2.065114901125     2.123338536436    -0.477423408908     1.007825032230
         H            0.309786901125     2.473252536436    -0.505346408908     1.007825032230
         H            1.871738901125    -2.459622463564     0.007278591092     1.007825032230
         H           -3.489751098875     0.688787536436    -0.012735408908     1.007825032230
         H           -2.768444098875    -0.687519463564     0.873140591092     1.007825032230
         H           -2.746672098875    -0.665393463564    -0.916527408908     1.007825032230

  Basis Set: AUG-CC-PVTZ
    Blend: AUG-CC-PVTZ
  Basis Set: (AUG-CC-PVTZ AUX)
    Blend: AUG-CC-PVTZ-JKFIT
	 Reference Energy          =    -377.8422963789826667 [Eh]
	 Singles Energy            =      -0.0000000000000000 [Eh]
	 Same-Spin Energy          =      -0.3959425543082202 [Eh]
	 Opposite-Spin Energy      =      -1.2387742819338481 [Eh]
	 Correlation Energy        =      -1.6347168362420683 [Eh]
	 Total Energy              =    -379.4770132152247584 [Eh]

	 ================> DF-SCS-MP2 Energies <==================
	-----------------------------------------------------------
	 SCS Same-Spin Scale       =       0.3333333333333333 [-]
	 SCS Opposite-Spin Scale   =       1.2000000000000000 [-]
	 SCS Same-Spin Energy      =      -0.1319808514360734 [Eh]
	 SCS Opposite-Spin Energy  =      -1.4865291383206176 [Eh]
	 SCS Correlation Energy    =      -1.6185099897566910 [Eh]
	 SCS Total Energy          =    -379.4608063687393837 [Eh]
	-----------------------------------------------------------

  Dipole Moment: [D]
     X:    -2.9456      Y:     0.7557      Z:     0.0062     Total:     3.0409

*** Psi4 exiting successfully. Buy a developer a beer!
