                               Psi4 1.3.2 release

  ==> Input File <==

--------------------------------------------------------------------------
#psi4
#
memory 32 gb

molecule  {
0 1
  O       -1.4373610     0.6812660     0.0112400
  N        0.8686609     0.4908132    -0.0322328
  N        1.9094790    -0.3796650    -0.0187050
  C       -0.3281200    -0.1042590     0.0031940
  C       -0.1032490    -1.4732180     0.0219040
  C        1.1440790     1.9331410     0.0175110
  C        1.3002790    -1.5787310     0.0070160
  C       -2.6563940    -0.0670400    -0.0135030
  H       -0.8330430    -2.2689870     0.0348200
  H        1.1952250     2.2834660     1.0517640
  H        2.0986020     2.1064990    -0.4777900
  H        0.3432740     2.4564130    -0.5057130
  H        1.9052260    -2.4764620     0.0069120
  H       -3.4562640     0.6719480    -0.0131020
  H       -2.7349570    -0.7043590     0.8727740
  H       -2.7131850    -0.6822330    -0.9168940
units angstrom
no_reorient  #important for SAPT in psi4, default
symmetry c1  #important for SAPT in psi4, default
}

set PROPERTIES_ORIGIN ["COM"]
properties('MP2/aug-cc-pvtz', properties = ['dipole'])
--------------------------------------------------------------------------

    Molecular point group: c1
  Charge       = 0
  Multiplicity = 1
  Basis Set: AUG-CC-PVTZ
    Blend: AUG-CC-PVTZ
  Basis Set: (AUG-CC-PVTZ AUX)
    Blend: AUG-CC-PVTZ-JKFIT

    Orbital Energies [Eh]
    ---------------------

    Doubly Occupied:

       1A    -20.608958     2A    -15.628653     3A    -15.572694
       4A    -11.333330     5A    -11.297871     6A    -11.266230
       7A    -11.251644     8A    -11.213818     9A     -1.437715
      10A     -1.358748    11A     -1.111651    12A     -1.051648
      13A     -0.963338    14A     -0.935243    15A     -0.806564
      16A     -0.770263    17A     -0.726354    18A     -0.682680
      19A     -0.643845    20A     -0.632219    21A     -0.619562
      22A     -0.592929    23A     -0.574785    24A     -0.548085
      25A     -0.545246    26A     -0.523265    27A     -0.501102
      28A     -0.450447    29A     -0.349567    30A     -0.322060

  @DF-RHF Final Energy:  -377.84398203739846

   => Energetics <=

    Nuclear Repulsion Energy =            377.8078225662446243
    One-Electron Energy =               -1262.6625891072851573
    Two-Electron Energy =                 507.0107845036421281
    Total Energy =                       -377.8439820373984617
  Basis Set: (AUG-CC-PVTZ AUX)
    Blend: AUG-CC-PVTZ-RI
    Molecular point group: c1

    Geometry (in Angstrom), charge = 0, multiplicity = 1:

       Center              X                  Y                   Z               Mass
    ------------   -----------------  -----------------  -----------------  -----------------
         O           -1.472726818633     0.695819721161     0.011658110623    15.994914619570
         N            0.833295081367     0.505366921161    -0.031814689377    14.003074004430
         N            1.874113181367    -0.365111278839    -0.018286889377    14.003074004430
         C           -0.363485818633    -0.089705278839     0.003612110623    12.000000000000
         C           -0.138614818633    -1.458664278839     0.022322110623    12.000000000000
         C            1.108713181367     1.947694721161     0.017929110623    12.000000000000
         C            1.264913181367    -1.564177278839     0.007434110623    12.000000000000
         C           -2.691759818633    -0.052486278839    -0.013084889377    12.000000000000
         H           -0.868408818633    -2.254433278839     0.035238110623     1.007825032230
         H            1.159859181367     2.298019721161     1.052182110623     1.007825032230
         H            2.063236181367     2.121052721161    -0.477371889377     1.007825032230
         H            0.307908181367     2.470966721161    -0.505294889377     1.007825032230
         H            1.869860181367    -2.461908278839     0.007330110623     1.007825032230
         H           -3.491629818633     0.686501721161    -0.012683889377     1.007825032230
         H           -2.770322818633    -0.689805278839     0.873192110623     1.007825032230
         H           -2.748550818633    -0.667679278839    -0.916475889377     1.007825032230

  Basis Set: AUG-CC-PVTZ
    Blend: AUG-CC-PVTZ
  Basis Set: (AUG-CC-PVTZ AUX)
    Blend: AUG-CC-PVTZ-JKFIT
	 Reference Energy          =    -377.8439820373984617 [Eh]
	 Singles Energy            =      -0.0000000000000000 [Eh]
	 Same-Spin Energy          =      -0.3961710890471867 [Eh]
	 Opposite-Spin Energy      =      -1.2391491051434422 [Eh]
	 Correlation Energy        =      -1.6353201941906290 [Eh]
	 Total Energy              =    -379.4793022315890880 [Eh]

	 ================> DF-SCS-MP2 Energies <==================
	-----------------------------------------------------------
	 SCS Same-Spin Scale       =       0.3333333333333333 [-]
	 SCS Opposite-Spin Scale   =       1.2000000000000000 [-]
	 SCS Same-Spin Energy      =      -0.1320570296823955 [Eh]
	 SCS Opposite-Spin Energy  =      -1.4869789261721307 [Eh]
	 SCS Correlation Energy    =      -1.6190359558545262 [Eh]
	 SCS Total Energy          =    -379.4630179932530041 [Eh]
	-----------------------------------------------------------

  Dipole Moment: [D]
     X:    -2.9715      Y:     0.7006      Z:     0.0048     Total:     3.0530

*** Psi4 exiting successfully. Buy a developer a beer!
