                               Psi4 1.3.2 release

  ==> Input File <==

--------------------------------------------------------------------------
#psi4
#
memory 32 gb

molecule  {
0 1
  O       -1.4894236     0.6019933     0.0137521
  N        0.8840130     0.5088410    -0.0326410
  N        1.9094790    -0.3796650    -0.0187050
  C       -0.3281200    -0.1042590     0.0031940
  C       -0.1032490    -1.4732180     0.0219040
  C        1.1440790     1.9331410     0.0175110
  C        1.3002790    -1.5787310     0.0070160
  C       -2.6563940    -0.0670400    -0.0135030
  H       -0.8330430    -2.2689870     0.0348200
  H        1.1952250     2.2834660     1.0517640
  H        2.0986020     2.1064990    -0.4777900
  H        0.3432740     2.4564130    -0.5057130
  H        1.9052260    -2.4764620     0.0069120
  H       -3.4562640     0.6719480    -0.0131020
  H       -2.7349570    -0.7043590     0.8727740
  H       -2.7131850    -0.6822330    -0.9168940
units angstrom
no_reorient  #important for SAPT in psi4, default
symmetry c1  #important for SAPT in psi4, default
}

set PROPERTIES_ORIGIN ["COM"]
properties('MP2/aug-cc-pvtz', properties = ['dipole'])
--------------------------------------------------------------------------

    Molecular point group: c1
  Charge       = 0
  Multiplicity = 1
  Basis Set: AUG-CC-PVTZ
    Blend: AUG-CC-PVTZ
  Basis Set: (AUG-CC-PVTZ AUX)
    Blend: AUG-CC-PVTZ-JKFIT

    Orbital Energies [Eh]
    ---------------------

    Doubly Occupied:

       1A    -20.605120     2A    -15.633784     3A    -15.576398
       4A    -11.339486     5A    -11.288873     6A    -11.267111
       7A    -11.253749     8A    -11.215432     9A     -1.456204
      10A     -1.363339    11A     -1.117409    12A     -1.057649
      13A     -0.964813    14A     -0.935477    15A     -0.808255
      16A     -0.777453    17A     -0.731470    18A     -0.693396
      19A     -0.660789    20A     -0.638906    21A     -0.624835
      22A     -0.597145    23A     -0.580555    24A     -0.547831
      25A     -0.545945    26A     -0.508501    27A     -0.490456
      28A     -0.451514    29A     -0.351576    30A     -0.322762

  @DF-RHF Final Energy:  -377.84095096578039

   => Energetics <=

    Nuclear Repulsion Energy =            378.3724522165467761
    One-Electron Energy =               -1263.6143338152162414
    Two-Electron Energy =                 507.4009306328890716
    Total Energy =                       -377.8409509657803937
  Basis Set: (AUG-CC-PVTZ AUX)
    Blend: AUG-CC-PVTZ-RI
    Molecular point group: c1

    Geometry (in Angstrom), charge = 0, multiplicity = 1:

       Center              X                  Y                   Z               Mass
    ------------   -----------------  -----------------  -----------------  -----------------
         O           -1.519276835575     0.625608972417     0.013862664276    15.994914619570
         N            0.854159764425     0.532456672417    -0.032530435724    14.003074004430
         N            1.879625764425    -0.356049327583    -0.018594435724    14.003074004430
         C           -0.357973235575    -0.080643327583     0.003304564276    12.000000000000
         C           -0.133102235575    -1.449602327583     0.022014564276    12.000000000000
         C            1.114225764425     1.956756672417     0.017621564276    12.000000000000
         C            1.270425764425    -1.555115327583     0.007126564276    12.000000000000
         C           -2.686247235575    -0.043424327583    -0.013392435724    12.000000000000
         H           -0.862896235575    -2.245371327583     0.034930564276     1.007825032230
         H            1.165371764425     2.307081672417     1.051874564276     1.007825032230
         H            2.068748764425     2.130114672417    -0.477679435724     1.007825032230
         H            0.313420764425     2.480028672417    -0.505602435724     1.007825032230
         H            1.875372764425    -2.452846327583     0.007022564276     1.007825032230
         H           -3.486117235575     0.695563672417    -0.012991435724     1.007825032230
         H           -2.764810235575    -0.680743327583     0.872884564276     1.007825032230
         H           -2.743038235575    -0.658617327583    -0.916783435724     1.007825032230

  Basis Set: AUG-CC-PVTZ
    Blend: AUG-CC-PVTZ
  Basis Set: (AUG-CC-PVTZ AUX)
    Blend: AUG-CC-PVTZ-JKFIT
	 Reference Energy          =    -377.8409509657803937 [Eh]
	 Singles Energy            =      -0.0000000000000000 [Eh]
	 Same-Spin Energy          =      -0.3960012895237329 [Eh]
	 Opposite-Spin Energy      =      -1.2374235472610782 [Eh]
	 Correlation Energy        =      -1.6334248367848110 [Eh]
	 Total Energy              =    -379.4743758025651914 [Eh]

	 ================> DF-SCS-MP2 Energies <==================
	-----------------------------------------------------------
	 SCS Same-Spin Scale       =       0.3333333333333333 [-]
	 SCS Opposite-Spin Scale   =       1.2000000000000000 [-]
	 SCS Same-Spin Energy      =      -0.1320004298412443 [Eh]
	 SCS Opposite-Spin Energy  =      -1.4849082567132939 [Eh]
	 SCS Correlation Energy    =      -1.6169086865545381 [Eh]
	 SCS Total Energy          =    -379.4578596523349461 [Eh]
	-----------------------------------------------------------

  Dipole Moment: [D]
     X:    -2.6642      Y:     0.8228      Z:     0.0026     Total:     2.7883

*** Psi4 exiting successfully. Buy a developer a beer!
