                               Psi4 1.3.2 release

  ==> Input File <==

--------------------------------------------------------------------------
#psi4
#
memory 32 gb

molecule  {
0 1
  O       -1.4373610     0.6812660     0.0112400
  N        0.8619839     0.5507359    -0.0296168
  N        1.9094790    -0.3796650    -0.0187050
  C       -0.3281200    -0.1042590     0.0031940
  C       -0.1032490    -1.4732180     0.0219040
  C        1.1440790     1.9331410     0.0175110
  C        1.3002790    -1.5787310     0.0070160
  C       -2.6563940    -0.0670400    -0.0135030
  H       -0.8330430    -2.2689870     0.0348200
  H        1.1952250     2.2834660     1.0517640
  H        2.0986020     2.1064990    -0.4777900
  H        0.3432740     2.4564130    -0.5057130
  H        1.9052260    -2.4764620     0.0069120
  H       -3.4562640     0.6719480    -0.0131020
  H       -2.7349570    -0.7043590     0.8727740
  H       -2.7131850    -0.6822330    -0.9168940
units angstrom
no_reorient  #important for SAPT in psi4, default
symmetry c1  #important for SAPT in psi4, default
}

set PROPERTIES_ORIGIN ["COM"]
properties('MP2/aug-cc-pvtz', properties = ['dipole'])
--------------------------------------------------------------------------

    Molecular point group: c1
  Charge       = 0
  Multiplicity = 1
  Basis Set: AUG-CC-PVTZ
    Blend: AUG-CC-PVTZ
  Basis Set: (AUG-CC-PVTZ AUX)
    Blend: AUG-CC-PVTZ-JKFIT

    Orbital Energies [Eh]
    ---------------------

    Doubly Occupied:

       1A    -20.609313     2A    -15.625027     3A    -15.574688
       4A    -11.339926     5A    -11.297862     6A    -11.260491
       7A    -11.257061     8A    -11.216521     9A     -1.437278
      10A     -1.343066    11A     -1.123193    12A     -1.045792
      13A     -0.965570    14A     -0.933657    15A     -0.801531
      16A     -0.771842    17A     -0.726079    18A     -0.682099
      19A     -0.645788    20A     -0.632935    21A     -0.621015
      22A     -0.593877    23A     -0.587477    24A     -0.542642
      25A     -0.538950    26A     -0.524699    27A     -0.498117
      28A     -0.444980    29A     -0.350978    30A     -0.322173

  @DF-RHF Final Energy:  -377.84019911452214

   => Energetics <=

    Nuclear Repulsion Energy =            377.1768769509204731
    One-Electron Energy =               -1261.4048965954973482
    Two-Electron Energy =                 506.3878205300547393
    Total Energy =                       -377.8401991145221359
  Basis Set: (AUG-CC-PVTZ AUX)
    Blend: AUG-CC-PVTZ-RI
    Molecular point group: c1

    Geometry (in Angstrom), charge = 0, multiplicity = 1:

       Center              X                  Y                   Z               Mass
    ------------   -----------------  -----------------  -----------------  -----------------
         O           -1.471892484624     0.688331995157     0.011331224631    15.994914619570
         N            0.827452415376     0.557801895157    -0.029525575369    14.003074004430
         N            1.874947515376    -0.372599004843    -0.018613775369    14.003074004430
         C           -0.362651484624    -0.097193004843     0.003285224631    12.000000000000
         C           -0.137780484624    -1.466152004843     0.021995224631    12.000000000000
         C            1.109547515376     1.940206995157     0.017602224631    12.000000000000
         C            1.265747515376    -1.571665004843     0.007107224631    12.000000000000
         C           -2.690925484624    -0.059974004843    -0.013411775369    12.000000000000
         H           -0.867574484624    -2.261921004843     0.034911224631     1.007825032230
         H            1.160693515376     2.290531995157     1.051855224631     1.007825032230
         H            2.064070515376     2.113564995157    -0.477698775369     1.007825032230
         H            0.308742515376     2.463478995157    -0.505621775369     1.007825032230
         H            1.870694515376    -2.469396004843     0.007003224631     1.007825032230
         H           -3.490795484624     0.679013995157    -0.013010775369     1.007825032230
         H           -2.769488484624    -0.697293004843     0.872865224631     1.007825032230
         H           -2.747716484624    -0.675167004843    -0.916802775369     1.007825032230

  Basis Set: AUG-CC-PVTZ
    Blend: AUG-CC-PVTZ
  Basis Set: (AUG-CC-PVTZ AUX)
    Blend: AUG-CC-PVTZ-JKFIT
	 Reference Energy          =    -377.8401991145221359 [Eh]
	 Singles Energy            =      -0.0000000000000000 [Eh]
	 Same-Spin Energy          =      -0.3963775652015448 [Eh]
	 Opposite-Spin Energy      =      -1.2403028011238089 [Eh]
	 Correlation Energy        =      -1.6366803663253537 [Eh]
	 Total Energy              =    -379.4768794808475150 [Eh]

	 ================> DF-SCS-MP2 Energies <==================
	-----------------------------------------------------------
	 SCS Same-Spin Scale       =       0.3333333333333333 [-]
	 SCS Opposite-Spin Scale   =       1.2000000000000000 [-]
	 SCS Same-Spin Energy      =      -0.1321258550671816 [Eh]
	 SCS Opposite-Spin Energy  =      -1.4883633613485705 [Eh]
	 SCS Correlation Energy    =      -1.6204892164157521 [Eh]
	 SCS Total Energy          =    -379.4606883309378986 [Eh]
	-----------------------------------------------------------

  Dipole Moment: [D]
     X:    -2.9958      Y:     0.5241      Z:    -0.0003     Total:     3.0413

*** Psi4 exiting successfully. Buy a developer a beer!
