                               Psi4 1.3.2 release

  ==> Input File <==

--------------------------------------------------------------------------
#psi4
#
memory 32 gb

molecule  {
0 1
  O       -1.4373610     0.6812660     0.0112400
  N        0.8840130     0.5088410    -0.0326410
  N        1.9094790    -0.3796650    -0.0187050
  C       -0.3385823    -0.0830282     0.0046900
  C       -0.1032490    -1.4732180     0.0219040
  C        1.1440790     1.9331410     0.0175110
  C        1.3002790    -1.5787310     0.0070160
  C       -2.6563940    -0.0670400    -0.0135030
  H       -0.8330430    -2.2689870     0.0348200
  H        1.1952250     2.2834660     1.0517640
  H        2.0986020     2.1064990    -0.4777900
  H        0.3432740     2.4564130    -0.5057130
  H        1.9052260    -2.4764620     0.0069120
  H       -3.4562640     0.6719480    -0.0131020
  H       -2.7349570    -0.7043590     0.8727740
  H       -2.7131850    -0.6822330    -0.9168940
units angstrom
no_reorient  #important for SAPT in psi4, default
symmetry c1  #important for SAPT in psi4, default
}

set PROPERTIES_ORIGIN ["COM"]
properties('MP2/aug-cc-pvtz', properties = ['dipole'])
--------------------------------------------------------------------------

    Molecular point group: c1
  Charge       = 0
  Multiplicity = 1
  Basis Set: AUG-CC-PVTZ
    Blend: AUG-CC-PVTZ
  Basis Set: (AUG-CC-PVTZ AUX)
    Blend: AUG-CC-PVTZ-JKFIT

    Orbital Energies [Eh]
    ---------------------

    Doubly Occupied:

       1A    -20.612329     2A    -15.628660     3A    -15.571783
       4A    -11.337764     5A    -11.300522     6A    -11.263602
       7A    -11.251337     8A    -11.215735     9A     -1.445971
      10A     -1.355662    11A     -1.113802    12A     -1.045711
      13A     -0.966909    14A     -0.933988    15A     -0.803596
      16A     -0.773989    17A     -0.726570    18A     -0.685473
      19A     -0.648486    20A     -0.633209    21A     -0.621501
      22A     -0.592860    23A     -0.575936    24A     -0.546510
      25A     -0.544928    26A     -0.523243    27A     -0.504094
      28A     -0.446852    29A     -0.348435    30A     -0.316583

  @DF-RHF Final Energy:  -377.84342308722142

   => Energetics <=

    Nuclear Repulsion Energy =            377.4925061230053984
    One-Electron Energy =               -1261.9997769813326158
    Two-Electron Energy =                 506.6638477711058499
    Total Energy =                       -377.8434230872214243
  Basis Set: (AUG-CC-PVTZ AUX)
    Blend: AUG-CC-PVTZ-RI
    Molecular point group: c1

    Geometry (in Angstrom), charge = 0, multiplicity = 1:

       Center              X                  Y                   Z               Mass
    ------------   -----------------  -----------------  -----------------  -----------------
         O           -1.473524838171     0.691293595524     0.011548923177    15.994914619570
         N            0.847849161829     0.518868595524    -0.032332076823    14.003074004430
         N            1.873315161829    -0.369637404476    -0.018396076823    14.003074004430
         C           -0.374746138171    -0.073000604476     0.004998923177    12.000000000000
         C           -0.139412838171    -1.463190404476     0.022212923177    12.000000000000
         C            1.107915161829     1.943168595524     0.017819923177    12.000000000000
         C            1.264115161829    -1.568703404476     0.007324923177    12.000000000000
         C           -2.692557838171    -0.057012404476    -0.013194076823    12.000000000000
         H           -0.869206838171    -2.258959404476     0.035128923177     1.007825032230
         H            1.159061161829     2.293493595524     1.052072923177     1.007825032230
         H            2.062438161829     2.116526595524    -0.477481076823     1.007825032230
         H            0.307110161829     2.466440595524    -0.505404076823     1.007825032230
         H            1.869062161829    -2.466434404476     0.007220923177     1.007825032230
         H           -3.492427838171     0.681975595524    -0.012793076823     1.007825032230
         H           -2.771120838171    -0.694331404476     0.873082923177     1.007825032230
         H           -2.749348838171    -0.672205404476    -0.916585076823     1.007825032230

  Basis Set: AUG-CC-PVTZ
    Blend: AUG-CC-PVTZ
  Basis Set: (AUG-CC-PVTZ AUX)
    Blend: AUG-CC-PVTZ-JKFIT
	 Reference Energy          =    -377.8434230872214243 [Eh]
	 Singles Energy            =      -0.0000000000000000 [Eh]
	 Same-Spin Energy          =      -0.3964925997785544 [Eh]
	 Opposite-Spin Energy      =      -1.2393945156425217 [Eh]
	 Correlation Energy        =      -1.6358871154210761 [Eh]
	 Total Energy              =    -379.4793102026425231 [Eh]

	 ================> DF-SCS-MP2 Energies <==================
	-----------------------------------------------------------
	 SCS Same-Spin Scale       =       0.3333333333333333 [-]
	 SCS Opposite-Spin Scale   =       1.2000000000000000 [-]
	 SCS Same-Spin Energy      =      -0.1321641999261848 [Eh]
	 SCS Opposite-Spin Energy  =      -1.4872734187710259 [Eh]
	 SCS Correlation Energy    =      -1.6194376186972108 [Eh]
	 SCS Total Energy          =    -379.4628607059186152 [Eh]
	-----------------------------------------------------------

  Dipole Moment: [D]
     X:    -3.1117      Y:     0.7235      Z:     0.0027     Total:     3.1947

*** Psi4 exiting successfully. Buy a developer a beer!
