                               Psi4 1.4a3.dev225

  ==> Input File <==

--------------------------------------------------------------------------
#psi4
#
memory 32 gb

molecule  {
0 1
  O       -1.4373610     0.6812660     0.0112400
  N        0.8840130     0.5088410    -0.0326410
  N        1.9094790    -0.3796650    -0.0187050
  C       -0.3281200    -0.1042590     0.0031940
  C       -0.1113529    -1.4238837     0.0212297
  C        1.1440790     1.9331410     0.0175110
  C        1.3002790    -1.5787310     0.0070160
  C       -2.6563940    -0.0670400    -0.0135030
  H       -0.8330430    -2.2689870     0.0348200
  H        1.1952250     2.2834660     1.0517640
  H        2.0986020     2.1064990    -0.4777900
  H        0.3432740     2.4564130    -0.5057130
  H        1.9052260    -2.4764620     0.0069120
  H       -3.4562640     0.6719480    -0.0131020
  H       -2.7349570    -0.7043590     0.8727740
  H       -2.7131850    -0.6822330    -0.9168940
units angstrom
no_reorient  #important for SAPT in psi4, default
symmetry c1  #important for SAPT in psi4, default
}

set PROPERTIES_ORIGIN ["COM"]
properties('MP2/aug-cc-pvtz', properties = ['dipole'])
--------------------------------------------------------------------------

    Molecular point group: c1
  Charge       = 0
  Multiplicity = 1
  Basis Set: AUG-CC-PVTZ
    Blend: AUG-CC-PVTZ
  Basis Set: (AUG-CC-PVTZ AUX)
    Blend: AUG-CC-PVTZ-JKFIT

    Orbital Energies [Eh]
    ---------------------

    Doubly Occupied:

       1A    -20.607048     2A    -15.624733     3A    -15.577177
       4A    -11.328267     5A    -11.296902     6A    -11.262830
       7A    -11.252913     8A    -11.213707     9A     -1.435810
      10A     -1.357227    11A     -1.113255    12A     -1.057064
      13A     -0.963317    14A     -0.931684    15A     -0.807036
      16A     -0.769188    17A     -0.726150    18A     -0.681985
      19A     -0.643207    20A     -0.632388    21A     -0.616554
      22A     -0.596871    23A     -0.572475    24A     -0.546314
      25A     -0.544283    26A     -0.526040    27A     -0.499932
      28A     -0.447981    29A     -0.348133    30A     -0.326783

  @DF-RHF Final Energy:  -377.84159137595287

   => Energetics <=

    Nuclear Repulsion Energy =            378.4020363252894299
    One-Electron Energy =               -1263.8727500616155339
    Two-Electron Energy =                 507.6291223603732874
    Total Energy =                       -377.8415913759528735
  Basis Set: (AUG-CC-PVTZ AUX)
    Blend: AUG-CC-PVTZ-RI
    Molecular point group: c1

    Geometry (in Angstrom), charge = 0, multiplicity = 1:

       Center              X                  Y                   Z               Mass
    ------------   -----------------  -----------------  -----------------  -----------------
         O           -1.473777380335     0.688284216825     0.011781323219    15.994914619570
         N            0.847596619665     0.515859216825    -0.032099676781    14.003074004430
         N            1.873062619665    -0.372646783175    -0.018163676781    14.003074004430
         C           -0.364536380335    -0.097240783175     0.003735323219    12.000000000000
         C           -0.147769280335    -1.416865483175     0.021771023219    12.000000000000
         C            1.107662619665     1.940159216825     0.018052323219    12.000000000000
         C            1.263862619665    -1.571712783175     0.007557323219    12.000000000000
         C           -2.692810380335    -0.060021783175    -0.012961676781    12.000000000000
         H           -0.869459380335    -2.261968783175     0.035361323219     1.007825032230
         H            1.158808619665     2.290484216825     1.052305323219     1.007825032230
         H            2.062185619665     2.113517216825    -0.477248676781     1.007825032230
         H            0.306857619665     2.463431216825    -0.505171676781     1.007825032230
         H            1.868809619665    -2.469443783175     0.007453323219     1.007825032230
         H           -3.492680380335     0.678966216825    -0.012560676781     1.007825032230
         H           -2.771373380335    -0.697340783175     0.873315323219     1.007825032230
         H           -2.749601380335    -0.675214783175    -0.916352676781     1.007825032230

  Basis Set: AUG-CC-PVTZ
    Blend: AUG-CC-PVTZ
  Basis Set: (AUG-CC-PVTZ AUX)
    Blend: AUG-CC-PVTZ-JKFIT
	 Reference Energy          =    -377.8415913759528735 [Eh]
	 Singles Energy            =      -0.0000000000000000 [Eh]
	 Same-Spin Energy          =      -0.3961406389332852 [Eh]
	 Opposite-Spin Energy      =      -1.2391489312139266 [Eh]
	 Correlation Energy        =      -1.6352895701472119 [Eh]
	 Total Energy              =    -379.4768809461000956 [Eh]

	 ================> DF-SCS-MP2 Energies <==================
	-----------------------------------------------------------
	 SCS Same-Spin Scale       =       0.3333333333333333 [-]
	 SCS Opposite-Spin Scale   =       1.2000000000000000 [-]
	 SCS Same-Spin Energy      =      -0.1320468796444284 [Eh]
	 SCS Opposite-Spin Energy  =      -1.4869787174567117 [Eh]
	 SCS Correlation Energy    =      -1.6190255971011400 [Eh]
	 SCS Total Energy          =    -379.4606169730540159 [Eh]
	-----------------------------------------------------------

  Dipole Moment: [D]
     X:    -2.9574      Y:     0.5578      Z:     0.0014     Total:     3.0095

*** Psi4 exiting successfully. Buy a developer a beer!
