                               Psi4 1.3.2 release

  ==> Input File <==

--------------------------------------------------------------------------
#psi4
#
memory 32 gb

molecule  {
0 1
  O       -1.4373610     0.6812660     0.0112400
  N        0.8840130     0.5088410    -0.0326410
  N        1.9965902    -0.2676722    -0.0122234
  C       -0.3281200    -0.1042590     0.0031940
  C       -0.1032490    -1.4732180     0.0219040
  C        1.1440790     1.9331410     0.0175110
  C        1.3002790    -1.5787310     0.0070160
  C       -2.6563940    -0.0670400    -0.0135030
  H       -0.8330430    -2.2689870     0.0348200
  H        1.1952250     2.2834660     1.0517640
  H        2.0986020     2.1064990    -0.4777900
  H        0.3432740     2.4564130    -0.5057130
  H        1.9052260    -2.4764620     0.0069120
  H       -3.4562640     0.6719480    -0.0131020
  H       -2.7349570    -0.7043590     0.8727740
  H       -2.7131850    -0.6822330    -0.9168940
units angstrom
no_reorient  #important for SAPT in psi4, default
symmetry c1  #important for SAPT in psi4, default
}

set PROPERTIES_ORIGIN ["COM"]
properties('MP2/aug-cc-pvtz', properties = ['dipole'])
--------------------------------------------------------------------------

    Molecular point group: c1
  Charge       = 0
  Multiplicity = 1
  Basis Set: AUG-CC-PVTZ
    Blend: AUG-CC-PVTZ
  Basis Set: (AUG-CC-PVTZ AUX)
    Blend: AUG-CC-PVTZ-JKFIT

    Orbital Energies [Eh]
    ---------------------

    Doubly Occupied:

       1A    -20.611740     2A    -15.635436     3A    -15.586707
       4A    -11.339437     5A    -11.301100     6A    -11.267783
       7A    -11.260208     8A    -11.227265     9A     -1.438779
      10A     -1.346667    11A     -1.089433    12A     -1.057988
      13A     -0.966556    14A     -0.927885    15A     -0.808956
      16A     -0.765393    17A     -0.725815    18A     -0.683629
      19A     -0.648947    20A     -0.631897    21A     -0.615230
      22A     -0.594266    23A     -0.572565    24A     -0.542616
      25A     -0.533392    26A     -0.523677    27A     -0.497421
      28A     -0.459107    29A     -0.353735    30A     -0.307507

  @DF-RHF Final Energy:  -377.81245756156039

   => Energetics <=

    Nuclear Repulsion Energy =            375.1310899697941750
    One-Electron Energy =               -1257.2448272062536034
    Two-Electron Energy =                 504.3012796748990354
    Total Energy =                       -377.8124575615603931
  Basis Set: (AUG-CC-PVTZ AUX)
    Blend: AUG-CC-PVTZ-RI
    Molecular point group: c1

    Geometry (in Angstrom), charge = 0, multiplicity = 1:

       Center              X                  Y                   Z               Mass
    ------------   -----------------  -----------------  -----------------  -----------------
         O           -1.485530265671     0.679572812600     0.010899200309    15.994914619570
         N            0.835843734329     0.507147812600    -0.032981799691    14.003074004430
         N            1.948420934329    -0.269365387400    -0.012564199691    14.003074004430
         C           -0.376289265671    -0.105952187400     0.002853200309    12.000000000000
         C           -0.151418265671    -1.474911187400     0.021563200309    12.000000000000
         C            1.095909734329     1.931447812600     0.017170200309    12.000000000000
         C            1.252109734329    -1.580424187400     0.006675200309    12.000000000000
         C           -2.704563265671    -0.068733187400    -0.013843799691    12.000000000000
         H           -0.881212265671    -2.270680187400     0.034479200309     1.007825032230
         H            1.147055734329     2.281772812600     1.051423200309     1.007825032230
         H            2.050432734329     2.104805812600    -0.478130799691     1.007825032230
         H            0.295104734329     2.454719812600    -0.506053799691     1.007825032230
         H            1.857056734329    -2.478155187400     0.006571200309     1.007825032230
         H           -3.504433265671     0.670254812600    -0.013442799691     1.007825032230
         H           -2.783126265671    -0.706052187400     0.872433200309     1.007825032230
         H           -2.761354265671    -0.683926187400    -0.917234799691     1.007825032230

  Basis Set: AUG-CC-PVTZ
    Blend: AUG-CC-PVTZ
  Basis Set: (AUG-CC-PVTZ AUX)
    Blend: AUG-CC-PVTZ-JKFIT
	 Reference Energy          =    -377.8124575615603931 [Eh]
	 Singles Energy            =      -0.0000000000000000 [Eh]
	 Same-Spin Energy          =      -0.4007775865473384 [Eh]
	 Opposite-Spin Energy      =      -1.2490651317700312 [Eh]
	 Correlation Energy        =      -1.6498427183173696 [Eh]
	 Total Energy              =    -379.4623002798777520 [Eh]

	 ================> DF-SCS-MP2 Energies <==================
	-----------------------------------------------------------
	 SCS Same-Spin Scale       =       0.3333333333333333 [-]
	 SCS Opposite-Spin Scale   =       1.2000000000000000 [-]
	 SCS Same-Spin Energy      =      -0.1335925288491128 [Eh]
	 SCS Opposite-Spin Energy  =      -1.4988781581240374 [Eh]
	 SCS Correlation Energy    =      -1.6324706869731502 [Eh]
	 SCS Total Energy          =    -379.4449282485335289 [Eh]
	-----------------------------------------------------------

  Dipole Moment: [D]
     X:    -3.2609      Y:     0.5461      Z:    -0.0014     Total:     3.3063

*** Psi4 exiting successfully. Buy a developer a beer!
