                               Psi4 1.3.2 release

  ==> Input File <==

--------------------------------------------------------------------------
#psi4
#
memory 32 gb

molecule  {
0 1
  O       -1.4373610     0.6812660     0.0112400
  N        0.8840130     0.5088410    -0.0326410
  N        1.9094790    -0.3796650    -0.0187050
  C       -0.3281200    -0.1042590     0.0031940
  C       -0.1032490    -1.4732180     0.0219040
  C        1.1440790     1.9331410     0.0175110
  C        1.3908533    -1.4004569     0.0031919
  C       -2.6563940    -0.0670400    -0.0135030
  H       -0.8330430    -2.2689870     0.0348200
  H        1.1952250     2.2834660     1.0517640
  H        2.0986020     2.1064990    -0.4777900
  H        0.3432740     2.4564130    -0.5057130
  H        1.9052260    -2.4764620     0.0069120
  H       -3.4562640     0.6719480    -0.0131020
  H       -2.7349570    -0.7043590     0.8727740
  H       -2.7131850    -0.6822330    -0.9168940
units angstrom
no_reorient  #important for SAPT in psi4, default
symmetry c1  #important for SAPT in psi4, default
}

set PROPERTIES_ORIGIN ["COM"]
properties('MP2/aug-cc-pvtz', properties = ['dipole'])
--------------------------------------------------------------------------

    Molecular point group: c1
  Charge       = 0
  Multiplicity = 1
  Basis Set: AUG-CC-PVTZ
    Blend: AUG-CC-PVTZ
  Basis Set: (AUG-CC-PVTZ AUX)
    Blend: AUG-CC-PVTZ-JKFIT

    Orbital Energies [Eh]
    ---------------------

    Doubly Occupied:

       1A    -20.609360     2A    -15.615868     3A    -15.563682
       4A    -11.337905     5A    -11.297011     6A    -11.261554
       7A    -11.248131     8A    -11.211564     9A     -1.440814
      10A     -1.393663    11A     -1.157539    12A     -1.048874
      13A     -0.964380    14A     -0.926083    15A     -0.808545
      16A     -0.766705    17A     -0.717588    18A     -0.684619
      19A     -0.640732    20A     -0.639630    21A     -0.635394
      22A     -0.593773    23A     -0.561237    24A     -0.554132
      25A     -0.550759    26A     -0.525476    27A     -0.511304
      28A     -0.424998    29A     -0.369280    30A     -0.325794

  @DF-RHF Final Energy:  -377.79509686886576

   => Energetics <=

    Nuclear Repulsion Energy =            380.6238957828114167
    One-Electron Energy =               -1268.0651960486629832
    Two-Electron Energy =                 509.6462033969858680
    Total Energy =                       -377.7950968688657554
  Basis Set: (AUG-CC-PVTZ AUX)
    Blend: AUG-CC-PVTZ-RI
    Molecular point group: c1

    Geometry (in Angstrom), charge = 0, multiplicity = 1:

       Center              X                  Y                   Z               Mass
    ------------   -----------------  -----------------  -----------------  -----------------
         O           -1.484344038336     0.674477086484     0.012118610070    15.994914619570
         N            0.837029961664     0.502052086484    -0.031762389930    14.003074004430
         N            1.862495961664    -0.386453913516    -0.017826389930    14.003074004430
         C           -0.375103038336    -0.111047913516     0.004072610070    12.000000000000
         C           -0.150232038336    -1.480006913516     0.022782610070    12.000000000000
         C            1.097095961664     1.926352086484     0.018389610070    12.000000000000
         C            1.343870261664    -1.407245813516     0.004070510070    12.000000000000
         C           -2.703377038336    -0.073828913516    -0.012624389930    12.000000000000
         H           -0.880026038336    -2.275775913516     0.035698610070     1.007825032230
         H            1.148241961664     2.276677086484     1.052642610070     1.007825032230
         H            2.051618961664     2.099710086484    -0.476911389930     1.007825032230
         H            0.296290961664     2.449624086484    -0.504834389930     1.007825032230
         H            1.858242961664    -2.483250913516     0.007790610070     1.007825032230
         H           -3.503247038336     0.665159086484    -0.012223389930     1.007825032230
         H           -2.781940038336    -0.711147913516     0.873652610070     1.007825032230
         H           -2.760168038336    -0.689021913516    -0.916015389930     1.007825032230

  Basis Set: AUG-CC-PVTZ
    Blend: AUG-CC-PVTZ
  Basis Set: (AUG-CC-PVTZ AUX)
    Blend: AUG-CC-PVTZ-JKFIT
	 Reference Energy          =    -377.7950968688657554 [Eh]
	 Singles Energy            =      -0.0000000000000000 [Eh]
	 Same-Spin Energy          =      -0.3915840546604508 [Eh]
	 Opposite-Spin Energy      =      -1.2312770385711316 [Eh]
	 Correlation Energy        =      -1.6228610932315823 [Eh]
	 Total Energy              =    -379.4179579620973186 [Eh]

	 ================> DF-SCS-MP2 Energies <==================
	-----------------------------------------------------------
	 SCS Same-Spin Scale       =       0.3333333333333333 [-]
	 SCS Opposite-Spin Scale   =       1.2000000000000000 [-]
	 SCS Same-Spin Energy      =      -0.1305280182201503 [Eh]
	 SCS Opposite-Spin Energy  =      -1.4775324462853578 [Eh]
	 SCS Correlation Energy    =      -1.6080604645055081 [Eh]
	 SCS Total Energy          =    -379.4031573333712686 [Eh]
	-----------------------------------------------------------

  Dipole Moment: [D]
     X:    -2.7458      Y:     0.6337      Z:    -0.0117     Total:     2.8180

*** Psi4 exiting successfully. Buy a developer a beer!
