                               Psi4 1.3.2 release

  ==> Input File <==

--------------------------------------------------------------------------
#psi4
#
memory 32 gb

molecule  {
0 1
  O       -1.4373610     0.6812660     0.0112400
  N        0.8840130     0.5088410    -0.0326410
  N        1.9094790    -0.3796650    -0.0187050
  C       -0.3281200    -0.1042590     0.0031940
  C       -0.1032490    -1.4732180     0.0219040
  C        1.1440790     1.9331410     0.0175110
  C        1.3002790    -1.5787310     0.0070160
  C       -2.6563940    -0.0670400    -0.0135030
  H       -0.8330430    -2.2689870     0.0348200
  H        1.1952250     2.2834660     1.0517640
  H        2.0986020     2.1064990    -0.4777900
  H        0.3432740     2.4564130    -0.5057130
  H        1.9052260    -2.4764620     0.0069120
  H       -3.4562640     0.6719480    -0.0131020
  H       -2.7349570    -0.7043590     0.8727740
  H       -2.7131850    -0.6822330    -0.9168940
units angstrom
no_reorient  #important for SAPT in psi4, default
symmetry c1  #important for SAPT in psi4, default
}

set PROPERTIES_ORIGIN ["COM"]
properties('MP2/aug-cc-pvtz', properties = ['dipole'])
--------------------------------------------------------------------------

    Molecular point group: c1
  Charge       = 0
  Multiplicity = 1
  Basis Set: AUG-CC-PVTZ
    Blend: AUG-CC-PVTZ
  Basis Set: (AUG-CC-PVTZ AUX)
    Blend: AUG-CC-PVTZ-JKFIT

    Orbital Energies [Eh]
    ---------------------

    Doubly Occupied:

       1A    -20.609170     2A    -15.628467     3A    -15.573751
       4A    -11.335522     5A    -11.298025     6A    -11.264138
       7A    -11.252151     8A    -11.215684     9A     -1.436788
      10A     -1.356356    11A     -1.114059    12A     -1.049580
      13A     -0.964342    14A     -0.933905    15A     -0.804795
      16A     -0.771114    17A     -0.726333    18A     -0.681950
      19A     -0.644803    20A     -0.632975    21A     -0.620934
      22A     -0.593889    23A     -0.577472    24A     -0.546053
      25A     -0.545020    26A     -0.523743    27A     -0.500996
      28A     -0.448239    29A     -0.349669    30A     -0.320818

  @DF-RHF Final Energy:  -377.84389242529767

   => Energetics <=

    Nuclear Repulsion Energy =            377.4907601279552978
    One-Electron Energy =               -1262.0278225644221948
    Two-Electron Energy =                 506.6931700111691725
    Total Energy =                       -377.8438924252976676
  Basis Set: (AUG-CC-PVTZ AUX)
    Blend: AUG-CC-PVTZ-RI
    Molecular point group: c1

    Geometry (in Angstrom), charge = 0, multiplicity = 1:

       Center              X                  Y                   Z               Mass
    ------------   -----------------  -----------------  -----------------  -----------------
         O           -1.474645162072     0.693567031832     0.011709117833    15.994914619570
         N            0.846728837928     0.521142031832    -0.032171882167    14.003074004430
         N            1.872194837928    -0.367363968168    -0.018235882167    14.003074004430
         C           -0.365404162072    -0.091957968168     0.003663117833    12.000000000000
         C           -0.140533162072    -1.460916968168     0.022373117833    12.000000000000
         C            1.106794837928     1.945442031832     0.017980117833    12.000000000000
         C            1.262994837928    -1.566429968168     0.007485117833    12.000000000000
         C           -2.693678162072    -0.054738968168    -0.013033882167    12.000000000000
         H           -0.870327162072    -2.256685968168     0.035289117833     1.007825032230
         H            1.157940837928     2.295767031832     1.052233117833     1.007825032230
         H            2.061317837928     2.118800031832    -0.477320882167     1.007825032230
         H            0.305989837928     2.468714031832    -0.505243882167     1.007825032230
         H            1.867941837928    -2.464160968168     0.007381117833     1.007825032230
         H           -3.493548162072     0.684249031832    -0.012632882167     1.007825032230
         H           -2.772241162072    -0.692057968168     0.873243117833     1.007825032230
         H           -2.750469162072    -0.669931968168    -0.916424882167     1.007825032230

  Basis Set: AUG-CC-PVTZ
    Blend: AUG-CC-PVTZ
  Basis Set: (AUG-CC-PVTZ AUX)
    Blend: AUG-CC-PVTZ-JKFIT
	 Reference Energy          =    -377.8438924252976676 [Eh]
	 Singles Energy            =      -0.0000000000000000 [Eh]
	 Same-Spin Energy          =      -0.3964347377320182 [Eh]
	 Opposite-Spin Energy      =      -1.2396136215093811 [Eh]
	 Correlation Energy        =      -1.6360483592413995 [Eh]
	 Total Energy              =    -379.4799407845390533 [Eh]

	 ================> DF-SCS-MP2 Energies <==================
	-----------------------------------------------------------
	 SCS Same-Spin Scale       =       0.3333333333333333 [-]
	 SCS Opposite-Spin Scale   =       1.2000000000000000 [-]
	 SCS Same-Spin Energy      =      -0.1321449125773394 [Eh]
	 SCS Opposite-Spin Energy  =      -1.4875363458112574 [Eh]
	 SCS Correlation Energy    =      -1.6196812583885967 [Eh]
	 SCS Total Energy          =    -379.4635736836862634 [Eh]
	-----------------------------------------------------------

  Dipole Moment: [D]
     X:    -2.9985      Y:     0.6461      Z:     0.0030     Total:     3.0674

*** Psi4 exiting successfully. Buy a developer a beer!
