                               Psi4 1.4a3.dev225

  ==> Input File <==

--------------------------------------------------------------------------
#psi4
#
memory 32 gb

molecule  {
0 1
  O       -1.4373610     0.6812660     0.0112400
  N        0.8840130     0.5088410    -0.0326410
  N        1.9094790    -0.3796650    -0.0187050
  C       -0.3281200    -0.1042590     0.0031940
  C       -0.1032490    -1.4732180     0.0219040
  C        1.1440790     1.9331410     0.0175110
  C        1.3002790    -1.5787310     0.0070160
  C       -2.6563940    -0.0670400    -0.0135030
  H       -0.8330430    -2.2689870     0.0348200
  H        1.1952250     2.2834660     1.0517640
  H        2.0986020     2.1064990    -0.4777900
  H        0.3432740     2.4564130    -0.5057130
  H        1.8772848    -2.4349977     0.0069168
  H       -3.4562640     0.6719480    -0.0131020
  H       -2.7349570    -0.7043590     0.8727740
  H       -2.7131850    -0.6822330    -0.9168940
units angstrom
no_reorient  #important for SAPT in psi4, default
symmetry c1  #important for SAPT in psi4, default
}

set PROPERTIES_ORIGIN ["COM"]
properties('MP2/aug-cc-pvtz', properties = ['dipole'])
--------------------------------------------------------------------------

    Molecular point group: c1
  Charge       = 0
  Multiplicity = 1
  Basis Set: AUG-CC-PVTZ
    Blend: AUG-CC-PVTZ
  Basis Set: (AUG-CC-PVTZ AUX)
    Blend: AUG-CC-PVTZ-JKFIT

    Orbital Energies [Eh]
    ---------------------

    Doubly Occupied:

       1A    -20.608978     2A    -15.628261     3A    -15.573523
       4A    -11.335238     5A    -11.297910     6A    -11.263996
       7A    -11.246393     8A    -11.215265     9A     -1.436596
      10A     -1.356105    11A     -1.114636    12A     -1.049285
      13A     -0.964216    14A     -0.935502    15A     -0.808974
      16A     -0.771156    17A     -0.729157    18A     -0.681777
      19A     -0.646419    20A     -0.632813    21A     -0.620716
      22A     -0.595464    23A     -0.580913    24A     -0.546491
      25A     -0.545618    26A     -0.524269    27A     -0.500823
      28A     -0.448434    29A     -0.349485    30A     -0.320584

  @DF-RHF Final Energy:  -377.84300204693358

   => Energetics <=

    Nuclear Repulsion Energy =            377.7591494956085967
    One-Electron Energy =               -1262.5463125194198710
    Two-Electron Energy =                 506.9441609768776402
    Total Energy =                       -377.8430020469335773
  Basis Set: (AUG-CC-PVTZ AUX)
    Blend: AUG-CC-PVTZ-RI
    Molecular point group: c1

    Geometry (in Angstrom), charge = 0, multiplicity = 1:

       Center              X                  Y                   Z               Mass
    ------------   -----------------  -----------------  -----------------  -----------------
         O           -1.474393877757     0.693194129873     0.011709074665    15.994914619570
         N            0.846980122243     0.520769129873    -0.032171925335    14.003074004430
         N            1.872446122243    -0.367736870127    -0.018235925335    14.003074004430
         C           -0.365152877757    -0.092330870127     0.003663074665    12.000000000000
         C           -0.140281877757    -1.461289870127     0.022373074665    12.000000000000
         C            1.107046122243     1.945069129873     0.017980074665    12.000000000000
         C            1.263246122243    -1.566802870127     0.007485074665    12.000000000000
         C           -2.693426877757    -0.055111870127    -0.013033925335    12.000000000000
         H           -0.870075877757    -2.257058870127     0.035289074665     1.007825032230
         H            1.158192122243     2.295394129873     1.052233074665     1.007825032230
         H            2.061569122243     2.118427129873    -0.477320925335     1.007825032230
         H            0.306241122243     2.468341129873    -0.505243925335     1.007825032230
         H            1.840251922243    -2.423069570127     0.007385874665     1.007825032230
         H           -3.493296877757     0.683876129873    -0.012632925335     1.007825032230
         H           -2.771989877757    -0.692430870127     0.873243074665     1.007825032230
         H           -2.750217877757    -0.670304870127    -0.916424925335     1.007825032230

  Basis Set: AUG-CC-PVTZ
    Blend: AUG-CC-PVTZ
  Basis Set: (AUG-CC-PVTZ AUX)
    Blend: AUG-CC-PVTZ-JKFIT
	 Reference Energy          =    -377.8430020469335773 [Eh]
	 Singles Energy            =      -0.0000000000000000 [Eh]
	 Same-Spin Energy          =      -0.3963710227412324 [Eh]
	 Opposite-Spin Energy      =      -1.2393605359682005 [Eh]
	 Correlation Energy        =      -1.6357315587094328 [Eh]
	 Total Energy              =    -379.4787336056430149 [Eh]

	 ================> DF-SCS-MP2 Energies <==================
	-----------------------------------------------------------
	 SCS Same-Spin Scale       =       0.3333333333333333 [-]
	 SCS Opposite-Spin Scale   =       1.2000000000000000 [-]
	 SCS Same-Spin Energy      =      -0.1321236742470774 [Eh]
	 SCS Opposite-Spin Energy  =      -1.4872326431618406 [Eh]
	 SCS Correlation Energy    =      -1.6193563174089181 [Eh]
	 SCS Total Energy          =    -379.4623583643424922 [Eh]
	-----------------------------------------------------------

  Dipole Moment: [D]
     X:    -2.9946      Y:     0.6386      Z:     0.0032     Total:     3.0619

*** Psi4 exiting successfully. Buy a developer a beer!
