                               Psi4 1.3.2 release

  ==> Input File <==

--------------------------------------------------------------------------
#psi4
#
memory 32 gb

molecule  {
0 1
  O       -1.4373610     0.6812660     0.0112400
  N        0.8840130     0.5088410    -0.0326410
  N        1.8938405    -0.3974157    -0.0198021
  C       -0.3281200    -0.1042590     0.0031940
  C       -0.1032490    -1.4732180     0.0219040
  C        1.1440790     1.9331410     0.0175110
  C        1.3002790    -1.5787310     0.0070160
  C       -2.6563940    -0.0670400    -0.0135030
  H       -0.8330430    -2.2689870     0.0348200
  H        1.1952250     2.2834660     1.0517640
  H        2.0986020     2.1064990    -0.4777900
  H        0.3432740     2.4564130    -0.5057130
  H        1.9052260    -2.4764620     0.0069120
  H       -3.4562640     0.6719480    -0.0131020
  H       -2.7349570    -0.7043590     0.8727740
  H       -2.7131850    -0.6822330    -0.9168940
units angstrom
no_reorient  #important for SAPT in psi4, default
symmetry c1  #important for SAPT in psi4, default
}

set PROPERTIES_ORIGIN ["COM"]
properties('MP2/aug-cc-pvtz', properties = ['dipole'])
--------------------------------------------------------------------------

    Molecular point group: c1
  Charge       = 0
  Multiplicity = 1
  Basis Set: AUG-CC-PVTZ
    Blend: AUG-CC-PVTZ
  Basis Set: (AUG-CC-PVTZ AUX)
    Blend: AUG-CC-PVTZ-JKFIT

    Orbital Energies [Eh]
    ---------------------

    Doubly Occupied:

       1A    -20.608712     2A    -15.627371     3A    -15.571119
       4A    -11.334845     5A    -11.297487     6A    -11.264825
       7A    -11.249177     8A    -11.213743     9A     -1.436501
      10A     -1.358545    11A     -1.119269    12A     -1.047829
      13A     -0.963856    14A     -0.935237    15A     -0.804447
      16A     -0.771534    17A     -0.726534    18A     -0.681730
      19A     -0.644169    20A     -0.633247    21A     -0.622015
      22A     -0.593918    23A     -0.578974    24A     -0.547129
      25A     -0.546677    26A     -0.523531    27A     -0.501621
      28A     -0.444666    29A     -0.350239    30A     -0.322136

  @DF-RHF Final Energy:  -377.84576242944070

   => Energetics <=

    Nuclear Repulsion Energy =            377.9340206219297329
    One-Electron Energy =               -1262.9173988212182849
    Two-Electron Energy =                 507.1376157698479119
    Total Energy =                       -377.8457624294406969
  Basis Set: (AUG-CC-PVTZ AUX)
    Blend: AUG-CC-PVTZ-RI
    Molecular point group: c1

    Geometry (in Angstrom), charge = 0, multiplicity = 1:

       Center              X                  Y                   Z               Mass
    ------------   -----------------  -----------------  -----------------  -----------------
         O           -1.472691031115     0.695785095737     0.011846207521    15.994914619570
         N            0.848682968885     0.523360095737    -0.032034792479    14.003074004430
         N            1.858510468885    -0.382896604263    -0.019195892479    14.003074004430
         C           -0.363450031115    -0.089739904263     0.003800207521    12.000000000000
         C           -0.138579031115    -1.458698904263     0.022510207521    12.000000000000
         C            1.108748968885     1.947660095737     0.018117207521    12.000000000000
         C            1.264948968885    -1.564211904263     0.007622207521    12.000000000000
         C           -2.691724031115    -0.052520904263    -0.012896792479    12.000000000000
         H           -0.868373031115    -2.254467904263     0.035426207521     1.007825032230
         H            1.159894968885     2.297985095737     1.052370207521     1.007825032230
         H            2.063271968885     2.121018095737    -0.477183792479     1.007825032230
         H            0.307943968885     2.470932095737    -0.505106792479     1.007825032230
         H            1.869895968885    -2.461942904263     0.007518207521     1.007825032230
         H           -3.491594031115     0.686467095737    -0.012495792479     1.007825032230
         H           -2.770287031115    -0.689839904263     0.873380207521     1.007825032230
         H           -2.748515031115    -0.667713904263    -0.916287792479     1.007825032230

  Basis Set: AUG-CC-PVTZ
    Blend: AUG-CC-PVTZ
  Basis Set: (AUG-CC-PVTZ AUX)
    Blend: AUG-CC-PVTZ-JKFIT
	 Reference Energy          =    -377.8457624294406969 [Eh]
	 Singles Energy            =      -0.0000000000000000 [Eh]
	 Same-Spin Energy          =      -0.3957865351731257 [Eh]
	 Opposite-Spin Energy      =      -1.2382548206211410 [Eh]
	 Correlation Energy        =      -1.6340413557942668 [Eh]
	 Total Energy              =    -379.4798037852349353 [Eh]

	 ================> DF-SCS-MP2 Energies <==================
	-----------------------------------------------------------
	 SCS Same-Spin Scale       =       0.3333333333333333 [-]
	 SCS Opposite-Spin Scale   =       1.2000000000000000 [-]
	 SCS Same-Spin Energy      =      -0.1319288450577086 [Eh]
	 SCS Opposite-Spin Energy  =      -1.4859057847453692 [Eh]
	 SCS Correlation Energy    =      -1.6178346298030777 [Eh]
	 SCS Total Energy          =    -379.4635970592437957 [Eh]
	-----------------------------------------------------------

  Dipole Moment: [D]
     X:    -2.9433      Y:     0.6637      Z:     0.0039     Total:     3.0172

*** Psi4 exiting successfully. Buy a developer a beer!
