                               Psi4 1.4a3.dev225

  ==> Input File <==

--------------------------------------------------------------------------
#psi4
#
memory 32 gb

molecule  {
0 1
  O       -1.4373610     0.6812660     0.0112400
  N        0.8840130     0.5088410    -0.0326410
  N        1.9094790    -0.3796650    -0.0187050
  C       -0.3281200    -0.1042590     0.0031940
  C       -0.1032490    -1.4732180     0.0219040
  C        1.1440790     1.9331410     0.0175110
  C        1.3002790    -1.5787310     0.0070160
  C       -2.6563940    -0.0670400    -0.0135030
  H       -0.8330430    -2.2689870     0.0348200
  H        1.1952250     2.2834660     1.0517640
  H        2.0986020     2.1064990    -0.4777900
  H        0.3432740     2.4564130    -0.5057130
  H        1.9331672    -2.5179263     0.0069072
  H       -3.4562640     0.6719480    -0.0131020
  H       -2.7349570    -0.7043590     0.8727740
  H       -2.7131850    -0.6822330    -0.9168940
units angstrom
no_reorient  #important for SAPT in psi4, default
symmetry c1  #important for SAPT in psi4, default
}

set PROPERTIES_ORIGIN ["COM"]
properties('MP2/aug-cc-pvtz', properties = ['dipole'])
--------------------------------------------------------------------------

    Molecular point group: c1
  Charge       = 0
  Multiplicity = 1
  Basis Set: AUG-CC-PVTZ
    Blend: AUG-CC-PVTZ
  Basis Set: (AUG-CC-PVTZ AUX)
    Blend: AUG-CC-PVTZ-JKFIT

    Orbital Energies [Eh]
    ---------------------

    Doubly Occupied:

       1A    -20.609392     2A    -15.628730     3A    -15.574059
       4A    -11.335848     5A    -11.298160     6A    -11.264311
       7A    -11.257734     8A    -11.216174     9A     -1.437012
      10A     -1.356662    11A     -1.113673    12A     -1.049920
      13A     -0.964511    14A     -0.932676    15A     -0.801487
      16A     -0.771124    17A     -0.723719    18A     -0.682156
      19A     -0.643437    20A     -0.633172    21A     -0.621207
      22A     -0.592954    23A     -0.573515    24A     -0.546183
      25A     -0.543463    26A     -0.522924    27A     -0.501204
      28A     -0.448020    29A     -0.349916    30A     -0.321095

  @DF-RHF Final Energy:  -377.84141690901066

   => Energetics <=

    Nuclear Repulsion Energy =            377.2383292929343952
    One-Electron Energy =               -1261.5306185327783624
    Two-Electron Energy =                 506.4508723308333060
    Total Energy =                       -377.8414169090106611
  Basis Set: (AUG-CC-PVTZ AUX)
    Blend: AUG-CC-PVTZ-RI
    Molecular point group: c1

    Geometry (in Angstrom), charge = 0, multiplicity = 1:

       Center              X                  Y                   Z               Mass
    ------------   -----------------  -----------------  -----------------  -----------------
         O           -1.474896446387     0.693939933792     0.011709161001    15.994914619570
         N            0.846477553613     0.521514933792    -0.032171838999    14.003074004430
         N            1.871943553613    -0.366991066208    -0.018235838999    14.003074004430
         C           -0.365655446387    -0.091585066208     0.003663161001    12.000000000000
         C           -0.140784446387    -1.460544066208     0.022373161001    12.000000000000
         C            1.106543553613     1.945814933792     0.017980161001    12.000000000000
         C            1.262743553613    -1.566057066208     0.007485161001    12.000000000000
         C           -2.693929446387    -0.054366066208    -0.013033838999    12.000000000000
         H           -0.870578446387    -2.256313066208     0.035289161001     1.007825032230
         H            1.157689553613     2.296139933792     1.052233161001     1.007825032230
         H            2.061066553613     2.119172933792    -0.477320838999     1.007825032230
         H            0.305738553613     2.469086933792    -0.505243838999     1.007825032230
         H            1.895631753613    -2.505252366208     0.007376361001     1.007825032230
         H           -3.493799446387     0.684621933792    -0.012632838999     1.007825032230
         H           -2.772492446387    -0.691685066208     0.873243161001     1.007825032230
         H           -2.750720446387    -0.669559066208    -0.916424838999     1.007825032230

  Basis Set: AUG-CC-PVTZ
    Blend: AUG-CC-PVTZ
  Basis Set: (AUG-CC-PVTZ AUX)
    Blend: AUG-CC-PVTZ-JKFIT
	 Reference Energy          =    -377.8414169090106611 [Eh]
	 Singles Energy            =      -0.0000000000000000 [Eh]
	 Same-Spin Energy          =      -0.3965194340431469 [Eh]
	 Opposite-Spin Energy      =      -1.2399787370146256 [Eh]
	 Correlation Energy        =      -1.6364981710577724 [Eh]
	 Total Energy              =    -379.4779150800684420 [Eh]

	 ================> DF-SCS-MP2 Energies <==================
	-----------------------------------------------------------
	 SCS Same-Spin Scale       =       0.3333333333333333 [-]
	 SCS Opposite-Spin Scale   =       1.2000000000000000 [-]
	 SCS Same-Spin Energy      =      -0.1321731446810490 [Eh]
	 SCS Opposite-Spin Energy  =      -1.4879744844175506 [Eh]
	 SCS Correlation Energy    =      -1.6201476290985997 [Eh]
	 SCS Total Energy          =    -379.4615645381092577 [Eh]
	-----------------------------------------------------------

  Dipole Moment: [D]
     X:    -3.0046      Y:     0.6569      Z:     0.0029     Total:     3.0756

*** Psi4 exiting successfully. Buy a developer a beer!
