                               Psi4 1.3.2 release

  ==> Input File <==

--------------------------------------------------------------------------
#psi4
#
memory 32 gb

molecule  {
0 1
  O       -1.4373610     0.6812660     0.0112400
  N        0.8385049     0.5918327    -0.0265525
  N        1.9094790    -0.3796650    -0.0187050
  C       -0.3281200    -0.1042590     0.0031940
  C       -0.1032490    -1.4732180     0.0219040
  C        1.1440790     1.9331410     0.0175110
  C        1.3002790    -1.5787310     0.0070160
  C       -2.6563940    -0.0670400    -0.0135030
  H       -0.8330430    -2.2689870     0.0348200
  H        1.1952250     2.2834660     1.0517640
  H        2.0986020     2.1064990    -0.4777900
  H        0.3432740     2.4564130    -0.5057130
  H        1.9052260    -2.4764620     0.0069120
  H       -3.4562640     0.6719480    -0.0131020
  H       -2.7349570    -0.7043590     0.8727740
  H       -2.7131850    -0.6822330    -0.9168940
units angstrom
no_reorient  #important for SAPT in psi4, default
symmetry c1  #important for SAPT in psi4, default
}

set PROPERTIES_ORIGIN ["COM"]
properties('MP2/aug-cc-pvtz', properties = ['dipole'])
--------------------------------------------------------------------------

    Molecular point group: c1
  Charge       = 0
  Multiplicity = 1
  Basis Set: AUG-CC-PVTZ
    Blend: AUG-CC-PVTZ
  Basis Set: (AUG-CC-PVTZ AUX)
    Blend: AUG-CC-PVTZ-JKFIT

    Orbital Energies [Eh]
    ---------------------

    Doubly Occupied:

       1A    -20.609304     2A    -15.621725     3A    -15.575778
       4A    -11.344363     5A    -11.297624     6A    -11.261769
       7A    -11.256903     8A    -11.217481     9A     -1.438016
      10A     -1.332169    11A     -1.132311    12A     -1.043155
      13A     -0.966937    14A     -0.933188    15A     -0.799240
      16A     -0.771946    17A     -0.725654    18A     -0.682509
      19A     -0.646906    20A     -0.633588    21A     -0.622085
      22A     -0.596269    23A     -0.594028    24A     -0.540026
      25A     -0.531812    26A     -0.525615    27A     -0.495147
      28A     -0.440785    29A     -0.352661    30A     -0.322647

  @DF-RHF Final Energy:  -377.83071990322304

   => Energetics <=

    Nuclear Repulsion Energy =            376.9182223807169407
    One-Electron Energy =               -1260.8746040955500121
    Two-Electron Energy =                 506.1256618116099730
    Total Energy =                       -377.8307199032230415
  Basis Set: (AUG-CC-PVTZ AUX)
    Blend: AUG-CC-PVTZ-RI
    Molecular point group: c1

    Geometry (in Angstrom), charge = 0, multiplicity = 1:

       Center              X                  Y                   Z               Mass
    ------------   -----------------  -----------------  -----------------  -----------------
         O           -1.468958632864     0.683196686201     0.010948320677    15.994914619570
         N            0.806907267136     0.593763386201    -0.026844179323    14.003074004430
         N            1.877881367136    -0.377734313799    -0.018996679323    14.003074004430
         C           -0.359717632864    -0.102328313799     0.002902320677    12.000000000000
         C           -0.134846632864    -1.471287313799     0.021612320677    12.000000000000
         C            1.112481367136     1.935071686201     0.017219320677    12.000000000000
         C            1.268681367136    -1.576800313799     0.006724320677    12.000000000000
         C           -2.687991632864    -0.065109313799    -0.013794679323    12.000000000000
         H           -0.864640632864    -2.267056313799     0.034528320677     1.007825032230
         H            1.163627367136     2.285396686201     1.051472320677     1.007825032230
         H            2.067004367136     2.108429686201    -0.478081679323     1.007825032230
         H            0.311676367136     2.458343686201    -0.506004679323     1.007825032230
         H            1.873628367136    -2.474531313799     0.006620320677     1.007825032230
         H           -3.487861632864     0.673878686201    -0.013393679323     1.007825032230
         H           -2.766554632864    -0.702428313799     0.872482320677     1.007825032230
         H           -2.744782632864    -0.680302313799    -0.917185679323     1.007825032230

  Basis Set: AUG-CC-PVTZ
    Blend: AUG-CC-PVTZ
  Basis Set: (AUG-CC-PVTZ AUX)
    Blend: AUG-CC-PVTZ-JKFIT
	 Reference Energy          =    -377.8307199032230415 [Eh]
	 Singles Energy            =      -0.0000000000000000 [Eh]
	 Same-Spin Energy          =      -0.3965741623925864 [Eh]
	 Opposite-Spin Energy      =      -1.2414606190538862 [Eh]
	 Correlation Energy        =      -1.6380347814464726 [Eh]
	 Total Energy              =    -379.4687546846695341 [Eh]

	 ================> DF-SCS-MP2 Energies <==================
	-----------------------------------------------------------
	 SCS Same-Spin Scale       =       0.3333333333333333 [-]
	 SCS Opposite-Spin Scale   =       1.2000000000000000 [-]
	 SCS Same-Spin Energy      =      -0.1321913874641955 [Eh]
	 SCS Opposite-Spin Energy  =      -1.4897527428646633 [Eh]
	 SCS Correlation Energy    =      -1.6219441303288589 [Eh]
	 SCS Total Energy          =    -379.4526640335519119 [Eh]
	-----------------------------------------------------------

  Dipole Moment: [D]
     X:    -2.9860      Y:     0.4000      Z:    -0.0048     Total:     3.0127

*** Psi4 exiting successfully. Buy a developer a beer!
