                               Psi4 1.4a3.dev225

  ==> Input File <==

--------------------------------------------------------------------------
#psi4
#
memory 32 gb

molecule  {
0 1
  O       -1.4373610     0.6812660     0.0112400
  N        0.8840130     0.5088410    -0.0326410
  N        1.9094790    -0.3796650    -0.0187050
  C       -0.3281200    -0.1042590     0.0031940
  C       -0.1032490    -1.4732180     0.0219040
  C        1.1440790     1.9331410     0.0175110
  C        1.2776354    -1.6232995     0.0079720
  C       -2.6563940    -0.0670400    -0.0135030
  H       -0.8330430    -2.2689870     0.0348200
  H        1.1952250     2.2834660     1.0517640
  H        2.0986020     2.1064990    -0.4777900
  H        0.3432740     2.4564130    -0.5057130
  H        1.9052260    -2.4764620     0.0069120
  H       -3.4562640     0.6719480    -0.0131020
  H       -2.7349570    -0.7043590     0.8727740
  H       -2.7131850    -0.6822330    -0.9168940
units angstrom
no_reorient  #important for SAPT in psi4, default
symmetry c1  #important for SAPT in psi4, default
}

set PROPERTIES_ORIGIN ["COM"]
properties('MP2/aug-cc-pvtz', properties = ['dipole'])
--------------------------------------------------------------------------

    Molecular point group: c1
  Charge       = 0
  Multiplicity = 1
  Basis Set: AUG-CC-PVTZ
    Blend: AUG-CC-PVTZ
  Basis Set: (AUG-CC-PVTZ AUX)
    Blend: AUG-CC-PVTZ-JKFIT

    Orbital Energies [Eh]
    ---------------------

    Doubly Occupied:

       1A    -20.609145     2A    -15.632453     3A    -15.574811
       4A    -11.334885     5A    -11.298269     6A    -11.265112
       7A    -11.252918     8A    -11.217212     9A     -1.436556
      10A     -1.350781    11A     -1.107600    12A     -1.048055
      13A     -0.965095    14A     -0.935372    15A     -0.806686
      16A     -0.770007    17A     -0.727812    18A     -0.681849
      19A     -0.646726    20A     -0.632376    21A     -0.618132
      22A     -0.595553    23A     -0.582650    24A     -0.545086
      25A     -0.543281    26A     -0.524810    27A     -0.498970
      28A     -0.445551    29A     -0.352917    30A     -0.313222

  @DF-RHF Final Energy:  -377.83682169381262

   => Energetics <=

    Nuclear Repulsion Energy =            376.8172988237566301
    One-Electron Energy =               -1260.6804584946994510
    Two-Electron Energy =                 506.0263379771302539
    Total Energy =                       -377.8368216938126238
  Basis Set: (AUG-CC-PVTZ AUX)
    Blend: AUG-CC-PVTZ-RI
    Molecular point group: c1

    Geometry (in Angstrom), charge = 0, multiplicity = 1:

       Center              X                  Y                   Z               Mass
    ------------   -----------------  -----------------  -----------------  -----------------
         O           -1.472220440329     0.698339515492     0.011606747451    15.994914619570
         N            0.849153559671     0.525914515492    -0.032274252549    14.003074004430
         N            1.874619559671    -0.362591484508    -0.018338252549    14.003074004430
         C           -0.362979440329    -0.087185484508     0.003560747451    12.000000000000
         C           -0.138108440329    -1.456144484508     0.022270747451    12.000000000000
         C            1.109219559671     1.950214515492     0.017877747451    12.000000000000
         C            1.242775959671    -1.606225984508     0.008338747451    12.000000000000
         C           -2.691253440329    -0.049966484508    -0.013136252549    12.000000000000
         H           -0.867902440329    -2.251913484508     0.035186747451     1.007825032230
         H            1.160365559671     2.300539515492     1.052130747451     1.007825032230
         H            2.063742559671     2.123572515492    -0.477423252549     1.007825032230
         H            0.308414559671     2.473486515492    -0.505346252549     1.007825032230
         H            1.870366559671    -2.459388484508     0.007278747451     1.007825032230
         H           -3.491123440329     0.689021515492    -0.012735252549     1.007825032230
         H           -2.769816440329    -0.687285484508     0.873140747451     1.007825032230
         H           -2.748044440329    -0.665159484508    -0.916527252549     1.007825032230

  Basis Set: AUG-CC-PVTZ
    Blend: AUG-CC-PVTZ
  Basis Set: (AUG-CC-PVTZ AUX)
    Blend: AUG-CC-PVTZ-JKFIT
	 Reference Energy          =    -377.8368216938126238 [Eh]
	 Singles Energy            =      -0.0000000000000000 [Eh]
	 Same-Spin Energy          =      -0.3979199600090138 [Eh]
	 Opposite-Spin Energy      =      -1.2423977644389530 [Eh]
	 Correlation Energy        =      -1.6403177244479668 [Eh]
	 Total Energy              =    -379.4771394182606059 [Eh]

	 ================> DF-SCS-MP2 Energies <==================
	-----------------------------------------------------------
	 SCS Same-Spin Scale       =       0.3333333333333333 [-]
	 SCS Opposite-Spin Scale   =       1.2000000000000000 [-]
	 SCS Same-Spin Energy      =      -0.1326399866696713 [Eh]
	 SCS Opposite-Spin Energy  =      -1.4908773173267436 [Eh]
	 SCS Correlation Energy    =      -1.6235173039964148 [Eh]
	 SCS Total Energy          =    -379.4603389978090604 [Eh]
	-----------------------------------------------------------

  Dipole Moment: [D]
     X:    -3.0371      Y:     0.6715      Z:     0.0058     Total:     3.1105

*** Psi4 exiting successfully. Buy a developer a beer!
