                               Psi4 1.3.2 release

  ==> Input File <==

--------------------------------------------------------------------------
#psi4
#
memory 32 gb

molecule  {
0 1
  O       -1.4508945     0.6617910     0.0118268
  N        0.8840130     0.5088410    -0.0326410
  N        1.9094790    -0.3796650    -0.0187050
  C       -0.3281200    -0.1042590     0.0031940
  C       -0.1032490    -1.4732180     0.0219040
  C        1.1440790     1.9331410     0.0175110
  C        1.3002790    -1.5787310     0.0070160
  C       -2.6563940    -0.0670400    -0.0135030
  H       -0.8330430    -2.2689870     0.0348200
  H        1.1952250     2.2834660     1.0517640
  H        2.0986020     2.1064990    -0.4777900
  H        0.3432740     2.4564130    -0.5057130
  H        1.9052260    -2.4764620     0.0069120
  H       -3.4562640     0.6719480    -0.0131020
  H       -2.7349570    -0.7043590     0.8727740
  H       -2.7131850    -0.6822330    -0.9168940
units angstrom
no_reorient  #important for SAPT in psi4, default
symmetry c1  #important for SAPT in psi4, default
}

set PROPERTIES_ORIGIN ["COM"]
properties('MP2/aug-cc-pvtz', properties = ['dipole'])
--------------------------------------------------------------------------

    Molecular point group: c1
  Charge       = 0
  Multiplicity = 1
  Basis Set: AUG-CC-PVTZ
    Blend: AUG-CC-PVTZ
  Basis Set: (AUG-CC-PVTZ AUX)
    Blend: AUG-CC-PVTZ-JKFIT

    Orbital Energies [Eh]
    ---------------------

    Doubly Occupied:

       1A    -20.608292     2A    -15.629779     3A    -15.574388
       4A    -11.336410     5A    -11.295664     6A    -11.264874
       7A    -11.252542     8A    -11.215599     9A     -1.441099
      10A     -1.358192    11A     -1.114884    12A     -1.051428
      13A     -0.964354    14A     -0.934213    15A     -0.805516
      16A     -0.772788    17A     -0.727672    18A     -0.684491
      19A     -0.648442    20A     -0.634440    21A     -0.622017
      22A     -0.594793    23A     -0.578260    24A     -0.546187
      25A     -0.545379    26A     -0.520371    27A     -0.498673
      28A     -0.449079    29A     -0.350127    30A     -0.321327

  @DF-RHF Final Energy:  -377.84455312325986

   => Energetics <=

    Nuclear Repulsion Energy =            377.6940249847614837
    One-Electron Energy =               -1262.3945980684386541
    Two-Electron Energy =                 506.8560199604173704
    Total Energy =                       -377.8445531232598569
  Basis Set: (AUG-CC-PVTZ AUX)
    Blend: AUG-CC-PVTZ-RI
    Molecular point group: c1

    Geometry (in Angstrom), charge = 0, multiplicity = 1:

       Center              X                  Y                   Z               Mass
    ------------   -----------------  -----------------  -----------------  -----------------
         O           -1.486247017403     0.676871710402     0.012212163513    15.994914619570
         N            0.848660482597     0.523921710402    -0.032255636487    14.003074004430
         N            1.874126482597    -0.364584289598    -0.018319636487    14.003074004430
         C           -0.363472517403    -0.089178289598     0.003579363513    12.000000000000
         C           -0.138601517403    -1.458137289598     0.022289363513    12.000000000000
         C            1.108726482597     1.948221710402     0.017896363513    12.000000000000
         C            1.264926482597    -1.563650289598     0.007401363513    12.000000000000
         C           -2.691746517403    -0.051959289598    -0.013117636487    12.000000000000
         H           -0.868395517403    -2.253906289598     0.035205363513     1.007825032230
         H            1.159872482597     2.298546710402     1.052149363513     1.007825032230
         H            2.063249482597     2.121579710402    -0.477404636487     1.007825032230
         H            0.307921482597     2.471493710402    -0.505327636487     1.007825032230
         H            1.869873482597    -2.461381289598     0.007297363513     1.007825032230
         H           -3.491616517403     0.687028710402    -0.012716636487     1.007825032230
         H           -2.770309517403    -0.689278289598     0.873159363513     1.007825032230
         H           -2.748537517403    -0.667152289598    -0.916508636487     1.007825032230

  Basis Set: AUG-CC-PVTZ
    Blend: AUG-CC-PVTZ
  Basis Set: (AUG-CC-PVTZ AUX)
    Blend: AUG-CC-PVTZ-JKFIT
	 Reference Energy          =    -377.8445531232598569 [Eh]
	 Singles Energy            =      -0.0000000000000000 [Eh]
	 Same-Spin Energy          =      -0.3962792412883402 [Eh]
	 Opposite-Spin Energy      =      -1.2389752269393652 [Eh]
	 Correlation Energy        =      -1.6352544682277055 [Eh]
	 Total Energy              =    -379.4798075914875426 [Eh]

	 ================> DF-SCS-MP2 Energies <==================
	-----------------------------------------------------------
	 SCS Same-Spin Scale       =       0.3333333333333333 [-]
	 SCS Opposite-Spin Scale   =       1.2000000000000000 [-]
	 SCS Same-Spin Energy      =      -0.1320930804294467 [Eh]
	 SCS Opposite-Spin Energy  =      -1.4867702723272382 [Eh]
	 SCS Correlation Energy    =      -1.6188633527566849 [Eh]
	 SCS Total Energy          =    -379.4634164760165618 [Eh]
	-----------------------------------------------------------

  Dipole Moment: [D]
     X:    -2.9191      Y:     0.6878      Z:     0.0029     Total:     2.9991

*** Psi4 exiting successfully. Buy a developer a beer!
