                               Psi4 1.4a3.dev225

  ==> Input File <==

--------------------------------------------------------------------------
#psi4
#
memory 32 gb

molecule  {
0 1
  O       -1.4373610     0.6812660     0.0112400
  N        0.8840130     0.5088410    -0.0326410
  N        1.9094790    -0.3796650    -0.0187050
  C       -0.3281200    -0.1042590     0.0031940
  C       -0.1032490    -1.4732180     0.0219040
  C        1.1440790     1.9331410     0.0175110
  C        1.2504225    -1.5749829     0.0075449
  C       -2.6563940    -0.0670400    -0.0135030
  H       -0.8330430    -2.2689870     0.0348200
  H        1.1952250     2.2834660     1.0517640
  H        2.0986020     2.1064990    -0.4777900
  H        0.3432740     2.4564130    -0.5057130
  H        1.9052260    -2.4764620     0.0069120
  H       -3.4562640     0.6719480    -0.0131020
  H       -2.7349570    -0.7043590     0.8727740
  H       -2.7131850    -0.6822330    -0.9168940
units angstrom
no_reorient  #important for SAPT in psi4, default
symmetry c1  #important for SAPT in psi4, default
}

set PROPERTIES_ORIGIN ["COM"]
properties('MP2/aug-cc-pvtz', properties = ['dipole'])
--------------------------------------------------------------------------

    Molecular point group: c1
  Charge       = 0
  Multiplicity = 1
  Basis Set: AUG-CC-PVTZ
    Blend: AUG-CC-PVTZ
  Basis Set: (AUG-CC-PVTZ AUX)
    Blend: AUG-CC-PVTZ-JKFIT

    Orbital Energies [Eh]
    ---------------------

    Doubly Occupied:

       1A    -20.609491     2A    -15.630490     3A    -15.570845
       4A    -11.335994     5A    -11.298868     6A    -11.264264
       7A    -11.250283     8A    -11.213711     9A     -1.437438
      10A     -1.356203    11A     -1.113114    12A     -1.053466
      13A     -0.967418    14A     -0.933990    15A     -0.800802
      16A     -0.774174    17A     -0.726214    18A     -0.682772
      19A     -0.643745    20A     -0.633180    21A     -0.624489
      22A     -0.593071    23A     -0.575926    24A     -0.547060
      25A     -0.539537    26A     -0.521251    27A     -0.501077
      28A     -0.452167    29A     -0.356656    30A     -0.315779

  @DF-RHF Final Energy:  -377.83817915377023

   => Energetics <=

    Nuclear Repulsion Energy =            378.0825478585312567
    One-Electron Energy =               -1263.1945033953772963
    Two-Electron Energy =                 507.2737763830758126
    Total Energy =                       -377.8381791537702270
  Basis Set: (AUG-CC-PVTZ AUX)
    Blend: AUG-CC-PVTZ-RI
    Molecular point group: c1

    Geometry (in Angstrom), charge = 0, multiplicity = 1:

       Center              X                  Y                   Z               Mass
    ------------   -----------------  -----------------  -----------------  -----------------
         O           -1.469306428850     0.693165677826     0.011652482169    15.994914619570
         N            0.852067571150     0.520740677826    -0.032228517831    14.003074004430
         N            1.877533571150    -0.367765322174    -0.018292517831    14.003074004430
         C           -0.360065428850    -0.092359322174     0.003606482169    12.000000000000
         C           -0.135194428850    -1.461318322174     0.022316482169    12.000000000000
         C            1.112133571150     1.945040677826     0.017923482169    12.000000000000
         C            1.218477071150    -1.563083222174     0.007957382169    12.000000000000
         C           -2.688339428850    -0.055140322174    -0.013090517831    12.000000000000
         H           -0.864988428850    -2.257087322174     0.035232482169     1.007825032230
         H            1.163279571150     2.295365677826     1.052176482169     1.007825032230
         H            2.066656571150     2.118398677826    -0.477377517831     1.007825032230
         H            0.311328571150     2.468312677826    -0.505300517831     1.007825032230
         H            1.873280571150    -2.464562322174     0.007324482169     1.007825032230
         H           -3.488209428850     0.683847677826    -0.012689517831     1.007825032230
         H           -2.766902428850    -0.692459322174     0.873186482169     1.007825032230
         H           -2.745130428850    -0.670333322174    -0.916481517831     1.007825032230

  Basis Set: AUG-CC-PVTZ
    Blend: AUG-CC-PVTZ
  Basis Set: (AUG-CC-PVTZ AUX)
    Blend: AUG-CC-PVTZ-JKFIT
	 Reference Energy          =    -377.8381791537702270 [Eh]
	 Singles Energy            =      -0.0000000000000000 [Eh]
	 Same-Spin Energy          =      -0.3974496992183173 [Eh]
	 Opposite-Spin Energy      =      -1.2410573688173134 [Eh]
	 Correlation Energy        =      -1.6385070680356306 [Eh]
	 Total Energy              =    -379.4766862218058350 [Eh]

	 ================> DF-SCS-MP2 Energies <==================
	-----------------------------------------------------------
	 SCS Same-Spin Scale       =       0.3333333333333333 [-]
	 SCS Opposite-Spin Scale   =       1.2000000000000000 [-]
	 SCS Same-Spin Energy      =      -0.1324832330727724 [Eh]
	 SCS Opposite-Spin Energy  =      -1.4892688425807761 [Eh]
	 SCS Correlation Energy    =      -1.6217520756535484 [Eh]
	 SCS Total Energy          =    -379.4599312294237734 [Eh]
	-----------------------------------------------------------

  Dipole Moment: [D]
     X:    -3.0850      Y:     0.6729      Z:     0.0068     Total:     3.1576

*** Psi4 exiting successfully. Buy a developer a beer!
