                               Psi4 1.4a3.dev225

  ==> Input File <==

--------------------------------------------------------------------------
#psi4
#
memory 32 gb

molecule  {
0 1
  O       -1.4373610     0.6812660     0.0112400
  N        0.8840130     0.5088410    -0.0326410
  N        1.9094790    -0.3796650    -0.0187050
  C       -0.3102793    -0.0952351     0.0026666
  C       -0.1032490    -1.4732180     0.0219040
  C        1.1440790     1.9331410     0.0175110
  C        1.3002790    -1.5787310     0.0070160
  C       -2.6563940    -0.0670400    -0.0135030
  H       -0.8330430    -2.2689870     0.0348200
  H        1.1952250     2.2834660     1.0517640
  H        2.0986020     2.1064990    -0.4777900
  H        0.3432740     2.4564130    -0.5057130
  H        1.9052260    -2.4764620     0.0069120
  H       -3.4562640     0.6719480    -0.0131020
  H       -2.7349570    -0.7043590     0.8727740
  H       -2.7131850    -0.6822330    -0.9168940
units angstrom
no_reorient  #important for SAPT in psi4, default
symmetry c1  #important for SAPT in psi4, default
}

set PROPERTIES_ORIGIN ["COM"]
properties('MP2/aug-cc-pvtz', properties = ['dipole'])
--------------------------------------------------------------------------

    Molecular point group: c1
  Charge       = 0
  Multiplicity = 1
  Basis Set: AUG-CC-PVTZ
    Blend: AUG-CC-PVTZ
  Basis Set: (AUG-CC-PVTZ AUX)
    Blend: AUG-CC-PVTZ-JKFIT

    Orbital Energies [Eh]
    ---------------------

    Doubly Occupied:

       1A    -20.607078     2A    -15.630541     3A    -15.572499
       4A    -11.335043     5A    -11.297091     6A    -11.265557
       7A    -11.252725     8A    -11.215314     9A     -1.433104
      10A     -1.359774    11A     -1.116827    12A     -1.049727
      13A     -0.962573    14A     -0.936653    15A     -0.807144
      16A     -0.769245    17A     -0.726641    18A     -0.681303
      19A     -0.643299    20A     -0.634200    21A     -0.619784
      22A     -0.593628    23A     -0.580589    24A     -0.547270
      25A     -0.546203    26A     -0.520360    27A     -0.499428
      28A     -0.448439    29A     -0.351005    30A     -0.321399

  @DF-RHF Final Energy:  -377.84427376700091

   => Energetics <=

    Nuclear Repulsion Energy =            377.6274772692332249
    One-Electron Energy =               -1262.2946198028612343
    Two-Electron Energy =                 506.8228687666271526
    Total Energy =                       -377.8442737670009137
  Basis Set: (AUG-CC-PVTZ AUX)
    Blend: AUG-CC-PVTZ-RI
    Molecular point group: c1

    Geometry (in Angstrom), charge = 0, multiplicity = 1:

       Center              X                  Y                   Z               Mass
    ------------   -----------------  -----------------  -----------------  -----------------
         O           -1.476555579726     0.692600734665     0.011765592875    15.994914619570
         N            0.844818420274     0.520175734665    -0.032115407125    14.003074004430
         N            1.870284420274    -0.368330265335    -0.018179407125    14.003074004430
         C           -0.349473879726    -0.083900365335     0.003192192875    12.000000000000
         C           -0.142443579726    -1.461883265335     0.022429592875    12.000000000000
         C            1.104884420274     1.944475734665     0.018036592875    12.000000000000
         C            1.261084420274    -1.567396265335     0.007541592875    12.000000000000
         C           -2.695588579726    -0.055705265335    -0.012977407125    12.000000000000
         H           -0.872237579726    -2.257652265335     0.035345592875     1.007825032230
         H            1.156030420274     2.294800734665     1.052289592875     1.007825032230
         H            2.059407420274     2.117833734665    -0.477264407125     1.007825032230
         H            0.304079420274     2.467747734665    -0.505187407125     1.007825032230
         H            1.866031420274    -2.465127265335     0.007437592875     1.007825032230
         H           -3.495458579726     0.683282734665    -0.012576407125     1.007825032230
         H           -2.774151579726    -0.693024265335     0.873299592875     1.007825032230
         H           -2.752379579726    -0.670898265335    -0.916368407125     1.007825032230

  Basis Set: AUG-CC-PVTZ
    Blend: AUG-CC-PVTZ
  Basis Set: (AUG-CC-PVTZ AUX)
    Blend: AUG-CC-PVTZ-JKFIT
	 Reference Energy          =    -377.8442737670009137 [Eh]
	 Singles Energy            =      -0.0000000000000000 [Eh]
	 Same-Spin Energy          =      -0.3961980868011775 [Eh]
	 Opposite-Spin Energy      =      -1.2391337673547120 [Eh]
	 Correlation Energy        =      -1.6353318541558894 [Eh]
	 Total Energy              =    -379.4796056211567929 [Eh]

	 ================> DF-SCS-MP2 Energies <==================
	-----------------------------------------------------------
	 SCS Same-Spin Scale       =       0.3333333333333333 [-]
	 SCS Opposite-Spin Scale   =       1.2000000000000000 [-]
	 SCS Same-Spin Energy      =      -0.1320660289337258 [Eh]
	 SCS Opposite-Spin Energy  =      -1.4869605208256544 [Eh]
	 SCS Correlation Energy    =      -1.6190265497593803 [Eh]
	 SCS Total Energy          =    -379.4633003167602965 [Eh]
	-----------------------------------------------------------

  Dipole Moment: [D]
     X:    -2.9231      Y:     0.6691      Z:     0.0019     Total:     2.9987

*** Psi4 exiting successfully. Buy a developer a beer!
