                               Psi4 1.3.2 release

  ==> Input File <==

--------------------------------------------------------------------------
#psi4
#
memory 32 gb

molecule  {
0 1
  O       -1.4373610     0.6812660     0.0112400
  N        0.8840130     0.5088410    -0.0326410
  N        1.9094790    -0.3796650    -0.0187050
  C       -0.4097275    -0.0464675     0.0037859
  C       -0.1032490    -1.4732180     0.0219040
  C        1.1440790     1.9331410     0.0175110
  C        1.3002790    -1.5787310     0.0070160
  C       -2.6563940    -0.0670400    -0.0135030
  H       -0.8330430    -2.2689870     0.0348200
  H        1.1952250     2.2834660     1.0517640
  H        2.0986020     2.1064990    -0.4777900
  H        0.3432740     2.4564130    -0.5057130
  H        1.9052260    -2.4764620     0.0069120
  H       -3.4562640     0.6719480    -0.0131020
  H       -2.7349570    -0.7043590     0.8727740
  H       -2.7131850    -0.6822330    -0.9168940
units angstrom
no_reorient  #important for SAPT in psi4, default
symmetry c1  #important for SAPT in psi4, default
}

set PROPERTIES_ORIGIN ["COM"]
properties('MP2/aug-cc-pvtz', properties = ['dipole'])
--------------------------------------------------------------------------

    Molecular point group: c1
  Charge       = 0
  Multiplicity = 1
  Basis Set: AUG-CC-PVTZ
    Blend: AUG-CC-PVTZ
  Basis Set: (AUG-CC-PVTZ AUX)
    Blend: AUG-CC-PVTZ-JKFIT

    Orbital Energies [Eh]
    ---------------------

    Doubly Occupied:

       1A    -20.627098     2A    -15.622863     3A    -15.568478
       4A    -11.346073     5A    -11.310510     6A    -11.258598
       7A    -11.247734     8A    -11.216259     9A     -1.489482
      10A     -1.342869    11A     -1.106760    12A     -1.037293
      13A     -0.978951    14A     -0.925783    15A     -0.796325
      16A     -0.790298    17A     -0.723795    18A     -0.702272
      19A     -0.664802    20A     -0.629047    21A     -0.623362
      22A     -0.592467    23A     -0.566821    24A     -0.550949
      25A     -0.546408    26A     -0.517933    27A     -0.511424
      28A     -0.440968    29A     -0.341977    30A     -0.302543

  @DF-RHF Final Energy:  -377.82696244462176

   => Energetics <=

    Nuclear Repulsion Energy =            377.3056851093361956
    One-Electron Energy =               -1261.5050131733091803
    Two-Electron Energy =                 506.3723656193512284
    Total Energy =                       -377.8269624446217563
  Basis Set: (AUG-CC-PVTZ AUX)
    Blend: AUG-CC-PVTZ-RI
    Molecular point group: c1

    Geometry (in Angstrom), charge = 0, multiplicity = 1:

       Center              X                  Y                   Z               Mass
    ------------   -----------------  -----------------  -----------------  -----------------
         O           -1.465906468594     0.687378603022     0.011645736004    15.994914619570
         N            0.855467531406     0.514953603022    -0.032235263996    14.003074004430
         N            1.880933531406    -0.373552396978    -0.018299263996    14.003074004430
         C           -0.438272968594    -0.040354896978     0.004191636004    12.000000000000
         C           -0.131794468594    -1.467105396978     0.022309736004    12.000000000000
         C            1.115533531406     1.939253603022     0.017916736004    12.000000000000
         C            1.271733531406    -1.572618396978     0.007421736004    12.000000000000
         C           -2.684939468594    -0.060927396978    -0.013097263996    12.000000000000
         H           -0.861588468594    -2.262874396978     0.035225736004     1.007825032230
         H            1.166679531406     2.289578603022     1.052169736004     1.007825032230
         H            2.070056531406     2.112611603022    -0.477384263996     1.007825032230
         H            0.314728531406     2.462525603022    -0.505307263996     1.007825032230
         H            1.876680531406    -2.470349396978     0.007317736004     1.007825032230
         H           -3.484809468594     0.678060603022    -0.012696263996     1.007825032230
         H           -2.763502468594    -0.698246396978     0.873179736004     1.007825032230
         H           -2.741730468594    -0.676120396978    -0.916488263996     1.007825032230

  Basis Set: AUG-CC-PVTZ
    Blend: AUG-CC-PVTZ
  Basis Set: (AUG-CC-PVTZ AUX)
    Blend: AUG-CC-PVTZ-JKFIT
	 Reference Energy          =    -377.8269624446217563 [Eh]
	 Singles Energy            =      -0.0000000000000000 [Eh]
	 Same-Spin Energy          =      -0.3974943930564452 [Eh]
	 Opposite-Spin Energy      =      -1.2404810493537641 [Eh]
	 Correlation Energy        =      -1.6379754424102093 [Eh]
	 Total Energy              =    -379.4649378870319651 [Eh]

	 ================> DF-SCS-MP2 Energies <==================
	-----------------------------------------------------------
	 SCS Same-Spin Scale       =       0.3333333333333333 [-]
	 SCS Opposite-Spin Scale   =       1.2000000000000000 [-]
	 SCS Same-Spin Energy      =      -0.1324981310188151 [Eh]
	 SCS Opposite-Spin Energy  =      -1.4885772592245170 [Eh]
	 SCS Correlation Energy    =      -1.6210753902433321 [Eh]
	 SCS Total Energy          =    -379.4480378348650902 [Eh]
	-----------------------------------------------------------

  Dipole Moment: [D]
     X:    -3.6398      Y:     0.8981      Z:     0.0039     Total:     3.7490

*** Psi4 exiting successfully. Buy a developer a beer!
