                               Psi4 1.3.2 release

  ==> Input File <==

--------------------------------------------------------------------------
#psi4
#
memory 32 gb

molecule  {
0 1
  O       -1.4373610     0.6812660     0.0112400
  N        0.8840130     0.5088410    -0.0326410
  N        1.9094790    -0.3796650    -0.0187050
  C       -0.2520894     0.0159567     0.0062699
  C       -0.1032490    -1.4732180     0.0219040
  C        1.1440790     1.9331410     0.0175110
  C        1.3002790    -1.5787310     0.0070160
  C       -2.6563940    -0.0670400    -0.0135030
  H       -0.8330430    -2.2689870     0.0348200
  H        1.1952250     2.2834660     1.0517640
  H        2.0986020     2.1064990    -0.4777900
  H        0.3432740     2.4564130    -0.5057130
  H        1.9052260    -2.4764620     0.0069120
  H       -3.4562640     0.6719480    -0.0131020
  H       -2.7349570    -0.7043590     0.8727740
  H       -2.7131850    -0.6822330    -0.9168940
units angstrom
no_reorient  #important for SAPT in psi4, default
symmetry c1  #important for SAPT in psi4, default
}

set PROPERTIES_ORIGIN ["COM"]
properties('MP2/aug-cc-pvtz', properties = ['dipole'])
--------------------------------------------------------------------------

    Molecular point group: c1
  Charge       = 0
  Multiplicity = 1
  Basis Set: AUG-CC-PVTZ
    Blend: AUG-CC-PVTZ
  Basis Set: (AUG-CC-PVTZ AUX)
    Blend: AUG-CC-PVTZ-JKFIT

    Orbital Energies [Eh]
    ---------------------

    Doubly Occupied:

       1A    -20.605777     2A    -15.640660     3A    -15.560551
       4A    -11.338286     5A    -11.299966     6A    -11.271354
       7A    -11.252629     8A    -11.213178     9A     -1.440721
      10A     -1.377750    11A     -1.133774    12A     -1.042583
      13A     -0.959503    14A     -0.950418    15A     -0.814221
      16A     -0.766567    17A     -0.730807    18A     -0.690529
      19A     -0.645630    20A     -0.640797    21A     -0.620971
      22A     -0.588732    23A     -0.584555    24A     -0.553250
      25A     -0.551306    26A     -0.500849    27A     -0.498169
      28A     -0.445145    29A     -0.363062    30A     -0.306311

  @DF-RHF Final Energy:  -377.82395178070499

   => Energetics <=

    Nuclear Repulsion Energy =            378.3602900389550996
    One-Electron Energy =               -1263.5923833724784799
    Two-Electron Energy =                 507.4081415528183925
    Total Energy =                       -377.8239517807049879
  Basis Set: (AUG-CC-PVTZ AUX)
    Blend: AUG-CC-PVTZ-RI
    Molecular point group: c1

    Geometry (in Angstrom), charge = 0, multiplicity = 1:

       Center              X                  Y                   Z               Mass
    ------------   -----------------  -----------------  -----------------  -----------------
         O           -1.482786670001     0.680694095477     0.011379744341    15.994914619570
         N            0.838587329999     0.508269095477    -0.032501255659    14.003074004430
         N            1.864053329999    -0.380236904523    -0.018565255659    14.003074004430
         C           -0.297515070001     0.015384795477     0.006409644341    12.000000000000
         C           -0.148674670001    -1.473789904523     0.022043744341    12.000000000000
         C            1.098653329999     1.932569095477     0.017650744341    12.000000000000
         C            1.254853329999    -1.579302904523     0.007155744341    12.000000000000
         C           -2.701819670001    -0.067611904523    -0.013363255659    12.000000000000
         H           -0.878468670001    -2.269558904523     0.034959744341     1.007825032230
         H            1.149799329999     2.282894095477     1.051903744341     1.007825032230
         H            2.053176329999     2.105927095477    -0.477650255659     1.007825032230
         H            0.297848329999     2.455841095477    -0.505573255659     1.007825032230
         H            1.859800329999    -2.477033904523     0.007051744341     1.007825032230
         H           -3.501689670001     0.671376095477    -0.012962255659     1.007825032230
         H           -2.780382670001    -0.704930904523     0.872913744341     1.007825032230
         H           -2.758610670001    -0.682804904523    -0.916754255659     1.007825032230

  Basis Set: AUG-CC-PVTZ
    Blend: AUG-CC-PVTZ
  Basis Set: (AUG-CC-PVTZ AUX)
    Blend: AUG-CC-PVTZ-JKFIT
	 Reference Energy          =    -377.8239517807049879 [Eh]
	 Singles Energy            =      -0.0000000000000000 [Eh]
	 Same-Spin Energy          =      -0.3949183154778970 [Eh]
	 Opposite-Spin Energy      =      -1.2363081697388469 [Eh]
	 Correlation Energy        =      -1.6312264852167440 [Eh]
	 Total Energy              =    -379.4551782659217452 [Eh]

	 ================> DF-SCS-MP2 Energies <==================
	-----------------------------------------------------------
	 SCS Same-Spin Scale       =       0.3333333333333333 [-]
	 SCS Opposite-Spin Scale   =       1.2000000000000000 [-]
	 SCS Same-Spin Energy      =      -0.1316394384926323 [Eh]
	 SCS Opposite-Spin Energy  =      -1.4835698036866163 [Eh]
	 SCS Correlation Energy    =      -1.6152092421792485 [Eh]
	 SCS Total Energy          =    -379.4391610228842637 [Eh]
	-----------------------------------------------------------

  Dipole Moment: [D]
     X:    -2.9122      Y:     1.0391      Z:    -0.0042     Total:     3.0920

*** Psi4 exiting successfully. Buy a developer a beer!
