                               Psi4 1.3.2 release

  ==> Input File <==

--------------------------------------------------------------------------
#psi4
#
memory 32 gb

molecule  {
0 1
  O       -1.4373610     0.6812660     0.0112400
  N        0.8840130     0.5088410    -0.0326410
  N        1.9094790    -0.3796650    -0.0187050
  C       -0.4163036    -0.2158683     0.0002063
  C       -0.1032490    -1.4732180     0.0219040
  C        1.1440790     1.9331410     0.0175110
  C        1.3002790    -1.5787310     0.0070160
  C       -2.6563940    -0.0670400    -0.0135030
  H       -0.8330430    -2.2689870     0.0348200
  H        1.1952250     2.2834660     1.0517640
  H        2.0986020     2.1064990    -0.4777900
  H        0.3432740     2.4564130    -0.5057130
  H        1.9052260    -2.4764620     0.0069120
  H       -3.4562640     0.6719480    -0.0131020
  H       -2.7349570    -0.7043590     0.8727740
  H       -2.7131850    -0.6822330    -0.9168940
units angstrom
no_reorient  #important for SAPT in psi4, default
symmetry c1  #important for SAPT in psi4, default
}

set PROPERTIES_ORIGIN ["COM"]
properties('MP2/aug-cc-pvtz', properties = ['dipole'])
--------------------------------------------------------------------------

    Molecular point group: c1
  Charge       = 0
  Multiplicity = 1
  Basis Set: AUG-CC-PVTZ
    Blend: AUG-CC-PVTZ
  Basis Set: (AUG-CC-PVTZ AUX)
    Blend: AUG-CC-PVTZ-JKFIT

    Orbital Energies [Eh]
    ---------------------

    Doubly Occupied:

       1A    -20.614888     2A    -15.613426     3A    -15.586085
       4A    -11.333257     5A    -11.298306     6A    -11.256711
       7A    -11.249884     8A    -11.217640     9A     -1.439151
      10A     -1.338403    11A     -1.103576    12A     -1.061015
      13A     -0.967268    14A     -0.917780    15A     -0.793858
      16A     -0.774694    17A     -0.724459    18A     -0.681468
      19A     -0.644690    20A     -0.632010    21A     -0.623211
      22A     -0.593890    23A     -0.560037    24A     -0.542563
      25A     -0.539371    26A     -0.531664    27A     -0.501797
      28A     -0.447998    29A     -0.360780    30A     -0.315255

  @DF-RHF Final Energy:  -377.81446457448857

   => Energetics <=

    Nuclear Repulsion Energy =            376.6963601282874947
    One-Electron Energy =               -1260.4913797777735454
    Two-Electron Energy =                 505.9805550749974259
    Total Energy =                       -377.8144645744885679
  Basis Set: (AUG-CC-PVTZ AUX)
    Blend: AUG-CC-PVTZ-RI
    Molecular point group: c1

    Geometry (in Angstrom), charge = 0, multiplicity = 1:

       Center              X                  Y                   Z               Mass
    ------------   -----------------  -----------------  -----------------  -----------------
         O           -1.465202286721     0.705518377750     0.012029046694    15.994914619570
         N            0.856171713279     0.533093377750    -0.031851953306    14.003074004430
         N            1.881637713279    -0.355412622250    -0.017915953306    14.003074004430
         C           -0.444144886721    -0.191615922250     0.000995346694    12.000000000000
         C           -0.131090286721    -1.448965622250     0.022693046694    12.000000000000
         C            1.116237713279     1.957393377750     0.018300046694    12.000000000000
         C            1.272437713279    -1.554478622250     0.007805046694    12.000000000000
         C           -2.684235286721    -0.042787622250    -0.012713953306    12.000000000000
         H           -0.860884286721    -2.244734622250     0.035609046694     1.007825032230
         H            1.167383713279     2.307718377750     1.052553046694     1.007825032230
         H            2.070760713279     2.130751377750    -0.477000953306     1.007825032230
         H            0.315432713279     2.480665377750    -0.504923953306     1.007825032230
         H            1.877384713279    -2.452209622250     0.007701046694     1.007825032230
         H           -3.484105286721     0.696200377750    -0.012312953306     1.007825032230
         H           -2.762798286721    -0.680106622250     0.873563046694     1.007825032230
         H           -2.741026286721    -0.657980622250    -0.916104953306     1.007825032230

  Basis Set: AUG-CC-PVTZ
    Blend: AUG-CC-PVTZ
  Basis Set: (AUG-CC-PVTZ AUX)
    Blend: AUG-CC-PVTZ-JKFIT
	 Reference Energy          =    -377.8144645744885679 [Eh]
	 Singles Energy            =      -0.0000000000000000 [Eh]
	 Same-Spin Energy          =      -0.3978301568855349 [Eh]
	 Opposite-Spin Energy      =      -1.2438933150002751 [Eh]
	 Correlation Energy        =      -1.6417234718858100 [Eh]
	 Total Energy              =    -379.4561880463743933 [Eh]

	 ================> DF-SCS-MP2 Energies <==================
	-----------------------------------------------------------
	 SCS Same-Spin Scale       =       0.3333333333333333 [-]
	 SCS Opposite-Spin Scale   =       1.2000000000000000 [-]
	 SCS Same-Spin Energy      =      -0.1326100522951783 [Eh]
	 SCS Opposite-Spin Energy  =      -1.4926719780003301 [Eh]
	 SCS Correlation Energy    =      -1.6252820302955084 [Eh]
	 SCS Total Energy          =    -379.4397466047840908 [Eh]
	-----------------------------------------------------------

  Dipole Moment: [D]
     X:    -3.2328      Y:     0.3200      Z:     0.0103     Total:     3.2486

*** Psi4 exiting successfully. Buy a developer a beer!
