                               Psi4 1.3.2 release

  ==> Input File <==

--------------------------------------------------------------------------
#psi4
#
memory 32 gb

molecule  {
0 1
  O       -1.4373610     0.6812660     0.0112400
  N        0.8840130     0.5088410    -0.0326410
  N        1.9094790    -0.3796650    -0.0187050
  C       -0.3281200    -0.1042590     0.0031940
  C       -0.1032490    -1.4732180     0.0219040
  C        1.1440790     1.9331410     0.0175110
  C        1.3999920    -1.5862271     0.0059583
  C       -2.6563940    -0.0670400    -0.0135030
  H       -0.8330430    -2.2689870     0.0348200
  H        1.1952250     2.2834660     1.0517640
  H        2.0986020     2.1064990    -0.4777900
  H        0.3432740     2.4564130    -0.5057130
  H        1.9052260    -2.4764620     0.0069120
  H       -3.4562640     0.6719480    -0.0131020
  H       -2.7349570    -0.7043590     0.8727740
  H       -2.7131850    -0.6822330    -0.9168940
units angstrom
no_reorient  #important for SAPT in psi4, default
symmetry c1  #important for SAPT in psi4, default
}

set PROPERTIES_ORIGIN ["COM"]
properties('MP2/aug-cc-pvtz', properties = ['dipole'])
--------------------------------------------------------------------------

    Molecular point group: c1
  Charge       = 0
  Multiplicity = 1
  Basis Set: AUG-CC-PVTZ
    Blend: AUG-CC-PVTZ
  Basis Set: (AUG-CC-PVTZ AUX)
    Blend: AUG-CC-PVTZ-JKFIT

    Orbital Energies [Eh]
    ---------------------

    Doubly Occupied:

       1A    -20.608620     2A    -15.625334     3A    -15.579110
       4A    -11.334638     5A    -11.296440     6A    -11.264036
       7A    -11.255817     8A    -11.218237     9A     -1.435606
      10A     -1.356685    11A     -1.120116    12A     -1.041383
      13A     -0.959508    14A     -0.933582    15A     -0.812916
      16A     -0.766640    17A     -0.728586    18A     -0.680518
      19A     -0.648135    20A     -0.632742    21A     -0.622593
      22A     -0.595039    23A     -0.576152    24A     -0.551165
      25A     -0.544105    26A     -0.524113    27A     -0.501219
      28A     -0.436264    29A     -0.344296    30A     -0.324555

  @DF-RHF Final Energy:  -377.83635383116467

   => Energetics <=

    Nuclear Repulsion Energy =            376.3747115201909992
    One-Electron Energy =               -1259.7858369567913996
    Two-Electron Energy =                 505.5747716054357284
    Total Energy =                       -377.8363538311646721
  Basis Set: (AUG-CC-PVTZ AUX)
    Blend: AUG-CC-PVTZ-RI
    Molecular point group: c1

    Geometry (in Angstrom), charge = 0, multiplicity = 1:

       Center              X                  Y                   Z               Mass
    ------------   -----------------  -----------------  -----------------  -----------------
         O           -1.485322628515     0.694369729135     0.011822378454    15.994914619570
         N            0.836051371485     0.521944729135    -0.032058621546    14.003074004430
         N            1.861517371485    -0.366561270865    -0.018122621546    14.003074004430
         C           -0.376081628515    -0.091155270865     0.003776378454    12.000000000000
         C           -0.151210628515    -1.460114270865     0.022486378454    12.000000000000
         C            1.096117371485     1.946244729135     0.018093378454    12.000000000000
         C            1.352030371485    -1.573123370865     0.006540678454    12.000000000000
         C           -2.704355628515    -0.053936270865    -0.012920621546    12.000000000000
         H           -0.881004628515    -2.255883270865     0.035402378454     1.007825032230
         H            1.147263371485     2.296569729135     1.052346378454     1.007825032230
         H            2.050640371485     2.119602729135    -0.477207621546     1.007825032230
         H            0.295312371485     2.469516729135    -0.505130621546     1.007825032230
         H            1.857264371485    -2.463358270865     0.007494378454     1.007825032230
         H           -3.504225628515     0.685051729135    -0.012519621546     1.007825032230
         H           -2.782918628515    -0.691255270865     0.873356378454     1.007825032230
         H           -2.761146628515    -0.669129270865    -0.916311621546     1.007825032230

  Basis Set: AUG-CC-PVTZ
    Blend: AUG-CC-PVTZ
  Basis Set: (AUG-CC-PVTZ AUX)
    Blend: AUG-CC-PVTZ-JKFIT
	 Reference Energy          =    -377.8363538311646721 [Eh]
	 Singles Energy            =      -0.0000000000000000 [Eh]
	 Same-Spin Energy          =      -0.3947364556295733 [Eh]
	 Opposite-Spin Energy      =      -1.2378553653522961 [Eh]
	 Correlation Energy        =      -1.6325918209818693 [Eh]
	 Total Energy              =    -379.4689456521465445 [Eh]

	 ================> DF-SCS-MP2 Energies <==================
	-----------------------------------------------------------
	 SCS Same-Spin Scale       =       0.3333333333333333 [-]
	 SCS Opposite-Spin Scale   =       1.2000000000000000 [-]
	 SCS Same-Spin Energy      =      -0.1315788185431911 [Eh]
	 SCS Opposite-Spin Energy  =      -1.4854264384227553 [Eh]
	 SCS Correlation Energy    =      -1.6170052569659465 [Eh]
	 SCS Total Energy          =    -379.4533590881306395 [Eh]
	-----------------------------------------------------------

  Dipole Moment: [D]
     X:    -2.8063      Y:     0.5973      Z:    -0.0047     Total:     2.8692

*** Psi4 exiting successfully. Buy a developer a beer!
