                               Psi4 1.3.2 release

  ==> Input File <==

--------------------------------------------------------------------------
#psi4
#
memory 32 gb

molecule  {
0 1
  O       -1.4373610     0.6812660     0.0112400
  N        0.8840130     0.5088410    -0.0326410
  N        1.9094790    -0.3796650    -0.0187050
  C       -0.3281200    -0.1042590     0.0031940
  C       -0.1032490    -1.4732180     0.0219040
  C        1.1440790     1.9331410     0.0175110
  C        1.3002790    -1.5787310     0.0070160
  C       -2.6563940    -0.0670400    -0.0135030
  H       -0.9682124    -2.4163760     0.0372122
  H        1.1952250     2.2834660     1.0517640
  H        2.0986020     2.1064990    -0.4777900
  H        0.3432740     2.4564130    -0.5057130
  H        1.9052260    -2.4764620     0.0069120
  H       -3.4562640     0.6719480    -0.0131020
  H       -2.7349570    -0.7043590     0.8727740
  H       -2.7131850    -0.6822330    -0.9168940
units angstrom
no_reorient  #important for SAPT in psi4, default
symmetry c1  #important for SAPT in psi4, default
}

set PROPERTIES_ORIGIN ["COM"]
properties('MP2/aug-cc-pvtz', properties = ['dipole'])
--------------------------------------------------------------------------

    Molecular point group: c1
  Charge       = 0
  Multiplicity = 1
  Basis Set: AUG-CC-PVTZ
    Blend: AUG-CC-PVTZ
  Basis Set: (AUG-CC-PVTZ AUX)
    Blend: AUG-CC-PVTZ-JKFIT

    Orbital Energies [Eh]
    ---------------------

    Doubly Occupied:

       1A    -20.609318     2A    -15.629895     3A    -15.575335
       4A    -11.337542     5A    -11.297202     6A    -11.264961
       7A    -11.254296     8A    -11.236611     9A     -1.437076
      10A     -1.357752    11A     -1.114961    12A     -1.048397
      13A     -0.961974    14A     -0.933489    15A     -0.800596
      16A     -0.769613    17A     -0.720293    18A     -0.682205
      19A     -0.638597    20A     -0.633486    21A     -0.610562
      22A     -0.591491    23A     -0.566423    24A     -0.546527
      25A     -0.541337    26A     -0.516688    27A     -0.501141
      28A     -0.448198    29A     -0.350994    30A     -0.322116

  @DF-RHF Final Energy:  -377.82073149820434

   => Energetics <=

    Nuclear Repulsion Energy =            376.5824374419455012
    One-Electron Energy =               -1260.2081869683499917
    Two-Electron Energy =                 505.8050180282000952
    Total Energy =                       -377.8207314982043385
  Basis Set: (AUG-CC-PVTZ AUX)
    Blend: AUG-CC-PVTZ-RI
    Molecular point group: c1

    Geometry (in Angstrom), charge = 0, multiplicity = 1:

       Center              X                  Y                   Z               Mass
    ------------   -----------------  -----------------  -----------------  -----------------
         O           -1.473429539618     0.694892549130     0.011687603999    15.994914619570
         N            0.847944460382     0.522467549130    -0.032193396001    14.003074004430
         N            1.873410460382    -0.366038450870    -0.018257396001    14.003074004430
         C           -0.364188539618    -0.090632450870     0.003641603999    12.000000000000
         C           -0.139317539618    -1.459591450870     0.022351603999    12.000000000000
         C            1.108010460382     1.946767549130     0.017958603999    12.000000000000
         C            1.264210460382    -1.565104450870     0.007463603999    12.000000000000
         C           -2.692462539618    -0.053413450870    -0.013055396001    12.000000000000
         H           -1.004280939618    -2.402749450870     0.037659803999     1.007825032230
         H            1.159156460382     2.297092549130     1.052211603999     1.007825032230
         H            2.062533460382     2.120125549130    -0.477342396001     1.007825032230
         H            0.307205460382     2.470039549130    -0.505265396001     1.007825032230
         H            1.869157460382    -2.462835450870     0.007359603999     1.007825032230
         H           -3.492332539618     0.685574549130    -0.012654396001     1.007825032230
         H           -2.771025539618    -0.690732450870     0.873221603999     1.007825032230
         H           -2.749253539618    -0.668606450870    -0.916446396001     1.007825032230

  Basis Set: AUG-CC-PVTZ
    Blend: AUG-CC-PVTZ
  Basis Set: (AUG-CC-PVTZ AUX)
    Blend: AUG-CC-PVTZ-JKFIT
	 Reference Energy          =    -377.8207314982043385 [Eh]
	 Singles Energy            =      -0.0000000000000000 [Eh]
	 Same-Spin Energy          =      -0.3969224912648986 [Eh]
	 Opposite-Spin Energy      =      -1.2416081776243710 [Eh]
	 Correlation Energy        =      -1.6385306688892696 [Eh]
	 Total Energy              =    -379.4592621670935841 [Eh]

	 ================> DF-SCS-MP2 Energies <==================
	-----------------------------------------------------------
	 SCS Same-Spin Scale       =       0.3333333333333333 [-]
	 SCS Opposite-Spin Scale   =       1.2000000000000000 [-]
	 SCS Same-Spin Energy      =      -0.1323074970882995 [Eh]
	 SCS Opposite-Spin Energy  =      -1.4899298131492451 [Eh]
	 SCS Correlation Energy    =      -1.6222373102375447 [Eh]
	 SCS Total Energy          =    -379.4429688084418899 [Eh]
	-----------------------------------------------------------

  Dipole Moment: [D]
     X:    -2.9598      Y:     0.6632      Z:     0.0024     Total:     3.0332

*** Psi4 exiting successfully. Buy a developer a beer!
