                               Psi4 1.3.2 release

  ==> Input File <==

--------------------------------------------------------------------------
#psi4
#
memory 32 gb

molecule  {
0 1
  O       -1.4373610     0.6812660     0.0112400
  N        0.8840130     0.5088410    -0.0326410
  N        1.9094790    -0.3796650    -0.0187050
  C       -0.3281200    -0.1042590     0.0031940
  C       -0.1032490    -1.4732180     0.0219040
  C        1.1440790     1.9331410     0.0175110
  C        1.3002790    -1.5787310     0.0070160
  C       -2.6563940    -0.0670400    -0.0135030
  H       -0.8330430    -2.2689870     0.0348200
  H        1.1952250     2.2834660     1.0517640
  H        2.0986020     2.1064990    -0.4777900
  H        0.3432740     2.4564130    -0.5057130
  H        1.7934611    -2.3106048     0.0069312
  H       -3.4562640     0.6719480    -0.0131020
  H       -2.7349570    -0.7043590     0.8727740
  H       -2.7131850    -0.6822330    -0.9168940
units angstrom
no_reorient  #important for SAPT in psi4, default
symmetry c1  #important for SAPT in psi4, default
}

set PROPERTIES_ORIGIN ["COM"]
properties('MP2/aug-cc-pvtz', properties = ['dipole'])
--------------------------------------------------------------------------

    Molecular point group: c1
  Charge       = 0
  Multiplicity = 1
  Basis Set: AUG-CC-PVTZ
    Blend: AUG-CC-PVTZ
  Basis Set: (AUG-CC-PVTZ AUX)
    Blend: AUG-CC-PVTZ-JKFIT

    Orbital Energies [Eh]
    ---------------------

    Doubly Occupied:

       1A    -20.608578     2A    -15.627984     3A    -15.573361
       4A    -11.334629     5A    -11.297689     6A    -11.263762
       7A    -11.229017     8A    -11.214468     9A     -1.436213
      10A     -1.355689    11A     -1.117852    12A     -1.048666
      13A     -0.964206    14A     -0.943456    15A     -0.827371
      16A     -0.771552    17A     -0.737822    18A     -0.681445
      19A     -0.652385    20A     -0.632532    21A     -0.620421
      22A     -0.603290    23A     -0.585973    24A     -0.548474
      25A     -0.545439    26A     -0.525082    27A     -0.500512
      28A     -0.449049    29A     -0.349318    30A     -0.320134

  @DF-RHF Final Energy:  -377.80769486084205

   => Energetics <=

    Nuclear Repulsion Energy =            378.6824757826418590
    One-Electron Energy =               -1264.2475992382046570
    Two-Electron Energy =                 507.7574285947207500
    Total Energy =                       -377.8076948608420480
  Basis Set: (AUG-CC-PVTZ AUX)
    Blend: AUG-CC-PVTZ-RI
    Molecular point group: c1

    Geometry (in Angstrom), charge = 0, multiplicity = 1:

       Center              X                  Y                   Z               Mass
    ------------   -----------------  -----------------  -----------------  -----------------
         O           -1.473640023912     0.692075423994     0.011708945162    15.994914619570
         N            0.847733976088     0.519650423994    -0.032172054838    14.003074004430
         N            1.873199976088    -0.368855576006    -0.018236054838    14.003074004430
         C           -0.364399023912    -0.093449576006     0.003662945162    12.000000000000
         C           -0.139528023912    -1.462408576006     0.022372945162    12.000000000000
         C            1.107799976088     1.943950423994     0.017979945162    12.000000000000
         C            1.263999976088    -1.567921576006     0.007484945162    12.000000000000
         C           -2.692673023912    -0.056230576006    -0.013034054838    12.000000000000
         H           -0.869322023912    -2.258177576006     0.035288945162     1.007825032230
         H            1.158945976088     2.294275423994     1.052232945162     1.007825032230
         H            2.062322976088     2.117308423994    -0.477321054838     1.007825032230
         H            0.306994976088     2.467222423994    -0.505244054838     1.007825032230
         H            1.757182076088    -2.299795376006     0.007400145162     1.007825032230
         H           -3.492543023912     0.682757423994    -0.012633054838     1.007825032230
         H           -2.771236023912    -0.693549576006     0.873242945162     1.007825032230
         H           -2.749464023912    -0.671423576006    -0.916425054838     1.007825032230

  Basis Set: AUG-CC-PVTZ
    Blend: AUG-CC-PVTZ
  Basis Set: (AUG-CC-PVTZ AUX)
    Blend: AUG-CC-PVTZ-JKFIT
	 Reference Energy          =    -377.8076948608420480 [Eh]
	 Singles Energy            =      -0.0000000000000000 [Eh]
	 Same-Spin Energy          =      -0.3963456111667999 [Eh]
	 Opposite-Spin Energy      =      -1.2393284912079285 [Eh]
	 Correlation Energy        =      -1.6356741023747285 [Eh]
	 Total Energy              =    -379.4433689632167557 [Eh]

	 ================> DF-SCS-MP2 Energies <==================
	-----------------------------------------------------------
	 SCS Same-Spin Scale       =       0.3333333333333333 [-]
	 SCS Opposite-Spin Scale   =       1.2000000000000000 [-]
	 SCS Same-Spin Energy      =      -0.1321152037222666 [Eh]
	 SCS Opposite-Spin Energy  =      -1.4871941894495142 [Eh]
	 SCS Correlation Energy    =      -1.6193093931717808 [Eh]
	 SCS Total Energy          =    -379.4270042540138093 [Eh]
	-----------------------------------------------------------

  Dipole Moment: [D]
     X:    -2.9952      Y:     0.6361      Z:     0.0035     Total:     3.0620

*** Psi4 exiting successfully. Buy a developer a beer!
