                               Psi4 1.3.2 release

  ==> Input File <==

--------------------------------------------------------------------------
#psi4
#
memory 32 gb

molecule  {
0 1
  O       -1.4092863     0.7194906     0.0099685
  N        0.8840130     0.5088410    -0.0326410
  N        1.9094790    -0.3796650    -0.0187050
  C       -0.3281200    -0.1042590     0.0031940
  C       -0.1032490    -1.4732180     0.0219040
  C        1.1440790     1.9331410     0.0175110
  C        1.3002790    -1.5787310     0.0070160
  C       -2.6563940    -0.0670400    -0.0135030
  H       -0.8330430    -2.2689870     0.0348200
  H        1.1952250     2.2834660     1.0517640
  H        2.0986020     2.1064990    -0.4777900
  H        0.3432740     2.4564130    -0.5057130
  H        1.9052260    -2.4764620     0.0069120
  H       -3.4562640     0.6719480    -0.0131020
  H       -2.7349570    -0.7043590     0.8727740
  H       -2.7131850    -0.6822330    -0.9168940
units angstrom
no_reorient  #important for SAPT in psi4, default
symmetry c1  #important for SAPT in psi4, default
}

set PROPERTIES_ORIGIN ["COM"]
properties('MP2/aug-cc-pvtz', properties = ['dipole'])
--------------------------------------------------------------------------

    Molecular point group: c1
  Charge       = 0
  Multiplicity = 1
  Basis Set: AUG-CC-PVTZ
    Blend: AUG-CC-PVTZ
  Basis Set: (AUG-CC-PVTZ AUX)
    Blend: AUG-CC-PVTZ-JKFIT

    Orbital Energies [Eh]
    ---------------------

    Doubly Occupied:

       1A    -20.610621     2A    -15.625871     3A    -15.572518
       4A    -11.333921     5A    -11.302851     6A    -11.262671
       7A    -11.251377     8A    -11.215885     9A     -1.429210
      10A     -1.352510    11A     -1.112426    12A     -1.046195
      13A     -0.964554    14A     -0.933402    15A     -0.803571
      16A     -0.767734    17A     -0.723556    18A     -0.677449
      19A     -0.638527    20A     -0.630146    21A     -0.618472
      22A     -0.591937    23A     -0.575816    24A     -0.546534
      25A     -0.544005    26A     -0.529336    27A     -0.504947
      28A     -0.446510    29A     -0.348784    30A     -0.319760

  @DF-RHF Final Energy:  -377.84015548793354

   => Energetics <=

    Nuclear Repulsion Energy =            377.1199485235440534
    One-Electron Energy =               -1261.3580187598558950
    Two-Electron Energy =                 506.3979147483782981
    Total Energy =                       -377.8401554879335436
  Basis Set: (AUG-CC-PVTZ AUX)
    Blend: AUG-CC-PVTZ-RI
    Molecular point group: c1

    Geometry (in Angstrom), charge = 0, multiplicity = 1:

       Center              X                  Y                   Z               Mass
    ------------   -----------------  -----------------  -----------------  -----------------
         O           -1.450577581043     0.726335811474     0.010619099800    15.994914619570
         N            0.842721718957     0.515686211474    -0.031990400200    14.003074004430
         N            1.868187718957    -0.372819788526    -0.018054400200    14.003074004430
         C           -0.369411281043    -0.097413788526     0.003844599800    12.000000000000
         C           -0.144540281043    -1.466372788526     0.022554599800    12.000000000000
         C            1.102787718957     1.939986211474     0.018161599800    12.000000000000
         C            1.258987718957    -1.571885788526     0.007666599800    12.000000000000
         C           -2.697685281043    -0.060194788526    -0.012852400200    12.000000000000
         H           -0.874334281043    -2.262141788526     0.035470599800     1.007825032230
         H            1.153933718957     2.290311211474     1.052414599800     1.007825032230
         H            2.057310718957     2.113344211474    -0.477139400200     1.007825032230
         H            0.301982718957     2.463258211474    -0.505062400200     1.007825032230
         H            1.863934718957    -2.469616788526     0.007562599800     1.007825032230
         H           -3.497555281043     0.678793211474    -0.012451400200     1.007825032230
         H           -2.776248281043    -0.697513788526     0.873424599800     1.007825032230
         H           -2.754476281043    -0.675387788526    -0.916243400200     1.007825032230

  Basis Set: AUG-CC-PVTZ
    Blend: AUG-CC-PVTZ
  Basis Set: (AUG-CC-PVTZ AUX)
    Blend: AUG-CC-PVTZ-JKFIT
	 Reference Energy          =    -377.8401554879335436 [Eh]
	 Singles Energy            =      -0.0000000000000000 [Eh]
	 Same-Spin Energy          =      -0.3968348507619098 [Eh]
	 Opposite-Spin Energy      =      -1.2410606210748250 [Eh]
	 Correlation Energy        =      -1.6378954718367349 [Eh]
	 Total Energy              =    -379.4780509597702576 [Eh]

	 ================> DF-SCS-MP2 Energies <==================
	-----------------------------------------------------------
	 SCS Same-Spin Scale       =       0.3333333333333333 [-]
	 SCS Opposite-Spin Scale   =       1.2000000000000000 [-]
	 SCS Same-Spin Energy      =      -0.1322782835873033 [Eh]
	 SCS Opposite-Spin Energy  =      -1.4892727452897898 [Eh]
	 SCS Correlation Energy    =      -1.6215510288770931 [Eh]
	 SCS Total Energy          =    -379.4617065168106365 [Eh]
	-----------------------------------------------------------

  Dipole Moment: [D]
     X:    -3.1499      Y:     0.5672      Z:     0.0034     Total:     3.2006

*** Psi4 exiting successfully. Buy a developer a beer!
