                               Psi4 1.3.2 release

  ==> Input File <==

--------------------------------------------------------------------------
#psi4
#
memory 32 gb

molecule  {
0 1
  O       -1.4373610     0.6812660     0.0112400
  N        0.8136045     0.6320815    -0.0234521
  N        1.9094790    -0.3796650    -0.0187050
  C       -0.3281200    -0.1042590     0.0031940
  C       -0.1032490    -1.4732180     0.0219040
  C        1.1440790     1.9331410     0.0175110
  C        1.3002790    -1.5787310     0.0070160
  C       -2.6563940    -0.0670400    -0.0135030
  H       -0.8330430    -2.2689870     0.0348200
  H        1.1952250     2.2834660     1.0517640
  H        2.0986020     2.1064990    -0.4777900
  H        0.3432740     2.4564130    -0.5057130
  H        1.9052260    -2.4764620     0.0069120
  H       -3.4562640     0.6719480    -0.0131020
  H       -2.7349570    -0.7043590     0.8727740
  H       -2.7131850    -0.6822330    -0.9168940
units angstrom
no_reorient  #important for SAPT in psi4, default
symmetry c1  #important for SAPT in psi4, default
}

set PROPERTIES_ORIGIN ["COM"]
properties('MP2/aug-cc-pvtz', properties = ['dipole'])
--------------------------------------------------------------------------

    Molecular point group: c1
  Charge       = 0
  Multiplicity = 1
  Basis Set: AUG-CC-PVTZ
    Blend: AUG-CC-PVTZ
  Basis Set: (AUG-CC-PVTZ AUX)
    Blend: AUG-CC-PVTZ-JKFIT

    Orbital Energies [Eh]
    ---------------------

    Doubly Occupied:

       1A    -20.609143     2A    -15.618566     3A    -15.576937
       4A    -11.348827     5A    -11.297306     6A    -11.266213
       7A    -11.253529     8A    -11.218540     9A     -1.438893
      10A     -1.323628    11A     -1.141176    12A     -1.041622
      13A     -0.968448    14A     -0.932504    15A     -0.798037
      16A     -0.771362    17A     -0.725102    18A     -0.683156
      19A     -0.648171    20A     -0.634808    21A     -0.624530
      22A     -0.603125    23A     -0.594327    24A     -0.538047
      25A     -0.526724    26A     -0.523902    27A     -0.492268
      28A     -0.435532    29A     -0.354422    30A     -0.322455

  @DF-RHF Final Energy:  -377.81593906173708

   => Energetics <=

    Nuclear Repulsion Energy =            376.7099121511838575
    One-Electron Energy =               -1260.4291055506632802
    Two-Electron Energy =                 505.9032543377423394
    Total Energy =                       -377.8159390617370832
  Basis Set: (AUG-CC-PVTZ AUX)
    Blend: AUG-CC-PVTZ-RI
    Molecular point group: c1

    Geometry (in Angstrom), charge = 0, multiplicity = 1:

       Center              X                  Y                   Z               Mass
    ------------   -----------------  -----------------  -----------------  -----------------
         O           -1.465847168051     0.678167340287     0.010560905796    15.994914619570
         N            0.785118331949     0.628982840287    -0.024131194204    14.003074004430
         N            1.880992831949    -0.382763659713    -0.019384094204    14.003074004430
         C           -0.356606168051    -0.107357659713     0.002514905796    12.000000000000
         C           -0.131735168051    -1.476316659713     0.021224905796    12.000000000000
         C            1.115592831949     1.930042340287     0.016831905796    12.000000000000
         C            1.271792831949    -1.581829659713     0.006336905796    12.000000000000
         C           -2.684880168051    -0.070138659713    -0.014182094204    12.000000000000
         H           -0.861529168051    -2.272085659713     0.034140905796     1.007825032230
         H            1.166738831949     2.280367340287     1.051084905796     1.007825032230
         H            2.070115831949     2.103400340287    -0.478469094204     1.007825032230
         H            0.314787831949     2.453314340287    -0.506392094204     1.007825032230
         H            1.876739831949    -2.479560659713     0.006232905796     1.007825032230
         H           -3.484750168051     0.668849340287    -0.013781094204     1.007825032230
         H           -2.763443168051    -0.707457659713     0.872094905796     1.007825032230
         H           -2.741671168051    -0.685331659713    -0.917573094204     1.007825032230

  Basis Set: AUG-CC-PVTZ
    Blend: AUG-CC-PVTZ
  Basis Set: (AUG-CC-PVTZ AUX)
    Blend: AUG-CC-PVTZ-JKFIT
	 Reference Energy          =    -377.8159390617370832 [Eh]
	 Singles Energy            =      -0.0000000000000000 [Eh]
	 Same-Spin Energy          =      -0.3970398217772214 [Eh]
	 Opposite-Spin Energy      =      -1.2430868420614720 [Eh]
	 Correlation Energy        =      -1.6401266638386933 [Eh]
	 Total Energy              =    -379.4560657255757974 [Eh]

	 ================> DF-SCS-MP2 Energies <==================
	-----------------------------------------------------------
	 SCS Same-Spin Scale       =       0.3333333333333333 [-]
	 SCS Opposite-Spin Scale   =       1.2000000000000000 [-]
	 SCS Same-Spin Energy      =      -0.1323466072590738 [Eh]
	 SCS Opposite-Spin Energy  =      -1.4917042104737663 [Eh]
	 SCS Correlation Energy    =      -1.6240508177328401 [Eh]
	 SCS Total Energy          =    -379.4399898794699197 [Eh]
	-----------------------------------------------------------

  Dipole Moment: [D]
     X:    -2.9701      Y:     0.2788      Z:    -0.0102     Total:     2.9832

*** Psi4 exiting successfully. Buy a developer a beer!
