                               Psi4 1.3.2 release

  ==> Input File <==

--------------------------------------------------------------------------
#psi4
#
memory 32 gb

molecule  {
0 1
  O       -1.4373610     0.6812660     0.0112400
  N        0.8840130     0.5088410    -0.0326410
  N        1.9094790    -0.3796650    -0.0187050
  C       -0.3281200    -0.1042590     0.0031940
  C       -0.1032490    -1.4732180     0.0219040
  C        1.1440790     1.9331410     0.0175110
  C        1.3002790    -1.5787310     0.0070160
  C       -2.6563940    -0.0670400    -0.0135030
  H       -0.7654583    -2.1952925     0.0336239
  H        1.1952250     2.2834660     1.0517640
  H        2.0986020     2.1064990    -0.4777900
  H        0.3432740     2.4564130    -0.5057130
  H        1.9052260    -2.4764620     0.0069120
  H       -3.4562640     0.6719480    -0.0131020
  H       -2.7349570    -0.7043590     0.8727740
  H       -2.7131850    -0.6822330    -0.9168940
units angstrom
no_reorient  #important for SAPT in psi4, default
symmetry c1  #important for SAPT in psi4, default
}

set PROPERTIES_ORIGIN ["COM"]
properties('MP2/aug-cc-pvtz', properties = ['dipole'])
--------------------------------------------------------------------------

    Molecular point group: c1
  Charge       = 0
  Multiplicity = 1
  Basis Set: AUG-CC-PVTZ
    Blend: AUG-CC-PVTZ
  Basis Set: (AUG-CC-PVTZ AUX)
    Blend: AUG-CC-PVTZ-JKFIT

    Orbital Energies [Eh]
    ---------------------

    Doubly Occupied:

       1A    -20.609208     2A    -15.627979     3A    -15.573197
       4A    -11.334907     5A    -11.298386     6A    -11.263870
       7A    -11.251424     8A    -11.204035     9A     -1.436782
      10A     -1.355866    11A     -1.113994    12A     -1.051410
      13A     -0.966436    14A     -0.934611    15A     -0.809900
      16A     -0.772644    17A     -0.731215    18A     -0.681932
      19A     -0.653168    20A     -0.632834    21A     -0.625840
      22A     -0.595056    23A     -0.580146    24A     -0.546492
      25A     -0.545173    26A     -0.525117    27A     -0.500995
      28A     -0.448192    29A     -0.349354    30A     -0.320463

  @DF-RHF Final Energy:  -377.83768330908401

   => Energetics <=

    Nuclear Repulsion Energy =            378.0299490930838147
    One-Electron Energy =               -1263.0540169215480546
    Two-Electron Energy =                 507.1863845193802263
    Total Energy =                       -377.8376833090840137
  Basis Set: (AUG-CC-PVTZ AUX)
    Blend: AUG-CC-PVTZ-RI
    Molecular point group: c1

    Geometry (in Angstrom), charge = 0, multiplicity = 1:

       Center              X                  Y                   Z               Mass
    ------------   -----------------  -----------------  -----------------  -----------------
         O           -1.475252973299     0.692904273183     0.011719874750    15.994914619570
         N            0.846121026701     0.520479273183    -0.032161125250    14.003074004430
         N            1.871587026701    -0.368026726817    -0.018225125250    14.003074004430
         C           -0.366011973299    -0.092620726817     0.003673874750    12.000000000000
         C           -0.141140973299    -1.461579726817     0.022383874750    12.000000000000
         C            1.106187026701     1.944779273183     0.017990874750    12.000000000000
         C            1.262387026701    -1.567092726817     0.007495874750    12.000000000000
         C           -2.694285973299    -0.055401726817    -0.013023125250    12.000000000000
         H           -0.803350273299    -2.183654226817     0.034103774750     1.007825032230
         H            1.157333026701     2.295104273183     1.052243874750     1.007825032230
         H            2.060710026701     2.118137273183    -0.477310125250     1.007825032230
         H            0.305382026701     2.468051273183    -0.505233125250     1.007825032230
         H            1.867334026701    -2.464823726817     0.007391874750     1.007825032230
         H           -3.494155973299     0.683586273183    -0.012622125250     1.007825032230
         H           -2.772848973299    -0.692720726817     0.873253874750     1.007825032230
         H           -2.751076973299    -0.670594726817    -0.916414125250     1.007825032230

  Basis Set: AUG-CC-PVTZ
    Blend: AUG-CC-PVTZ
  Basis Set: (AUG-CC-PVTZ AUX)
    Blend: AUG-CC-PVTZ-JKFIT
	 Reference Energy          =    -377.8376833090840137 [Eh]
	 Singles Energy            =      -0.0000000000000000 [Eh]
	 Same-Spin Energy          =      -0.3962664779014687 [Eh]
	 Opposite-Spin Energy      =      -1.2392126346172403 [Eh]
	 Correlation Energy        =      -1.6354791125187091 [Eh]
	 Total Energy              =    -379.4731624216027512 [Eh]

	 ================> DF-SCS-MP2 Energies <==================
	-----------------------------------------------------------
	 SCS Same-Spin Scale       =       0.3333333333333333 [-]
	 SCS Opposite-Spin Scale   =       1.2000000000000000 [-]
	 SCS Same-Spin Energy      =      -0.1320888259671562 [Eh]
	 SCS Opposite-Spin Energy  =      -1.4870551615406884 [Eh]
	 SCS Correlation Energy    =      -1.6191439875078446 [Eh]
	 SCS Total Energy          =    -379.4568272965918823 [Eh]
	-----------------------------------------------------------

  Dipole Moment: [D]
     X:    -3.0087      Y:     0.6488      Z:     0.0031     Total:     3.0779

*** Psi4 exiting successfully. Buy a developer a beer!
