                               Psi4 1.4a3.dev225

  ==> Input File <==

--------------------------------------------------------------------------
#psi4
#
memory 32 gb

molecule  {
0 1
  O       -1.4373610     0.6812660     0.0112400
  N        0.8840130     0.5088410    -0.0326410
  N        1.9094790    -0.3796650    -0.0187050
  C       -0.3281200    -0.1042590     0.0031940
  C       -0.1032490    -1.4732180     0.0219040
  C        1.1440790     1.9331410     0.0175110
  C        1.2912216    -1.5965584     0.0073984
  C       -2.6563940    -0.0670400    -0.0135030
  H       -0.8330430    -2.2689870     0.0348200
  H        1.1952250     2.2834660     1.0517640
  H        2.0986020     2.1064990    -0.4777900
  H        0.3432740     2.4564130    -0.5057130
  H        1.9052260    -2.4764620     0.0069120
  H       -3.4562640     0.6719480    -0.0131020
  H       -2.7349570    -0.7043590     0.8727740
  H       -2.7131850    -0.6822330    -0.9168940
units angstrom
no_reorient  #important for SAPT in psi4, default
symmetry c1  #important for SAPT in psi4, default
}

set PROPERTIES_ORIGIN ["COM"]
properties('MP2/aug-cc-pvtz', properties = ['dipole'])
--------------------------------------------------------------------------

    Molecular point group: c1
  Charge       = 0
  Multiplicity = 1
  Basis Set: AUG-CC-PVTZ
    Blend: AUG-CC-PVTZ
  Basis Set: (AUG-CC-PVTZ AUX)
    Blend: AUG-CC-PVTZ-JKFIT

    Orbital Energies [Eh]
    ---------------------

    Doubly Occupied:

       1A    -20.609163     2A    -15.630042     3A    -15.574241
       4A    -11.335273     5A    -11.298126     6A    -11.264519
       7A    -11.252460     8A    -11.216268     9A     -1.436685
      10A     -1.353977    11A     -1.111226    12A     -1.049063
      13A     -0.964599    14A     -0.934531    15A     -0.805442
      16A     -0.770735    17A     -0.726965    18A     -0.681899
      19A     -0.645499    20A     -0.632703    21A     -0.619673
      22A     -0.594475    23A     -0.579701    24A     -0.545601
      25A     -0.544392    26A     -0.524129    27A     -0.500154
      28A     -0.447506    29A     -0.350818    30A     -0.317833

  @DF-RHF Final Energy:  -377.84172033227952

   => Energetics <=

    Nuclear Repulsion Energy =            377.2174710859837887
    One-Electron Energy =               -1261.4829855589355248
    Two-Electron Energy =                 506.4237941406722143
    Total Energy =                       -377.8417203322795217
  Basis Set: (AUG-CC-PVTZ AUX)
    Blend: AUG-CC-PVTZ-RI
    Molecular point group: c1

    Geometry (in Angstrom), charge = 0, multiplicity = 1:

       Center              X                  Y                   Z               Mass
    ------------   -----------------  -----------------  -----------------  -----------------
         O           -1.473675277658     0.695476025296     0.011668169680    15.994914619570
         N            0.847698722342     0.523051025296    -0.032212830320    14.003074004430
         N            1.873164722342    -0.365454974704    -0.018276830320    14.003074004430
         C           -0.364434277658    -0.090048974704     0.003622169680    12.000000000000
         C           -0.139563277658    -1.459007974704     0.022332169680    12.000000000000
         C            1.107764722342     1.947351025296     0.017939169680    12.000000000000
         C            1.254907322342    -1.582348374704     0.007826569680    12.000000000000
         C           -2.692708277658    -0.052829974704    -0.013074830320    12.000000000000
         H           -0.869357277658    -2.254776974704     0.035248169680     1.007825032230
         H            1.158910722342     2.297676025296     1.052192169680     1.007825032230
         H            2.062287722342     2.120709025296    -0.477361830320     1.007825032230
         H            0.306959722342     2.470623025296    -0.505284830320     1.007825032230
         H            1.868911722342    -2.462251974704     0.007340169680     1.007825032230
         H           -3.492578277658     0.686158025296    -0.012673830320     1.007825032230
         H           -2.771271277658    -0.690148974704     0.873202169680     1.007825032230
         H           -2.749499277658    -0.668022974704    -0.916465830320     1.007825032230

  Basis Set: AUG-CC-PVTZ
    Blend: AUG-CC-PVTZ
  Basis Set: (AUG-CC-PVTZ AUX)
    Blend: AUG-CC-PVTZ-JKFIT
	 Reference Energy          =    -377.8417203322795217 [Eh]
	 Singles Energy            =      -0.0000000000000000 [Eh]
	 Same-Spin Energy          =      -0.3970205896782119 [Eh]
	 Opposite-Spin Energy      =      -1.2406980856256546 [Eh]
	 Correlation Energy        =      -1.6377186753038666 [Eh]
	 Total Energy              =    -379.4794390075833803 [Eh]

	 ================> DF-SCS-MP2 Energies <==================
	-----------------------------------------------------------
	 SCS Same-Spin Scale       =       0.3333333333333333 [-]
	 SCS Opposite-Spin Scale   =       1.2000000000000000 [-]
	 SCS Same-Spin Energy      =      -0.1323401965594039 [Eh]
	 SCS Opposite-Spin Energy  =      -1.4888377027507855 [Eh]
	 SCS Correlation Energy    =      -1.6211778993101895 [Eh]
	 SCS Total Energy          =    -379.4628982315896906 [Eh]
	-----------------------------------------------------------

  Dipole Moment: [D]
     X:    -3.0153      Y:     0.6559      Z:     0.0042     Total:     3.0858

*** Psi4 exiting successfully. Buy a developer a beer!
