                               Psi4 1.3.2 release

  ==> Input File <==

--------------------------------------------------------------------------
#psi4
#
memory 32 gb

molecule  {
0 1
  O       -1.4373610     0.6812660     0.0112400
  N        0.8840130     0.5088410    -0.0326410
  N        1.9248279    -0.3616467    -0.0194813
  C       -0.3281200    -0.1042590     0.0031940
  C       -0.1032490    -1.4732180     0.0219040
  C        1.1440790     1.9331410     0.0175110
  C        1.3002790    -1.5787310     0.0070160
  C       -2.6563940    -0.0670400    -0.0135030
  H       -0.8330430    -2.2689870     0.0348200
  H        1.1952250     2.2834660     1.0517640
  H        2.0986020     2.1064990    -0.4777900
  H        0.3432740     2.4564130    -0.5057130
  H        1.9052260    -2.4764620     0.0069120
  H       -3.4562640     0.6719480    -0.0131020
  H       -2.7349570    -0.7043590     0.8727740
  H       -2.7131850    -0.6822330    -0.9168940
units angstrom
no_reorient  #important for SAPT in psi4, default
symmetry c1  #important for SAPT in psi4, default
}

set PROPERTIES_ORIGIN ["COM"]
properties('MP2/aug-cc-pvtz', properties = ['dipole'])
--------------------------------------------------------------------------

    Molecular point group: c1
  Charge       = 0
  Multiplicity = 1
  Basis Set: AUG-CC-PVTZ
    Blend: AUG-CC-PVTZ
  Basis Set: (AUG-CC-PVTZ AUX)
    Blend: AUG-CC-PVTZ-JKFIT

    Orbital Energies [Eh]
    ---------------------

    Doubly Occupied:

       1A    -20.609616     2A    -15.629595     3A    -15.576258
       4A    -11.336187     5A    -11.298556     6A    -11.263464
       7A    -11.255030     8A    -11.217634     9A     -1.437091
      10A     -1.354342    11A     -1.109093    12A     -1.051297
      13A     -0.964800    14A     -0.932656    15A     -0.805252
      16A     -0.770509    17A     -0.726172    18A     -0.682194
      19A     -0.645467    20A     -0.632728    21A     -0.619873
      22A     -0.593909    23A     -0.576201    24A     -0.545241
      25A     -0.543020    26A     -0.523904    27A     -0.500373
      28A     -0.451398    29A     -0.349595    30A     -0.319084

  @DF-RHF Final Energy:  -377.84086364702972

   => Energetics <=

    Nuclear Repulsion Energy =            377.0609715851393844
    One-Electron Energy =               -1261.1625932513761654
    Two-Electron Energy =                 506.2607580192070031
    Total Energy =                       -377.8408636470297211
  Basis Set: (AUG-CC-PVTZ AUX)
    Blend: AUG-CC-PVTZ-RI
    Molecular point group: c1

    Geometry (in Angstrom), charge = 0, multiplicity = 1:

       Center              X                  Y                   Z               Mass
    ------------   -----------------  -----------------  -----------------  -----------------
         O           -1.476563105650     0.691315529589     0.011806121501    15.994914619570
         N            0.844810894350     0.518890529589    -0.032074878499    14.003074004430
         N            1.885625794350    -0.351597170411    -0.018915178499    14.003074004430
         C           -0.367322105650    -0.094209470411     0.003760121501    12.000000000000
         C           -0.142451105650    -1.463168470411     0.022470121501    12.000000000000
         C            1.104876894350     1.943190529589     0.018077121501    12.000000000000
         C            1.261076894350    -1.568681470411     0.007582121501    12.000000000000
         C           -2.695596105650    -0.056990470411    -0.012936878499    12.000000000000
         H           -0.872245105650    -2.258937470411     0.035386121501     1.007825032230
         H            1.156022894350     2.293515529589     1.052330121501     1.007825032230
         H            2.059399894350     2.116548529589    -0.477223878499     1.007825032230
         H            0.304071894350     2.466462529589    -0.505146878499     1.007825032230
         H            1.866023894350    -2.466412470411     0.007478121501     1.007825032230
         H           -3.495466105650     0.681997529589    -0.012535878499     1.007825032230
         H           -2.774159105650    -0.694309470411     0.873340121501     1.007825032230
         H           -2.752387105650    -0.672183470411    -0.916327878499     1.007825032230

  Basis Set: AUG-CC-PVTZ
    Blend: AUG-CC-PVTZ
  Basis Set: (AUG-CC-PVTZ AUX)
    Blend: AUG-CC-PVTZ-JKFIT
	 Reference Energy          =    -377.8408636470297211 [Eh]
	 Singles Energy            =      -0.0000000000000000 [Eh]
	 Same-Spin Energy          =      -0.3971118298387258 [Eh]
	 Opposite-Spin Energy      =      -1.2410461026131880 [Eh]
	 Correlation Energy        =      -1.6381579324519140 [Eh]
	 Total Energy              =    -379.4790215794816390 [Eh]

	 ================> DF-SCS-MP2 Energies <==================
	-----------------------------------------------------------
	 SCS Same-Spin Scale       =       0.3333333333333333 [-]
	 SCS Opposite-Spin Scale   =       1.2000000000000000 [-]
	 SCS Same-Spin Energy      =      -0.1323706099462419 [Eh]
	 SCS Opposite-Spin Energy  =      -1.4892553231358256 [Eh]
	 SCS Correlation Energy    =      -1.6216259330820675 [Eh]
	 SCS Total Energy          =    -379.4624895801117646 [Eh]
	-----------------------------------------------------------

  Dipole Moment: [D]
     X:    -3.0506      Y:     0.6290      Z:     0.0043     Total:     3.1147

*** Psi4 exiting successfully. Buy a developer a beer!
