                               Psi4 1.3.2 release

  ==> Input File <==

--------------------------------------------------------------------------
#psi4
#
memory 32 gb

molecule  {
0 1
  O       -1.4373610     0.6812660     0.0112400
  N        0.8840130     0.5088410    -0.0326410
  N        1.9094790    -0.3796650    -0.0187050
  C       -0.3060909    -0.1461539     0.0001698
  C       -0.1032490    -1.4732180     0.0219040
  C        1.1440790     1.9331410     0.0175110
  C        1.3002790    -1.5787310     0.0070160
  C       -2.6563940    -0.0670400    -0.0135030
  H       -0.8330430    -2.2689870     0.0348200
  H        1.1952250     2.2834660     1.0517640
  H        2.0986020     2.1064990    -0.4777900
  H        0.3432740     2.4564130    -0.5057130
  H        1.9052260    -2.4764620     0.0069120
  H       -3.4562640     0.6719480    -0.0131020
  H       -2.7349570    -0.7043590     0.8727740
  H       -2.7131850    -0.6822330    -0.9168940
units angstrom
no_reorient  #important for SAPT in psi4, default
symmetry c1  #important for SAPT in psi4, default
}

set PROPERTIES_ORIGIN ["COM"]
properties('MP2/aug-cc-pvtz', properties = ['dipole'])
--------------------------------------------------------------------------

    Molecular point group: c1
  Charge       = 0
  Multiplicity = 1
  Basis Set: AUG-CC-PVTZ
    Blend: AUG-CC-PVTZ
  Basis Set: (AUG-CC-PVTZ AUX)
    Blend: AUG-CC-PVTZ-JKFIT

    Orbital Energies [Eh]
    ---------------------

    Doubly Occupied:

       1A    -20.602967     2A    -15.627907     3A    -15.577437
       4A    -11.331158     5A    -11.293241     6A    -11.265144
       7A    -11.253829     8A    -11.215172     9A     -1.420595
      10A     -1.356841    11A     -1.115257    12A     -1.058028
      13A     -0.959953    14A     -0.932766    15A     -0.807537
      16A     -0.766857    17A     -0.725013    18A     -0.675942
      19A     -0.638887    20A     -0.632182    21A     -0.619274
      22A     -0.596180    23A     -0.580004    24A     -0.546732
      25A     -0.545879    26A     -0.520864    27A     -0.494232
      28A     -0.450723    29A     -0.353430    30A     -0.328224

  @DF-RHF Final Energy:  -377.83988927034079

   => Energetics <=

    Nuclear Repulsion Energy =            377.5275266854673077
    One-Electron Energy =               -1262.1503235407024022
    Two-Electron Energy =                 506.7829075848942466
    Total Energy =                       -377.8398892703407910
  Basis Set: (AUG-CC-PVTZ AUX)
    Blend: AUG-CC-PVTZ-RI
    Molecular point group: c1

    Geometry (in Angstrom), charge = 0, multiplicity = 1:

       Center              X                  Y                   Z               Mass
    ------------   -----------------  -----------------  -----------------  -----------------
         O           -1.477004081932     0.698053221084     0.012032955187    15.994914619570
         N            0.844369918068     0.525628221084    -0.031848044813    14.003074004430
         N            1.869835918068    -0.362877778916    -0.017912044813    14.003074004430
         C           -0.345733981932    -0.129366678916     0.000962755187    12.000000000000
         C           -0.142892081932    -1.456430778916     0.022696955187    12.000000000000
         C            1.104435918068     1.949928221084     0.018303955187    12.000000000000
         C            1.260635918068    -1.561943778916     0.007808955187    12.000000000000
         C           -2.696037081932    -0.050252778916    -0.012710044813    12.000000000000
         H           -0.872686081932    -2.252199778916     0.035612955187     1.007825032230
         H            1.155581918068     2.300253221084     1.052556955187     1.007825032230
         H            2.058958918068     2.123286221084    -0.476997044813     1.007825032230
         H            0.303630918068     2.473200221084    -0.504920044813     1.007825032230
         H            1.865582918068    -2.459674778916     0.007704955187     1.007825032230
         H           -3.495907081932     0.688735221084    -0.012309044813     1.007825032230
         H           -2.774600081932    -0.687571778916     0.873566955187     1.007825032230
         H           -2.752828081932    -0.665445778916    -0.916101044813     1.007825032230

  Basis Set: AUG-CC-PVTZ
    Blend: AUG-CC-PVTZ
  Basis Set: (AUG-CC-PVTZ AUX)
    Blend: AUG-CC-PVTZ-JKFIT
	 Reference Energy          =    -377.8398892703407910 [Eh]
	 Singles Energy            =      -0.0000000000000000 [Eh]
	 Same-Spin Energy          =      -0.3963616390826576 [Eh]
	 Opposite-Spin Energy      =      -1.2401985324658908 [Eh]
	 Correlation Energy        =      -1.6365601715485485 [Eh]
	 Total Energy              =    -379.4764494418893150 [Eh]

	 ================> DF-SCS-MP2 Energies <==================
	-----------------------------------------------------------
	 SCS Same-Spin Scale       =       0.3333333333333333 [-]
	 SCS Opposite-Spin Scale   =       1.2000000000000000 [-]
	 SCS Same-Spin Energy      =      -0.1321205463608859 [Eh]
	 SCS Opposite-Spin Energy  =      -1.4882382389590689 [Eh]
	 SCS Correlation Energy    =      -1.6203587853199548 [Eh]
	 SCS Total Energy          =    -379.4602480556607702 [Eh]
	-----------------------------------------------------------

  Dipole Moment: [D]
     X:    -2.7816      Y:     0.4924      Z:     0.0034     Total:     2.8249

*** Psi4 exiting successfully. Buy a developer a beer!
