                               Psi4 1.3.2 release

  ==> Input File <==

--------------------------------------------------------------------------
#psi4
#
memory 32 gb

molecule  {
0 1
  O       -1.4373610     0.6812660     0.0112400
  N        0.8840130     0.5088410    -0.0326410
  N        1.9094790    -0.3796650    -0.0187050
  C       -0.3281200    -0.1042590     0.0031940
  C       -0.1032490    -1.4732180     0.0219040
  C        1.1081761     1.7365118     0.0105874
  C        1.3002790    -1.5787310     0.0070160
  C       -2.6563940    -0.0670400    -0.0135030
  H       -0.8330430    -2.2689870     0.0348200
  H        1.1952250     2.2834660     1.0517640
  H        2.0986020     2.1064990    -0.4777900
  H        0.3432740     2.4564130    -0.5057130
  H        1.9052260    -2.4764620     0.0069120
  H       -3.4562640     0.6719480    -0.0131020
  H       -2.7349570    -0.7043590     0.8727740
  H       -2.7131850    -0.6822330    -0.9168940
units angstrom
no_reorient  #important for SAPT in psi4, default
symmetry c1  #important for SAPT in psi4, default
}

set PROPERTIES_ORIGIN ["COM"]
properties('MP2/aug-cc-pvtz', properties = ['dipole'])
--------------------------------------------------------------------------

    Molecular point group: c1
  Charge       = 0
  Multiplicity = 1
  Basis Set: AUG-CC-PVTZ
    Blend: AUG-CC-PVTZ
  Basis Set: (AUG-CC-PVTZ AUX)
    Blend: AUG-CC-PVTZ-JKFIT

    Orbital Energies [Eh]
    ---------------------

    Doubly Occupied:

       1A    -20.614806     2A    -15.629723     3A    -15.579439
       4A    -11.344716     5A    -11.301498     6A    -11.263993
       7A    -11.261498     8A    -11.223642     9A     -1.447463
      10A     -1.385643    11A     -1.160458    12A     -1.061418
      13A     -0.969718    14A     -0.926810    15A     -0.820545
      16A     -0.776427    17A     -0.741954    18A     -0.692988
      19A     -0.657168    20A     -0.644029    21A     -0.635480
      22A     -0.605926    23A     -0.593924    24A     -0.530180
      25A     -0.521165    26A     -0.497522    27A     -0.493701
      28A     -0.456152    29A     -0.344575    30A     -0.328199

  @DF-RHF Final Energy:  -377.79346834797229

   => Energetics <=

    Nuclear Repulsion Energy =            381.8500499056706303
    One-Electron Energy =               -1270.2655195312504475
    Two-Electron Energy =                 510.6220012776075237
    Total Energy =                       -377.7934683479722935
  Basis Set: (AUG-CC-PVTZ AUX)
    Blend: AUG-CC-PVTZ-RI
    Molecular point group: c1

    Geometry (in Angstrom), charge = 0, multiplicity = 1:

       Center              X                  Y                   Z               Mass
    ------------   -----------------  -----------------  -----------------  -----------------
         O           -1.470800608102     0.714622477810     0.012450510698    15.994914619570
         N            0.850573391898     0.542197477810    -0.031430489302    14.003074004430
         N            1.876039391898    -0.346308522190    -0.017494489302    14.003074004430
         C           -0.361559608102    -0.070902522190     0.004404510698    12.000000000000
         C           -0.136688608102    -1.439861522190     0.023114510698    12.000000000000
         C            1.074736491898     1.769868277810     0.011797910698    12.000000000000
         C            1.266839391898    -1.545374522190     0.008226510698    12.000000000000
         C           -2.689833608102    -0.033683522190    -0.012292489302    12.000000000000
         H           -0.866482608102    -2.235630522190     0.036030510698     1.007825032230
         H            1.161785391898     2.316822477810     1.052974510698     1.007825032230
         H            2.065162391898     2.139855477810    -0.476579489302     1.007825032230
         H            0.309834391898     2.489769477810    -0.504502489302     1.007825032230
         H            1.871786391898    -2.443105522190     0.008122510698     1.007825032230
         H           -3.489703608102     0.705304477810    -0.011891489302     1.007825032230
         H           -2.768396608102    -0.671002522190     0.873984510698     1.007825032230
         H           -2.746624608102    -0.648876522190    -0.915683489302     1.007825032230

  Basis Set: AUG-CC-PVTZ
    Blend: AUG-CC-PVTZ
  Basis Set: (AUG-CC-PVTZ AUX)
    Blend: AUG-CC-PVTZ-JKFIT
	 Reference Energy          =    -377.7934683479722935 [Eh]
	 Singles Energy            =      -0.0000000000000000 [Eh]
	 Same-Spin Energy          =      -0.3989765535380598 [Eh]
	 Opposite-Spin Energy      =      -1.2420088606779913 [Eh]
	 Correlation Energy        =      -1.6409854142160512 [Eh]
	 Total Energy              =    -379.4344537621883546 [Eh]

	 ================> DF-SCS-MP2 Energies <==================
	-----------------------------------------------------------
	 SCS Same-Spin Scale       =       0.3333333333333333 [-]
	 SCS Opposite-Spin Scale   =       1.2000000000000000 [-]
	 SCS Same-Spin Energy      =      -0.1329921845126866 [Eh]
	 SCS Opposite-Spin Energy  =      -1.4904106328135895 [Eh]
	 SCS Correlation Energy    =      -1.6234028173262762 [Eh]
	 SCS Total Energy          =    -379.4168711652985735 [Eh]
	-----------------------------------------------------------

  Dipole Moment: [D]
     X:    -3.1876      Y:    -0.0249      Z:    -0.0914     Total:     3.1890

*** Psi4 exiting successfully. Buy a developer a beer!
