                               Psi4 1.3.2 release

  ==> Input File <==

--------------------------------------------------------------------------
#psi4
#
memory 32 gb

molecule  {
0 1
  O       -1.4373610     0.6812660     0.0112400
  N        0.8840130     0.5088410    -0.0326410
  N        1.9094790    -0.3796650    -0.0187050
  C       -0.3677227    -0.0182803     0.0091079
  C       -0.1032490    -1.4732180     0.0219040
  C        1.1440790     1.9331410     0.0175110
  C        1.3002790    -1.5787310     0.0070160
  C       -2.6563940    -0.0670400    -0.0135030
  H       -0.8330430    -2.2689870     0.0348200
  H        1.1952250     2.2834660     1.0517640
  H        2.0986020     2.1064990    -0.4777900
  H        0.3432740     2.4564130    -0.5057130
  H        1.9052260    -2.4764620     0.0069120
  H       -3.4562640     0.6719480    -0.0131020
  H       -2.7349570    -0.7043590     0.8727740
  H       -2.7131850    -0.6822330    -0.9168940
units angstrom
no_reorient  #important for SAPT in psi4, default
symmetry c1  #important for SAPT in psi4, default
}

set PROPERTIES_ORIGIN ["COM"]
properties('MP2/aug-cc-pvtz', properties = ['dipole'])
--------------------------------------------------------------------------

    Molecular point group: c1
  Charge       = 0
  Multiplicity = 1
  Basis Set: AUG-CC-PVTZ
    Blend: AUG-CC-PVTZ
  Basis Set: (AUG-CC-PVTZ AUX)
    Blend: AUG-CC-PVTZ-JKFIT

    Orbital Energies [Eh]
    ---------------------

    Doubly Occupied:

       1A    -20.622227     2A    -15.628781     3A    -15.565396
       4A    -11.344558     5A    -11.308464     6A    -11.261837
       7A    -11.248881     8A    -11.214968     9A     -1.476918
      10A     -1.352554    11A     -1.113823    12A     -1.037058
      13A     -0.974531    14A     -0.932809    15A     -0.800892
      16A     -0.785099    17A     -0.725558    18A     -0.698022
      19A     -0.661452    20A     -0.633435    21A     -0.621732
      22A     -0.591048    23A     -0.571997    24A     -0.550166
      25A     -0.546644    26A     -0.514432    27A     -0.510945
      28A     -0.442091    29A     -0.346026    30A     -0.303117

  @DF-RHF Final Energy:  -377.83250055417415

   => Energetics <=

    Nuclear Repulsion Energy =            377.5723900607683845
    One-Electron Energy =               -1262.0388582126490746
    Two-Electron Energy =                 506.6339675977065440
    Total Energy =                       -377.8325005541741461
  Basis Set: (AUG-CC-PVTZ AUX)
    Blend: AUG-CC-PVTZ-RI
    Molecular point group: c1

    Geometry (in Angstrom), charge = 0, multiplicity = 1:

       Center              X                  Y                   Z               Mass
    ------------   -----------------  -----------------  -----------------  -----------------
         O           -1.470404426157     0.684360261560     0.011075845654    15.994914619570
         N            0.850969573843     0.511935261560    -0.032805154346    14.003074004430
         N            1.876435573843    -0.376570738440    -0.018869154346    14.003074004430
         C           -0.400766126157    -0.015186038440     0.008943745654    12.000000000000
         C           -0.136292426157    -1.470123738440     0.021739845654    12.000000000000
         C            1.111035573843     1.936235261560     0.017346845654    12.000000000000
         C            1.267235573843    -1.575636738440     0.006851845654    12.000000000000
         C           -2.689437426157    -0.063945738440    -0.013667154346    12.000000000000
         H           -0.866086426157    -2.265892738440     0.034655845654     1.007825032230
         H            1.162181573843     2.286560261560     1.051599845654     1.007825032230
         H            2.065558573843     2.109593261560    -0.477954154346     1.007825032230
         H            0.310230573843     2.459507261560    -0.505877154346     1.007825032230
         H            1.872182573843    -2.473367738440     0.006747845654     1.007825032230
         H           -3.489307426157     0.675042261560    -0.013266154346     1.007825032230
         H           -2.768000426157    -0.701264738440     0.872609845654     1.007825032230
         H           -2.746228426157    -0.679138738440    -0.917058154346     1.007825032230

  Basis Set: AUG-CC-PVTZ
    Blend: AUG-CC-PVTZ
  Basis Set: (AUG-CC-PVTZ AUX)
    Blend: AUG-CC-PVTZ-JKFIT
	 Reference Energy          =    -377.8325005541741461 [Eh]
	 Singles Energy            =      -0.0000000000000000 [Eh]
	 Same-Spin Energy          =      -0.3967030387005817 [Eh]
	 Opposite-Spin Energy      =      -1.2389934708328370 [Eh]
	 Correlation Energy        =      -1.6356965095334186 [Eh]
	 Total Energy              =    -379.4681970637075779 [Eh]

	 ================> DF-SCS-MP2 Energies <==================
	-----------------------------------------------------------
	 SCS Same-Spin Scale       =       0.3333333333333333 [-]
	 SCS Opposite-Spin Scale   =       1.2000000000000000 [-]
	 SCS Same-Spin Energy      =      -0.1322343462335272 [Eh]
	 SCS Opposite-Spin Energy  =      -1.4867921649994043 [Eh]
	 SCS Correlation Energy    =      -1.6190265112329314 [Eh]
	 SCS Total Energy          =    -379.4515270654070491 [Eh]
	-----------------------------------------------------------

  Dipole Moment: [D]
     X:    -3.4728      Y:     0.9626      Z:     0.0009     Total:     3.6038

*** Psi4 exiting successfully. Buy a developer a beer!
