                               Psi4 1.3.2 release

  ==> Input File <==

--------------------------------------------------------------------------
#psi4
#
memory 32 gb

molecule  {
0 1
  O       -1.4373610     0.6812660     0.0112400
  N        0.7967463     0.3968098    -0.0301326
  N        1.9094790    -0.3796650    -0.0187050
  C       -0.3281200    -0.1042590     0.0031940
  C       -0.1032490    -1.4732180     0.0219040
  C        1.1440790     1.9331410     0.0175110
  C        1.3002790    -1.5787310     0.0070160
  C       -2.6563940    -0.0670400    -0.0135030
  H       -0.8330430    -2.2689870     0.0348200
  H        1.1952250     2.2834660     1.0517640
  H        2.0986020     2.1064990    -0.4777900
  H        0.3432740     2.4564130    -0.5057130
  H        1.9052260    -2.4764620     0.0069120
  H       -3.4562640     0.6719480    -0.0131020
  H       -2.7349570    -0.7043590     0.8727740
  H       -2.7131850    -0.6822330    -0.9168940
units angstrom
no_reorient  #important for SAPT in psi4, default
symmetry c1  #important for SAPT in psi4, default
}

set PROPERTIES_ORIGIN ["COM"]
properties('MP2/aug-cc-pvtz', properties = ['dipole'])
--------------------------------------------------------------------------

    Molecular point group: c1
  Charge       = 0
  Multiplicity = 1
  Basis Set: AUG-CC-PVTZ
    Blend: AUG-CC-PVTZ
  Basis Set: (AUG-CC-PVTZ AUX)
    Blend: AUG-CC-PVTZ-JKFIT

    Orbital Energies [Eh]
    ---------------------

    Doubly Occupied:

       1A    -20.608207     2A    -15.628539     3A    -15.568066
       4A    -11.321308     5A    -11.297198     6A    -11.276542
       7A    -11.249496     8A    -11.204745     9A     -1.444882
      10A     -1.373633    11A     -1.116542    12A     -1.053379
      13A     -0.960092    14A     -0.938942    15A     -0.813481
      16A     -0.766341    17A     -0.726467    18A     -0.688415
      19A     -0.640542    20A     -0.630959    21A     -0.616331
      22A     -0.590454    23A     -0.566348    24A     -0.559213
      25A     -0.533421    26A     -0.517551    27A     -0.501406
      28A     -0.459345    29A     -0.354658    30A     -0.322676

  @DF-RHF Final Energy:  -377.81659712305100

   => Energetics <=

    Nuclear Repulsion Energy =            379.5639137611073011
    One-Electron Energy =               -1266.1026641964906503
    Two-Electron Energy =                 508.7221533123323525
    Total Energy =                       -377.8165971230509967
  Basis Set: (AUG-CC-PVTZ AUX)
    Blend: AUG-CC-PVTZ-RI
    Molecular point group: c1

    Geometry (in Angstrom), charge = 0, multiplicity = 1:

       Center              X                  Y                   Z               Mass
    ------------   -----------------  -----------------  -----------------  -----------------
         O           -1.463740627750     0.707566049390     0.011395677152    15.994914619570
         N            0.770366672250     0.423109849390    -0.029976922848    14.003074004430
         N            1.883099372250    -0.353364950610    -0.018549322848    14.003074004430
         C           -0.354499627750    -0.077958950610     0.003349677152    12.000000000000
         C           -0.129628627750    -1.446917950610     0.022059677152    12.000000000000
         C            1.117699372250     1.959441049390     0.017666677152    12.000000000000
         C            1.273899372250    -1.552430950610     0.007171677152    12.000000000000
         C           -2.682773627750    -0.040739950610    -0.013347322848    12.000000000000
         H           -0.859422627750    -2.242686950610     0.034975677152     1.007825032230
         H            1.168845372250     2.309766049390     1.051919677152     1.007825032230
         H            2.072222372250     2.132799049390    -0.477634322848     1.007825032230
         H            0.316894372250     2.482713049390    -0.505557322848     1.007825032230
         H            1.878846372250    -2.450161950610     0.007067677152     1.007825032230
         H           -3.482643627750     0.698248049390    -0.012946322848     1.007825032230
         H           -2.761336627750    -0.678058950610     0.872929677152     1.007825032230
         H           -2.739564627750    -0.655932950610    -0.916738322848     1.007825032230

  Basis Set: AUG-CC-PVTZ
    Blend: AUG-CC-PVTZ
  Basis Set: (AUG-CC-PVTZ AUX)
    Blend: AUG-CC-PVTZ-JKFIT
	 Reference Energy          =    -377.8165971230509967 [Eh]
	 Singles Energy            =      -0.0000000000000000 [Eh]
	 Same-Spin Energy          =      -0.3954058211913463 [Eh]
	 Opposite-Spin Energy      =      -1.2381910154793987 [Eh]
	 Correlation Energy        =      -1.6335968366707450 [Eh]
	 Total Energy              =    -379.4501939597217302 [Eh]

	 ================> DF-SCS-MP2 Energies <==================
	-----------------------------------------------------------
	 SCS Same-Spin Scale       =       0.3333333333333333 [-]
	 SCS Opposite-Spin Scale   =       1.2000000000000000 [-]
	 SCS Same-Spin Energy      =      -0.1318019403971154 [Eh]
	 SCS Opposite-Spin Energy  =      -1.4858292185752784 [Eh]
	 SCS Correlation Energy    =      -1.6176311589723937 [Eh]
	 SCS Total Energy          =    -379.4342282820234118 [Eh]
	-----------------------------------------------------------

  Dipole Moment: [D]
     X:    -2.8573      Y:     0.9732      Z:     0.0091     Total:     3.0185

*** Psi4 exiting successfully. Buy a developer a beer!
