                               Psi4 1.3.2 release

  ==> Input File <==

--------------------------------------------------------------------------
#psi4
#
memory 32 gb

molecule  {
0 1
  O       -1.4373610     0.6812660     0.0112400
  N        0.8840130     0.5088410    -0.0326410
  N        1.9094790    -0.3796650    -0.0187050
  C       -0.3281200    -0.1042590     0.0031940
  C       -0.1032490    -1.4732180     0.0219040
  C        1.1440790     1.9331410     0.0175110
  C        1.3002790    -1.5787310     0.0070160
  C       -2.6563940    -0.0670400    -0.0135030
  H       -0.8330430    -2.2689870     0.0348200
  H        1.1952250     2.2834660     1.0517640
  H        2.0986020     2.1064990    -0.4777900
  H        0.3432740     2.4564130    -0.5057130
  H        1.9611084    -2.5593906     0.0069024
  H       -3.4562640     0.6719480    -0.0131020
  H       -2.7349570    -0.7043590     0.8727740
  H       -2.7131850    -0.6822330    -0.9168940
units angstrom
no_reorient  #important for SAPT in psi4, default
symmetry c1  #important for SAPT in psi4, default
}

set PROPERTIES_ORIGIN ["COM"]
properties('MP2/aug-cc-pvtz', properties = ['dipole'])
--------------------------------------------------------------------------

    Molecular point group: c1
  Charge       = 0
  Multiplicity = 1
  Basis Set: AUG-CC-PVTZ
    Blend: AUG-CC-PVTZ
  Basis Set: (AUG-CC-PVTZ AUX)
    Blend: AUG-CC-PVTZ-JKFIT

    Orbital Energies [Eh]
    ---------------------

    Doubly Occupied:

       1A    -20.609644     2A    -15.629052     3A    -15.574444
       4A    -11.336217     5A    -11.298317     6A    -11.264516
       7A    -11.263102     8A    -11.216730     9A     -1.437269
      10A     -1.357021    11A     -1.113451    12A     -1.050304
      13A     -0.964718    14A     -0.931748    15A     -0.798922
      16A     -0.771186    17A     -0.721381    18A     -0.682393
      19A     -0.642322    20A     -0.633402    21A     -0.621531
      22A     -0.592455    23A     -0.569664    24A     -0.546408
      25A     -0.541383    26A     -0.521597    27A     -0.501446
      28A     -0.447752    29A     -0.350226    30A     -0.321416

  @DF-RHF Final Energy:  -377.83640183812099

   => Energetics <=

    Nuclear Repulsion Energy =            377.0001580036526434
    One-Electron Energy =               -1261.0530851767928198
    Two-Electron Energy =                 506.2165253350192415
    Total Energy =                       -377.8364018381209917
  Basis Set: (AUG-CC-PVTZ AUX)
    Blend: AUG-CC-PVTZ-RI
    Molecular point group: c1

    Geometry (in Angstrom), charge = 0, multiplicity = 1:

       Center              X                  Y                   Z               Mass
    ------------   -----------------  -----------------  -----------------  -----------------
         O           -1.475147730702     0.694312835751     0.011709204169    15.994914619570
         N            0.846226269298     0.521887835751    -0.032171795831    14.003074004430
         N            1.871692269298    -0.366618164249    -0.018235795831    14.003074004430
         C           -0.365906730702    -0.091212164249     0.003663204169    12.000000000000
         C           -0.141035730702    -1.460171164249     0.022373204169    12.000000000000
         C            1.106292269298     1.946187835751     0.017980204169    12.000000000000
         C            1.262492269298    -1.565684164249     0.007485204169    12.000000000000
         C           -2.694180730702    -0.053993164249    -0.013033795831    12.000000000000
         H           -0.870829730702    -2.255940164249     0.035289204169     1.007825032230
         H            1.157438269298     2.296512835751     1.052233204169     1.007825032230
         H            2.060815269298     2.119545835751    -0.477320795831     1.007825032230
         H            0.305487269298     2.469459835751    -0.505243795831     1.007825032230
         H            1.923321669298    -2.546343764249     0.007371604169     1.007825032230
         H           -3.494050730702     0.684994835751    -0.012632795831     1.007825032230
         H           -2.772743730702    -0.691312164249     0.873243204169     1.007825032230
         H           -2.750971730702    -0.669186164249    -0.916424795831     1.007825032230

  Basis Set: AUG-CC-PVTZ
    Blend: AUG-CC-PVTZ
  Basis Set: (AUG-CC-PVTZ AUX)
    Blend: AUG-CC-PVTZ-JKFIT
	 Reference Energy          =    -377.8364018381209917 [Eh]
	 Singles Energy            =      -0.0000000000000000 [Eh]
	 Same-Spin Energy          =      -0.3966208192673577 [Eh]
	 Opposite-Spin Energy      =      -1.2404421912153618 [Eh]
	 Correlation Energy        =      -1.6370630104827195 [Eh]
	 Total Energy              =    -379.4734648486037258 [Eh]

	 ================> DF-SCS-MP2 Energies <==================
	-----------------------------------------------------------
	 SCS Same-Spin Scale       =       0.3333333333333333 [-]
	 SCS Opposite-Spin Scale   =       1.2000000000000000 [-]
	 SCS Same-Spin Energy      =      -0.1322069397557859 [Eh]
	 SCS Opposite-Spin Energy  =      -1.4885306294584342 [Eh]
	 SCS Correlation Energy    =      -1.6207375692142201 [Eh]
	 SCS Total Energy          =    -379.4571394073352053 [Eh]
	-----------------------------------------------------------

  Dipole Moment: [D]
     X:    -3.0129      Y:     0.6712      Z:     0.0027     Total:     3.0868

*** Psi4 exiting successfully. Buy a developer a beer!
