                               Psi4 1.3.2 release

  ==> Input File <==

--------------------------------------------------------------------------
#psi4
#
memory 32 gb

molecule  {
0 1
  O       -1.4373610     0.6812660     0.0112400
  N        0.8840130     0.5088410    -0.0326410
  N        1.9094790    -0.3796650    -0.0187050
  C       -0.2760283    -0.0249919     0.0052369
  C       -0.1032490    -1.4732180     0.0219040
  C        1.1440790     1.9331410     0.0175110
  C        1.3002790    -1.5787310     0.0070160
  C       -2.6563940    -0.0670400    -0.0135030
  H       -0.8330430    -2.2689870     0.0348200
  H        1.1952250     2.2834660     1.0517640
  H        2.0986020     2.1064990    -0.4777900
  H        0.3432740     2.4564130    -0.5057130
  H        1.9052260    -2.4764620     0.0069120
  H       -3.4562640     0.6719480    -0.0131020
  H       -2.7349570    -0.7043590     0.8727740
  H       -2.7131850    -0.6822330    -0.9168940
units angstrom
no_reorient  #important for SAPT in psi4, default
symmetry c1  #important for SAPT in psi4, default
}

set PROPERTIES_ORIGIN ["COM"]
properties('MP2/aug-cc-pvtz', properties = ['dipole'])
--------------------------------------------------------------------------

    Molecular point group: c1
  Charge       = 0
  Multiplicity = 1
  Basis Set: AUG-CC-PVTZ
    Blend: AUG-CC-PVTZ
  Basis Set: (AUG-CC-PVTZ AUX)
    Blend: AUG-CC-PVTZ-JKFIT

    Orbital Energies [Eh]
    ---------------------

    Doubly Occupied:

       1A    -20.606722     2A    -15.637021     3A    -15.564877
       4A    -11.337491     5A    -11.299131     6A    -11.268991
       7A    -11.252654     8A    -11.214117     9A     -1.438494
      10A     -1.370512    11A     -1.126491    12A     -1.044073
      13A     -0.960736    14A     -0.945849    15A     -0.811567
      16A     -0.768043    17A     -0.729022    18A     -0.686676
      19A     -0.645181    20A     -0.638495    21A     -0.620021
      22A     -0.588480    23A     -0.585886    24A     -0.551038
      25A     -0.549203    26A     -0.508114    27A     -0.500807
      28A     -0.446283    29A     -0.357143    30A     -0.312044

  @DF-RHF Final Energy:  -377.83674075044291

   => Energetics <=

    Nuclear Repulsion Energy =            378.0611395743122785
    One-Electron Energy =               -1263.0654388882890089
    Two-Electron Energy =                 507.1675585635338166
    Total Energy =                       -377.8367407504429138
  Basis Set: (AUG-CC-PVTZ AUX)
    Blend: AUG-CC-PVTZ-RI
    Molecular point group: c1

    Geometry (in Angstrom), charge = 0, multiplicity = 1:

       Center              X                  Y                   Z               Mass
    ------------   -----------------  -----------------  -----------------  -----------------
         O           -1.480223244957     0.685078953043     0.011490360037    15.994914619570
         N            0.841150755043     0.512653953043    -0.032390639963    14.003074004430
         N            1.866616755043    -0.375852046957    -0.018454639963    14.003074004430
         C           -0.318890544957    -0.021178946957     0.005487260037    12.000000000000
         C           -0.146111244957    -1.469405046957     0.022154360037    12.000000000000
         C            1.101216755043     1.936953953043     0.017761360037    12.000000000000
         C            1.257416755043    -1.574918046957     0.007266360037    12.000000000000
         C           -2.699256244957    -0.063227046957    -0.013252639963    12.000000000000
         H           -0.875905244957    -2.265174046957     0.035070360037     1.007825032230
         H            1.152362755043     2.287278953043     1.052014360037     1.007825032230
         H            2.055739755043     2.110311953043    -0.477539639963     1.007825032230
         H            0.300411755043     2.460225953043    -0.505462639963     1.007825032230
         H            1.862363755043    -2.472649046957     0.007162360037     1.007825032230
         H           -3.499126244957     0.675760953043    -0.012851639963     1.007825032230
         H           -2.777819244957    -0.700546046957     0.873024360037     1.007825032230
         H           -2.756047244957    -0.678420046957    -0.916643639963     1.007825032230

  Basis Set: AUG-CC-PVTZ
    Blend: AUG-CC-PVTZ
  Basis Set: (AUG-CC-PVTZ AUX)
    Blend: AUG-CC-PVTZ-JKFIT
	 Reference Energy          =    -377.8367407504429138 [Eh]
	 Singles Energy            =      -0.0000000000000000 [Eh]
	 Same-Spin Energy          =      -0.3954484994818491 [Eh]
	 Opposite-Spin Energy      =      -1.2372833406720702 [Eh]
	 Correlation Energy        =      -1.6327318401539195 [Eh]
	 Total Energy              =    -379.4694725905968085 [Eh]

	 ================> DF-SCS-MP2 Energies <==================
	-----------------------------------------------------------
	 SCS Same-Spin Scale       =       0.3333333333333333 [-]
	 SCS Opposite-Spin Scale   =       1.2000000000000000 [-]
	 SCS Same-Spin Energy      =      -0.1318161664939497 [Eh]
	 SCS Opposite-Spin Energy  =      -1.4847400088064842 [Eh]
	 SCS Correlation Energy    =      -1.6165561753004338 [Eh]
	 SCS Total Energy          =    -379.4532969257433592 [Eh]
	-----------------------------------------------------------

  Dipole Moment: [D]
     X:    -2.9237      Y:     0.8996      Z:    -0.0019     Total:     3.0590

*** Psi4 exiting successfully. Buy a developer a beer!
