                               Psi4 1.4a3.dev225

  ==> Input File <==

--------------------------------------------------------------------------
#psi4
#
memory 32 gb

molecule  {
0 1
  O       -1.4373610     0.6812660     0.0112400
  N        0.8840130     0.5088410    -0.0326410
  N        1.9094790    -0.3796650    -0.0187050
  C       -0.3281200    -0.1042590     0.0031940
  C       -0.1032490    -1.4732180     0.0219040
  C        1.1440790     1.9331410     0.0175110
  C        1.3229226    -1.5341625     0.0060600
  C       -2.6563940    -0.0670400    -0.0135030
  H       -0.8330430    -2.2689870     0.0348200
  H        1.1952250     2.2834660     1.0517640
  H        2.0986020     2.1064990    -0.4777900
  H        0.3432740     2.4564130    -0.5057130
  H        1.9052260    -2.4764620     0.0069120
  H       -3.4562640     0.6719480    -0.0131020
  H       -2.7349570    -0.7043590     0.8727740
  H       -2.7131850    -0.6822330    -0.9168940
units angstrom
no_reorient  #important for SAPT in psi4, default
symmetry c1  #important for SAPT in psi4, default
}

set PROPERTIES_ORIGIN ["COM"]
properties('MP2/aug-cc-pvtz', properties = ['dipole'])
--------------------------------------------------------------------------

    Molecular point group: c1
  Charge       = 0
  Multiplicity = 1
  Basis Set: AUG-CC-PVTZ
    Blend: AUG-CC-PVTZ
  Basis Set: (AUG-CC-PVTZ AUX)
    Blend: AUG-CC-PVTZ-JKFIT

    Orbital Energies [Eh]
    ---------------------

    Doubly Occupied:

       1A    -20.609177     2A    -15.624689     3A    -15.572117
       4A    -11.336117     5A    -11.297757     6A    -11.263252
       7A    -11.251328     8A    -11.214373     9A     -1.437147
      10A     -1.363284    11A     -1.122586    12A     -1.050318
      13A     -0.963944    14A     -0.932140    15A     -0.803980
      16A     -0.771473    17A     -0.724525    18A     -0.682173
      19A     -0.643389    20A     -0.633890    21A     -0.624538
      22A     -0.592920    23A     -0.571617    24A     -0.547475
      25A     -0.546379    26A     -0.523164    27A     -0.503290
      28A     -0.447803    29A     -0.348542    30A     -0.327087

  @DF-RHF Final Energy:  -377.84490144430367

   => Energetics <=

    Nuclear Repulsion Energy =            378.2001314941100532
    One-Electron Energy =               -1263.4291210523024347
    Two-Electron Energy =                 507.3840881138886516
    Total Energy =                       -377.8449014443036731
  Basis Set: (AUG-CC-PVTZ AUX)
    Blend: AUG-CC-PVTZ-RI
    Molecular point group: c1

    Geometry (in Angstrom), charge = 0, multiplicity = 1:

       Center              X                  Y                   Z               Mass
    ------------   -----------------  -----------------  -----------------  -----------------
         O           -1.477069883815     0.688794548172     0.011811488216    15.994914619570
         N            0.844304116185     0.516369548172    -0.032069511784    14.003074004430
         N            1.869770116185    -0.372136451828    -0.018133511784    14.003074004430
         C           -0.367828883815    -0.096730451828     0.003765488216    12.000000000000
         C           -0.142957883815    -1.465689451828     0.022475488216    12.000000000000
         C            1.104370116185     1.940669548172     0.018082488216    12.000000000000
         C            1.283213716185    -1.526633951828     0.006631488216    12.000000000000
         C           -2.696102883815    -0.059511451828    -0.012931511784    12.000000000000
         H           -0.872751883815    -2.261458451828     0.035391488216     1.007825032230
         H            1.155516116185     2.290994548172     1.052335488216     1.007825032230
         H            2.058893116185     2.114027548172    -0.477218511784     1.007825032230
         H            0.303565116185     2.463941548172    -0.505141511784     1.007825032230
         H            1.865517116185    -2.468933451828     0.007483488216     1.007825032230
         H           -3.495972883815     0.679476548172    -0.012530511784     1.007825032230
         H           -2.774665883815    -0.696830451828     0.873345488216     1.007825032230
         H           -2.752893883815    -0.674704451828    -0.916322511784     1.007825032230

  Basis Set: AUG-CC-PVTZ
    Blend: AUG-CC-PVTZ
  Basis Set: (AUG-CC-PVTZ AUX)
    Blend: AUG-CC-PVTZ-JKFIT
	 Reference Energy          =    -377.8449014443036731 [Eh]
	 Singles Energy            =      -0.0000000000000000 [Eh]
	 Same-Spin Energy          =      -0.3950286606199551 [Eh]
	 Opposite-Spin Energy      =      -1.2370852000357648 [Eh]
	 Correlation Energy        =      -1.6321138606557200 [Eh]
	 Total Energy              =    -379.4770153049593659 [Eh]

	 ================> DF-SCS-MP2 Energies <==================
	-----------------------------------------------------------
	 SCS Same-Spin Scale       =       0.3333333333333333 [-]
	 SCS Opposite-Spin Scale   =       1.2000000000000000 [-]
	 SCS Same-Spin Energy      =      -0.1316762202066517 [Eh]
	 SCS Opposite-Spin Energy  =      -1.4845022400429178 [Eh]
	 SCS Correlation Energy    =      -1.6161784602495695 [Eh]
	 SCS Total Energy          =    -379.4610799045532303 [Eh]
	-----------------------------------------------------------

  Dipole Moment: [D]
     X:    -2.9492      Y:     0.6249      Z:    -0.0001     Total:     3.0147

*** Psi4 exiting successfully. Buy a developer a beer!
