                               Psi4 1.3.2 release

  ==> Input File <==

--------------------------------------------------------------------------
#psi4
#
memory 32 gb

molecule  {
0 1
  O       -1.4373610     0.6812660     0.0112400
  N        0.8944753     0.4876102    -0.0341370
  N        1.9094790    -0.3796650    -0.0187050
  C       -0.3281200    -0.1042590     0.0031940
  C       -0.1032490    -1.4732180     0.0219040
  C        1.1440790     1.9331410     0.0175110
  C        1.3002790    -1.5787310     0.0070160
  C       -2.6563940    -0.0670400    -0.0135030
  H       -0.8330430    -2.2689870     0.0348200
  H        1.1952250     2.2834660     1.0517640
  H        2.0986020     2.1064990    -0.4777900
  H        0.3432740     2.4564130    -0.5057130
  H        1.9052260    -2.4764620     0.0069120
  H       -3.4562640     0.6719480    -0.0131020
  H       -2.7349570    -0.7043590     0.8727740
  H       -2.7131850    -0.6822330    -0.9168940
units angstrom
no_reorient  #important for SAPT in psi4, default
symmetry c1  #important for SAPT in psi4, default
}

set PROPERTIES_ORIGIN ["COM"]
properties('MP2/aug-cc-pvtz', properties = ['dipole'])
--------------------------------------------------------------------------

    Molecular point group: c1
  Charge       = 0
  Multiplicity = 1
  Basis Set: AUG-CC-PVTZ
    Blend: AUG-CC-PVTZ
  Basis Set: (AUG-CC-PVTZ AUX)
    Blend: AUG-CC-PVTZ-JKFIT

    Orbital Energies [Eh]
    ---------------------

    Doubly Occupied:

       1A    -20.609044     2A    -15.630244     3A    -15.573368
       4A    -11.333338     5A    -11.298079     6A    -11.265928
       7A    -11.249647     8A    -11.215324     9A     -1.436711
      10A     -1.363865    11A     -1.109567    12A     -1.051895
      13A     -0.963778    14A     -0.933946    15A     -0.806715
      16A     -0.770573    17A     -0.726387    18A     -0.681993
      19A     -0.644362    20A     -0.633298    21A     -0.621203
      22A     -0.593949    23A     -0.572258    24A     -0.548265
      25A     -0.547285    26A     -0.523288    27A     -0.502349
      28A     -0.449491    29A     -0.349245    30A     -0.319760

  @DF-RHF Final Energy:  -377.84341545785878

   => Energetics <=

    Nuclear Repulsion Energy =            377.6696592615365375
    One-Electron Energy =               -1262.3758395872384881
    Two-Electron Energy =                 506.8627648678432251
    Total Energy =                       -377.8434154578587822
  Basis Set: (AUG-CC-PVTZ AUX)
    Blend: AUG-CC-PVTZ-RI
    Molecular point group: c1

    Geometry (in Angstrom), charge = 0, multiplicity = 1:

       Center              X                  Y                   Z               Mass
    ------------   -----------------  -----------------  -----------------  -----------------
         O           -1.475952493614     0.696219956571     0.011896052636    15.994914619570
         N            0.855883806386     0.502564156571    -0.033480947364    14.003074004430
         N            1.870887506386    -0.364711043429    -0.018048947364    14.003074004430
         C           -0.366711493614    -0.089305043429     0.003850052636    12.000000000000
         C           -0.141840493614    -1.458264043429     0.022560052636    12.000000000000
         C            1.105487506386     1.948094956571     0.018167052636    12.000000000000
         C            1.261687506386    -1.563777043429     0.007672052636    12.000000000000
         C           -2.694985493614    -0.052086043429    -0.012846947364    12.000000000000
         H           -0.871634493614    -2.254033043429     0.035476052636     1.007825032230
         H            1.156633506386     2.298419956571     1.052420052636     1.007825032230
         H            2.060010506386     2.121452956571    -0.477133947364     1.007825032230
         H            0.304682506386     2.471366956571    -0.505056947364     1.007825032230
         H            1.866634506386    -2.461508043429     0.007568052636     1.007825032230
         H           -3.494855493614     0.686901956571    -0.012445947364     1.007825032230
         H           -2.773548493614    -0.689405043429     0.873430052636     1.007825032230
         H           -2.751776493614    -0.667279043429    -0.916237947364     1.007825032230

  Basis Set: AUG-CC-PVTZ
    Blend: AUG-CC-PVTZ
  Basis Set: (AUG-CC-PVTZ AUX)
    Blend: AUG-CC-PVTZ-JKFIT
	 Reference Energy          =    -377.8434154578587822 [Eh]
	 Singles Energy            =      -0.0000000000000000 [Eh]
	 Same-Spin Energy          =      -0.3965518327873707 [Eh]
	 Opposite-Spin Energy      =      -1.2394417696930908 [Eh]
	 Correlation Energy        =      -1.6359936024804616 [Eh]
	 Total Energy              =    -379.4794090603392647 [Eh]

	 ================> DF-SCS-MP2 Energies <==================
	-----------------------------------------------------------
	 SCS Same-Spin Scale       =       0.3333333333333333 [-]
	 SCS Opposite-Spin Scale   =       1.2000000000000000 [-]
	 SCS Same-Spin Energy      =      -0.1321839442624569 [Eh]
	 SCS Opposite-Spin Energy  =      -1.4873301236317089 [Eh]
	 SCS Correlation Energy    =      -1.6195140678941657 [Eh]
	 SCS Total Energy          =    -379.4629295257529407 [Eh]
	-----------------------------------------------------------

  Dipole Moment: [D]
     X:    -2.9971      Y:     0.7045      Z:     0.0042     Total:     3.0788

*** Psi4 exiting successfully. Buy a developer a beer!
