                               Psi4 1.3.2 release

  ==> Input File <==

--------------------------------------------------------------------------
#psi4
#
memory 32 gb

molecule  {
0 1
  O       -1.4373610     0.6812660     0.0112400
  N        0.8840130     0.5088410    -0.0326410
  N        1.9094790    -0.3796650    -0.0187050
  C       -0.3281200    -0.1042590     0.0031940
  C       -0.1032490    -1.4732180     0.0219040
  C        1.1799819     2.1297702     0.0244346
  C        1.3002790    -1.5787310     0.0070160
  C       -2.6563940    -0.0670400    -0.0135030
  H       -0.8330430    -2.2689870     0.0348200
  H        1.1952250     2.2834660     1.0517640
  H        2.0986020     2.1064990    -0.4777900
  H        0.3432740     2.4564130    -0.5057130
  H        1.9052260    -2.4764620     0.0069120
  H       -3.4562640     0.6719480    -0.0131020
  H       -2.7349570    -0.7043590     0.8727740
  H       -2.7131850    -0.6822330    -0.9168940
units angstrom
no_reorient  #important for SAPT in psi4, default
symmetry c1  #important for SAPT in psi4, default
}

set PROPERTIES_ORIGIN ["COM"]
properties('MP2/aug-cc-pvtz', properties = ['dipole'])
--------------------------------------------------------------------------

    Molecular point group: c1
  Charge       = 0
  Multiplicity = 1
  Basis Set: AUG-CC-PVTZ
    Blend: AUG-CC-PVTZ
  Basis Set: (AUG-CC-PVTZ AUX)
    Blend: AUG-CC-PVTZ-JKFIT

    Orbital Energies [Eh]
    ---------------------

    Doubly Occupied:

       1A    -20.604228     2A    -15.619543     3A    -15.567465
       4A    -11.326588     5A    -11.294847     6A    -11.277778
       7A    -11.244270     8A    -11.208823     9A     -1.430057
      10A     -1.338291    11A     -1.085389    12A     -1.039616
      13A     -0.964306    14A     -0.942844    15A     -0.793045
      16A     -0.764316    17A     -0.711126    18A     -0.676198
      19A     -0.641254    20A     -0.639126    21A     -0.620344
      22A     -0.600500    23A     -0.568792    24A     -0.564705
      25A     -0.530454    26A     -0.517480    27A     -0.497839
      28A     -0.438930    29A     -0.344497    30A     -0.313715

  @DF-RHF Final Energy:  -377.81529373691819

   => Energetics <=

    Nuclear Repulsion Energy =            373.7499008435806900
    One-Electron Energy =               -1254.7976549547909144
    Two-Electron Energy =                 503.2324603742920317
    Total Energy =                       -377.8152937369181927
  Basis Set: (AUG-CC-PVTZ AUX)
    Blend: AUG-CC-PVTZ-RI
    Molecular point group: c1

    Geometry (in Angstrom), charge = 0, multiplicity = 1:

       Center              X                  Y                   Z               Mass
    ------------   -----------------  -----------------  -----------------  -----------------
         O           -1.478489716042     0.672511585854     0.010967724969    15.994914619570
         N            0.842884283958     0.500086585854    -0.032913275031    14.003074004430
         N            1.868350283958    -0.388419414146    -0.018977275031    14.003074004430
         C           -0.369248716042    -0.113013414146     0.002921724969    12.000000000000
         C           -0.144377716042    -1.481972414146     0.021631724969    12.000000000000
         C            1.138853183958     2.121015785854     0.024162324969    12.000000000000
         C            1.259150283958    -1.587485414146     0.006743724969    12.000000000000
         C           -2.697522716042    -0.075794414146    -0.013775275031    12.000000000000
         H           -0.874171716042    -2.277741414146     0.034547724969     1.007825032230
         H            1.154096283958     2.274711585854     1.051491724969     1.007825032230
         H            2.057473283958     2.097744585854    -0.478062275031     1.007825032230
         H            0.302145283958     2.447658585854    -0.505985275031     1.007825032230
         H            1.864097283958    -2.485216414146     0.006639724969     1.007825032230
         H           -3.497392716042     0.663193585854    -0.013374275031     1.007825032230
         H           -2.776085716042    -0.713113414146     0.872501724969     1.007825032230
         H           -2.754313716042    -0.690987414146    -0.917166275031     1.007825032230

  Basis Set: AUG-CC-PVTZ
    Blend: AUG-CC-PVTZ
  Basis Set: (AUG-CC-PVTZ AUX)
    Blend: AUG-CC-PVTZ-JKFIT
	 Reference Energy          =    -377.8152937369181927 [Eh]
	 Singles Energy            =      -0.0000000000000000 [Eh]
	 Same-Spin Energy          =      -0.3966808846673389 [Eh]
	 Opposite-Spin Energy      =      -1.2417795927431325 [Eh]
	 Correlation Energy        =      -1.6384604774104714 [Eh]
	 Total Energy              =    -379.4537542143286828 [Eh]

	 ================> DF-SCS-MP2 Energies <==================
	-----------------------------------------------------------
	 SCS Same-Spin Scale       =       0.3333333333333333 [-]
	 SCS Opposite-Spin Scale   =       1.2000000000000000 [-]
	 SCS Same-Spin Energy      =      -0.1322269615557796 [Eh]
	 SCS Opposite-Spin Energy  =      -1.4901355112917589 [Eh]
	 SCS Correlation Energy    =      -1.6223624728475385 [Eh]
	 SCS Total Energy          =    -379.4376562097657484 [Eh]
	-----------------------------------------------------------

  Dipole Moment: [D]
     X:    -2.8460      Y:     1.1998      Z:     0.0496     Total:     3.0890

*** Psi4 exiting successfully. Buy a developer a beer!
