                               Psi4 1.3.2 release

  ==> Input File <==

--------------------------------------------------------------------------
#psi4
#
memory 32 gb

molecule  {
0 1
  O       -1.5133534     0.5610371     0.0147177
  N        0.8840130     0.5088410    -0.0326410
  N        1.9094790    -0.3796650    -0.0187050
  C       -0.3281200    -0.1042590     0.0031940
  C       -0.1032490    -1.4732180     0.0219040
  C        1.1440790     1.9331410     0.0175110
  C        1.3002790    -1.5787310     0.0070160
  C       -2.6563940    -0.0670400    -0.0135030
  H       -0.8330430    -2.2689870     0.0348200
  H        1.1952250     2.2834660     1.0517640
  H        2.0986020     2.1064990    -0.4777900
  H        0.3432740     2.4564130    -0.5057130
  H        1.9052260    -2.4764620     0.0069120
  H       -3.4562640     0.6719480    -0.0131020
  H       -2.7349570    -0.7043590     0.8727740
  H       -2.7131850    -0.6822330    -0.9168940
units angstrom
no_reorient  #important for SAPT in psi4, default
symmetry c1  #important for SAPT in psi4, default
}

set PROPERTIES_ORIGIN ["COM"]
properties('MP2/aug-cc-pvtz', properties = ['dipole'])
--------------------------------------------------------------------------

    Molecular point group: c1
  Charge       = 0
  Multiplicity = 1
  Basis Set: AUG-CC-PVTZ
    Blend: AUG-CC-PVTZ
  Basis Set: (AUG-CC-PVTZ AUX)
    Blend: AUG-CC-PVTZ-JKFIT

    Orbital Energies [Eh]
    ---------------------

    Doubly Occupied:

       1A    -20.602641     2A    -15.636522     3A    -15.577839
       4A    -11.341933     5A    -11.284668     6A    -11.268643
       7A    -11.254599     8A    -11.215421     9A     -1.468095
      10A     -1.366497    11A     -1.119156    12A     -1.062398
      13A     -0.965436    14A     -0.936676    15A     -0.810650
      16A     -0.780032    17A     -0.733820    18A     -0.700479
      19A     -0.669820    20A     -0.641871    21A     -0.626505
      22A     -0.598440    23A     -0.582085    24A     -0.549136
      25A     -0.546612    26A     -0.499440    27A     -0.484105
      28A     -0.453060    29A     -0.352619    30A     -0.323629

  @DF-RHF Final Energy:  -377.83324690302476

   => Energetics <=

    Nuclear Repulsion Energy =            378.8793021218801869
    One-Electron Energy =               -1264.5194444036924324
    Two-Electron Energy =                 507.8068953787874875
    Total Energy =                       -377.8332469030247580
  Basis Set: (AUG-CC-PVTZ AUX)
    Blend: AUG-CC-PVTZ-RI
    Molecular point group: c1

    Geometry (in Angstrom), charge = 0, multiplicity = 1:

       Center              X                  Y                   Z               Mass
    ------------   -----------------  -----------------  -----------------  -----------------
         O           -1.539791120697     0.590498475701     0.014690443602    15.994914619570
         N            0.857575279303     0.538302375701    -0.032668256398    14.003074004430
         N            1.883041279303    -0.350203624299    -0.018732256398    14.003074004430
         C           -0.354557720697    -0.074797624299     0.003166743602    12.000000000000
         C           -0.129686720697    -1.443756624299     0.021876743602    12.000000000000
         C            1.117641279303     1.962602375701     0.017483743602    12.000000000000
         C            1.273841279303    -1.549269624299     0.006988743602    12.000000000000
         C           -2.682831720697    -0.037578624299    -0.013530256398    12.000000000000
         H           -0.859480720697    -2.239525624299     0.034792743602     1.007825032230
         H            1.168787279303     2.312927375701     1.051736743602     1.007825032230
         H            2.072164279303     2.135960375701    -0.477817256398     1.007825032230
         H            0.316836279303     2.485874375701    -0.505740256398     1.007825032230
         H            1.878788279303    -2.447000624299     0.006884743602     1.007825032230
         H           -3.482701720697     0.701409375701    -0.013129256398     1.007825032230
         H           -2.761394720697    -0.674897624299     0.872746743602     1.007825032230
         H           -2.739622720697    -0.652771624299    -0.916921256398     1.007825032230

  Basis Set: AUG-CC-PVTZ
    Blend: AUG-CC-PVTZ
  Basis Set: (AUG-CC-PVTZ AUX)
    Blend: AUG-CC-PVTZ-JKFIT
	 Reference Energy          =    -377.8332469030247580 [Eh]
	 Singles Energy            =      -0.0000000000000000 [Eh]
	 Same-Spin Energy          =      -0.3959786886180812 [Eh]
	 Opposite-Spin Energy      =      -1.2367062937781155 [Eh]
	 Correlation Energy        =      -1.6326849823961966 [Eh]
	 Total Energy              =    -379.4659318854209573 [Eh]

	 ================> DF-SCS-MP2 Energies <==================
	-----------------------------------------------------------
	 SCS Same-Spin Scale       =       0.3333333333333333 [-]
	 SCS Opposite-Spin Scale   =       1.2000000000000000 [-]
	 SCS Same-Spin Energy      =      -0.1319928962060271 [Eh]
	 SCS Opposite-Spin Energy  =      -1.4840475525337384 [Eh]
	 SCS Correlation Energy    =      -1.6160404487397655 [Eh]
	 SCS Total Energy          =    -379.4492873517644966 [Eh]
	-----------------------------------------------------------

  Dipole Moment: [D]
     X:    -2.4784      Y:     0.9206      Z:     0.0029     Total:     2.6438

*** Psi4 exiting successfully. Buy a developer a beer!
