                               Psi4 1.3.2 release

  ==> Input File <==

--------------------------------------------------------------------------
#psi4
#
memory 32 gb

molecule  {
0 1
  O       -1.4373610     0.6812660     0.0112400
  N        0.8840130     0.5088410    -0.0326410
  N        1.9094790    -0.3796650    -0.0187050
  C       -0.3281200    -0.1042590     0.0031940
  C       -0.1032490    -1.4732180     0.0219040
  C        1.1440790     1.9331410     0.0175110
  C        1.2549918    -1.6678681     0.0089281
  C       -2.6563940    -0.0670400    -0.0135030
  H       -0.8330430    -2.2689870     0.0348200
  H        1.1952250     2.2834660     1.0517640
  H        2.0986020     2.1064990    -0.4777900
  H        0.3432740     2.4564130    -0.5057130
  H        1.9052260    -2.4764620     0.0069120
  H       -3.4562640     0.6719480    -0.0131020
  H       -2.7349570    -0.7043590     0.8727740
  H       -2.7131850    -0.6822330    -0.9168940
units angstrom
no_reorient  #important for SAPT in psi4, default
symmetry c1  #important for SAPT in psi4, default
}

set PROPERTIES_ORIGIN ["COM"]
properties('MP2/aug-cc-pvtz', properties = ['dipole'])
--------------------------------------------------------------------------

    Molecular point group: c1
  Charge       = 0
  Multiplicity = 1
  Basis Set: AUG-CC-PVTZ
    Blend: AUG-CC-PVTZ
  Basis Set: (AUG-CC-PVTZ AUX)
    Blend: AUG-CC-PVTZ-JKFIT

    Orbital Energies [Eh]
    ---------------------

    Doubly Occupied:

       1A    -20.609082     2A    -15.636545     3A    -15.575361
       4A    -11.334187     5A    -11.298475     6A    -11.266137
       7A    -11.253711     8A    -11.218972     9A     -1.436378
      10A     -1.346329    11A     -1.103114    12A     -1.045844
      13A     -0.966219    14A     -0.936493    15A     -0.809288
      16A     -0.768645    17A     -0.728946    18A     -0.681813
      19A     -0.649392    20A     -0.632010    21A     -0.616987
      22A     -0.597404    23A     -0.586116    24A     -0.544540
      25A     -0.541041    26A     -0.526071    27A     -0.497197
      28A     -0.440320    29A     -0.356969    30A     -0.305621

  @DF-RHF Final Energy:  -377.82487303878946

   => Energetics <=

    Nuclear Repulsion Energy =            376.1727405950128968
    One-Electron Energy =               -1259.3768119188994206
    Two-Electron Energy =                 505.3791982850970612
    Total Energy =                       -377.8248730387894625
  Basis Set: (AUG-CC-PVTZ AUX)
    Blend: AUG-CC-PVTZ-RI
    Molecular point group: c1

    Geometry (in Angstrom), charge = 0, multiplicity = 1:

       Center              X                  Y                   Z               Mass
    ------------   -----------------  -----------------  -----------------  -----------------
         O           -1.469795718586     0.703112009860     0.011504366361    15.994914619570
         N            0.851578281414     0.530687009860    -0.032376633639    14.003074004430
         N            1.877044281414    -0.357818990140    -0.018440633639    14.003074004430
         C           -0.360554718586    -0.082412990140     0.003458366361    12.000000000000
         C           -0.135683718586    -1.451371990140     0.022168366361    12.000000000000
         C            1.111644281414     1.954987009860     0.017775366361    12.000000000000
         C            1.222557081414    -1.646022090140     0.009192466361    12.000000000000
         C           -2.688828718586    -0.045193990140    -0.013238633639    12.000000000000
         H           -0.865477718586    -2.247140990140     0.035084366361     1.007825032230
         H            1.162790281414     2.305312009860     1.052028366361     1.007825032230
         H            2.066167281414     2.128345009860    -0.477525633639     1.007825032230
         H            0.310839281414     2.478259009860    -0.505448633639     1.007825032230
         H            1.872791281414    -2.454615990140     0.007176366361     1.007825032230
         H           -3.488698718586     0.693794009860    -0.012837633639     1.007825032230
         H           -2.767391718586    -0.682512990140     0.873038366361     1.007825032230
         H           -2.745619718586    -0.660386990140    -0.916629633639     1.007825032230

  Basis Set: AUG-CC-PVTZ
    Blend: AUG-CC-PVTZ
  Basis Set: (AUG-CC-PVTZ AUX)
    Blend: AUG-CC-PVTZ-JKFIT
	 Reference Energy          =    -377.8248730387894625 [Eh]
	 Singles Energy            =      -0.0000000000000000 [Eh]
	 Same-Spin Energy          =      -0.3994655084125755 [Eh]
	 Opposite-Spin Energy      =      -1.2454109637156443 [Eh]
	 Correlation Energy        =      -1.6448764721282199 [Eh]
	 Total Energy              =    -379.4697495109176657 [Eh]

	 ================> DF-SCS-MP2 Energies <==================
	-----------------------------------------------------------
	 SCS Same-Spin Scale       =       0.3333333333333333 [-]
	 SCS Opposite-Spin Scale   =       1.2000000000000000 [-]
	 SCS Same-Spin Energy      =      -0.1331551694708585 [Eh]
	 SCS Opposite-Spin Energy  =      -1.4944931564587731 [Eh]
	 SCS Correlation Energy    =      -1.6276483259296315 [Eh]
	 SCS Total Energy          =    -379.4525213647190753 [Eh]
	-----------------------------------------------------------

  Dipole Moment: [D]
     X:    -3.0652      Y:     0.6979      Z:     0.0083     Total:     3.1437

*** Psi4 exiting successfully. Buy a developer a beer!
