                               Psi4 1.3.2 release

  ==> Input File <==

--------------------------------------------------------------------------
#psi4
#
memory 32 gb

molecule  {
0 1
  O       -1.4373610     0.6812660     0.0112400
  N        0.8840130     0.5088410    -0.0326410
  N        1.7583323    -0.2487053    -0.0207591
  C       -0.3281200    -0.1042590     0.0031940
  C       -0.1032490    -1.4732180     0.0219040
  C        1.1440790     1.9331410     0.0175110
  C        1.3002790    -1.5787310     0.0070160
  C       -2.6563940    -0.0670400    -0.0135030
  H       -0.8330430    -2.2689870     0.0348200
  H        1.1952250     2.2834660     1.0517640
  H        2.0986020     2.1064990    -0.4777900
  H        0.3432740     2.4564130    -0.5057130
  H        1.9052260    -2.4764620     0.0069120
  H       -3.4562640     0.6719480    -0.0131020
  H       -2.7349570    -0.7043590     0.8727740
  H       -2.7131850    -0.6822330    -0.9168940
units angstrom
no_reorient  #important for SAPT in psi4, default
symmetry c1  #important for SAPT in psi4, default
}

set PROPERTIES_ORIGIN ["COM"]
properties('MP2/aug-cc-pvtz', properties = ['dipole'])
--------------------------------------------------------------------------

    Molecular point group: c1
  Charge       = 0
  Multiplicity = 1
  Basis Set: AUG-CC-PVTZ
    Blend: AUG-CC-PVTZ
  Basis Set: (AUG-CC-PVTZ AUX)
    Blend: AUG-CC-PVTZ-JKFIT

    Orbital Energies [Eh]
    ---------------------

    Doubly Occupied:

       1A    -20.594529     2A    -15.648447     3A    -15.566580
       4A    -11.308585     5A    -11.291401     6A    -11.270493
       7A    -11.240144     8A    -11.220083     9A     -1.475302
      10A     -1.408689    11A     -1.106862    12A     -1.062732
      13A     -0.967273    14A     -0.933312    15A     -0.829943
      16A     -0.762078    17A     -0.733658    18A     -0.696905
      19A     -0.647006    20A     -0.640667    21A     -0.630254
      22A     -0.599746    23A     -0.580544    24A     -0.560474
      25A     -0.557814    26A     -0.516560    27A     -0.501073
      28A     -0.423107    29A     -0.362696    30A     -0.287326

  @DF-RHF Final Energy:  -377.79800303345036

   => Energetics <=

    Nuclear Repulsion Energy =            382.6064422902172169
    One-Electron Energy =               -1271.9603229903564170
    Two-Electron Energy =                 511.5558776666887866
    Total Energy =                       -377.7980030334503567
  Basis Set: (AUG-CC-PVTZ AUX)
    Blend: AUG-CC-PVTZ-RI
    Molecular point group: c1

    Geometry (in Angstrom), charge = 0, multiplicity = 1:

       Center              X                  Y                   Z               Mass
    ------------   -----------------  -----------------  -----------------  -----------------
         O           -1.455758411710     0.677202776698     0.011965790813    15.994914619570
         N            0.865615588290     0.504777776698    -0.031915209187    14.003074004430
         N            1.739934888290    -0.252768523302    -0.020033309187    14.003074004430
         C           -0.346517411710    -0.108322223302     0.003919790813    12.000000000000
         C           -0.121646411710    -1.477281223302     0.022629790813    12.000000000000
         C            1.125681588290     1.929077776698     0.018236790813    12.000000000000
         C            1.281881588290    -1.582794223302     0.007741790813    12.000000000000
         C           -2.674791411710    -0.071103223302    -0.012777209187    12.000000000000
         H           -0.851440411710    -2.273050223302     0.035545790813     1.007825032230
         H            1.176827588290     2.279402776698     1.052489790813     1.007825032230
         H            2.080204588290     2.102435776698    -0.477064209187     1.007825032230
         H            0.324876588290     2.452349776698    -0.504987209187     1.007825032230
         H            1.886828588290    -2.480525223302     0.007637790813     1.007825032230
         H           -3.474661411710     0.667884776698    -0.012376209187     1.007825032230
         H           -2.753354411710    -0.708422223302     0.873499790813     1.007825032230
         H           -2.731582411710    -0.686296223302    -0.916168209187     1.007825032230

  Basis Set: AUG-CC-PVTZ
    Blend: AUG-CC-PVTZ
  Basis Set: (AUG-CC-PVTZ AUX)
    Blend: AUG-CC-PVTZ-JKFIT
	 Reference Energy          =    -377.7980030334503567 [Eh]
	 Singles Energy            =      -0.0000000000000000 [Eh]
	 Same-Spin Energy          =      -0.3985968539085519 [Eh]
	 Opposite-Spin Energy      =      -1.2387918339158488 [Eh]
	 Correlation Energy        =      -1.6373886878244006 [Eh]
	 Total Energy              =    -379.4353917212747547 [Eh]

	 ================> DF-SCS-MP2 Energies <==================
	-----------------------------------------------------------
	 SCS Same-Spin Scale       =       0.3333333333333333 [-]
	 SCS Opposite-Spin Scale   =       1.2000000000000000 [-]
	 SCS Same-Spin Energy      =      -0.1328656179695173 [Eh]
	 SCS Opposite-Spin Energy  =      -1.4865502006990186 [Eh]
	 SCS Correlation Energy    =      -1.6194158186685359 [Eh]
	 SCS Total Energy          =    -379.4174188521188853 [Eh]
	-----------------------------------------------------------

  Dipole Moment: [D]
     X:    -2.6105      Y:     0.7580      Z:    -0.0039     Total:     2.7183

*** Psi4 exiting successfully. Buy a developer a beer!
