                               Psi4 1.4a3.dev225

  ==> Input File <==

--------------------------------------------------------------------------
#psi4
#
memory 32 gb

molecule  {
0 1
  O       -1.4373610     0.6812660     0.0112400
  N        0.8840130     0.5088410    -0.0326410
  N        1.9094790    -0.3796650    -0.0187050
  C       -0.3444415    -0.0927007     0.0033124
  C       -0.1032490    -1.4732180     0.0219040
  C        1.1440790     1.9331410     0.0175110
  C        1.3002790    -1.5787310     0.0070160
  C       -2.6563940    -0.0670400    -0.0135030
  H       -0.8330430    -2.2689870     0.0348200
  H        1.1952250     2.2834660     1.0517640
  H        2.0986020     2.1064990    -0.4777900
  H        0.3432740     2.4564130    -0.5057130
  H        1.9052260    -2.4764620     0.0069120
  H       -3.4562640     0.6719480    -0.0131020
  H       -2.7349570    -0.7043590     0.8727740
  H       -2.7131850    -0.6822330    -0.9168940
units angstrom
no_reorient  #important for SAPT in psi4, default
symmetry c1  #important for SAPT in psi4, default
}

set PROPERTIES_ORIGIN ["COM"]
properties('MP2/aug-cc-pvtz', properties = ['dipole'])
--------------------------------------------------------------------------

    Molecular point group: c1
  Charge       = 0
  Multiplicity = 1
  Basis Set: AUG-CC-PVTZ
    Blend: AUG-CC-PVTZ
  Basis Set: (AUG-CC-PVTZ AUX)
    Blend: AUG-CC-PVTZ-JKFIT

    Orbital Energies [Eh]
    ---------------------

    Doubly Occupied:

       1A    -20.612529     2A    -15.627599     3A    -15.572859
       4A    -11.337471     5A    -11.300340     6A    -11.263082
       7A    -11.251273     8A    -11.215930     9A     -1.445688
      10A     -1.354123    11A     -1.112558    12A     -1.046569
      13A     -0.967202    14A     -0.932630    15A     -0.802789
      16A     -0.774208    17A     -0.726331    18A     -0.685079
      19A     -0.648284    20A     -0.632482    21A     -0.621879
      22A     -0.593268    23A     -0.574853    24A     -0.545948
      25A     -0.544449    26A     -0.524847    27A     -0.503984
      28A     -0.447068    29A     -0.348110    30A     -0.317341

  @DF-RHF Final Energy:  -377.84311382747040

   => Energetics <=

    Nuclear Repulsion Energy =            377.4301142261061841
    One-Electron Energy =               -1261.8849131491813296
    Two-Electron Energy =                 506.6116850956047415
    Total Energy =                       -377.8431138274704040
  Basis Set: (AUG-CC-PVTZ AUX)
    Blend: AUG-CC-PVTZ-RI
    Molecular point group: c1

    Geometry (in Angstrom), charge = 0, multiplicity = 1:

       Center              X                  Y                   Z               Mass
    ------------   -----------------  -----------------  -----------------  -----------------
         O           -1.472897423376     0.692329346070     0.011696439326    15.994914619570
         N            0.848476576624     0.519904346070    -0.032184560674    14.003074004430
         N            1.873942576624    -0.368601653930    -0.018248560674    14.003074004430
         C           -0.379977923376    -0.081637353930     0.003768839326    12.000000000000
         C           -0.138785423376    -1.462154653930     0.022360439326    12.000000000000
         C            1.108542576624     1.944204346070     0.017967439326    12.000000000000
         C            1.264742576624    -1.567667653930     0.007472439326    12.000000000000
         C           -2.691930423376    -0.055976653930    -0.013046560674    12.000000000000
         H           -0.868579423376    -2.257923653930     0.035276439326     1.007825032230
         H            1.159688576624     2.294529346070     1.052220439326     1.007825032230
         H            2.063065576624     2.117562346070    -0.477333560674     1.007825032230
         H            0.307737576624     2.467476346070    -0.505256560674     1.007825032230
         H            1.869689576624    -2.465398653930     0.007368439326     1.007825032230
         H           -3.491800423376     0.683011346070    -0.012645560674     1.007825032230
         H           -2.770493423376    -0.693295653930     0.873230439326     1.007825032230
         H           -2.748721423376    -0.671169653930    -0.916437560674     1.007825032230

  Basis Set: AUG-CC-PVTZ
    Blend: AUG-CC-PVTZ
  Basis Set: (AUG-CC-PVTZ AUX)
    Blend: AUG-CC-PVTZ-JKFIT
	 Reference Energy          =    -377.8431138274704040 [Eh]
	 Singles Energy            =      -0.0000000000000000 [Eh]
	 Same-Spin Energy          =      -0.3966012961072359 [Eh]
	 Opposite-Spin Energy      =      -1.2396921596260715 [Eh]
	 Correlation Energy        =      -1.6362934557333073 [Eh]
	 Total Energy              =    -379.4794072832037273 [Eh]

	 ================> DF-SCS-MP2 Energies <==================
	-----------------------------------------------------------
	 SCS Same-Spin Scale       =       0.3333333333333333 [-]
	 SCS Opposite-Spin Scale   =       1.2000000000000000 [-]
	 SCS Same-Spin Energy      =      -0.1322004320357453 [Eh]
	 SCS Opposite-Spin Energy  =      -1.4876305915512857 [Eh]
	 SCS Correlation Energy    =      -1.6198310235870310 [Eh]
	 SCS Total Energy          =    -379.4629448510574434 [Eh]
	-----------------------------------------------------------

  Dipole Moment: [D]
     X:    -3.1190      Y:     0.6939      Z:     0.0031     Total:     3.1952

*** Psi4 exiting successfully. Buy a developer a beer!
