                               Psi4 1.4a3.dev225

  ==> Input File <==

--------------------------------------------------------------------------
#psi4
#
memory 32 gb

molecule  {
0 1
  O       -1.4373610     0.6812660     0.0112400
  N        0.8840130     0.5088410    -0.0326410
  N        1.9245937    -0.3927610    -0.0184996
  C       -0.3281200    -0.1042590     0.0031940
  C       -0.1032490    -1.4732180     0.0219040
  C        1.1440790     1.9331410     0.0175110
  C        1.3002790    -1.5787310     0.0070160
  C       -2.6563940    -0.0670400    -0.0135030
  H       -0.8330430    -2.2689870     0.0348200
  H        1.1952250     2.2834660     1.0517640
  H        2.0986020     2.1064990    -0.4777900
  H        0.3432740     2.4564130    -0.5057130
  H        1.9052260    -2.4764620     0.0069120
  H       -3.4562640     0.6719480    -0.0131020
  H       -2.7349570    -0.7043590     0.8727740
  H       -2.7131850    -0.6822330    -0.9168940
units angstrom
no_reorient  #important for SAPT in psi4, default
symmetry c1  #important for SAPT in psi4, default
}

set PROPERTIES_ORIGIN ["COM"]
properties('MP2/aug-cc-pvtz', properties = ['dipole'])
--------------------------------------------------------------------------

    Molecular point group: c1
  Charge       = 0
  Multiplicity = 1
  Basis Set: AUG-CC-PVTZ
    Blend: AUG-CC-PVTZ
  Basis Set: (AUG-CC-PVTZ AUX)
    Blend: AUG-CC-PVTZ-JKFIT

    Orbital Energies [Eh]
    ---------------------

    Doubly Occupied:

       1A    -20.610314     2A    -15.626669     3A    -15.575010
       4A    -11.337573     5A    -11.298528     6A    -11.263501
       7A    -11.253194     8A    -11.215406     9A     -1.437129
      10A     -1.349821    11A     -1.115370    12A     -1.048875
      13A     -0.964784    14A     -0.932886    15A     -0.802276
      16A     -0.772015    17A     -0.725361    18A     -0.681765
      19A     -0.645337    20A     -0.631399    21A     -0.620766
      22A     -0.593663    23A     -0.576214    24A     -0.545270
      25A     -0.543153    26A     -0.524181    27A     -0.500841
      28A     -0.450294    29A     -0.349526    30A     -0.322924

  @DF-RHF Final Energy:  -377.84326654509459

   => Energetics <=

    Nuclear Repulsion Energy =            377.0270501480098915
    One-Electron Energy =               -1261.1125428281977747
    Two-Electron Energy =                 506.2422261350932331
    Total Energy =                       -377.8432665450945933
  Basis Set: (AUG-CC-PVTZ AUX)
    Blend: AUG-CC-PVTZ-RI
    Molecular point group: c1

    Geometry (in Angstrom), charge = 0, multiplicity = 1:

       Center              X                  Y                   Z               Mass
    ------------   -----------------  -----------------  -----------------  -----------------
         O           -1.476533840857     0.695203461094     0.011683451785    15.994914619570
         N            0.844840159143     0.522778461094    -0.032197548215    14.003074004430
         N            1.885420859143    -0.378823538906    -0.018056148215    14.003074004430
         C           -0.367292840857    -0.090321538906     0.003637451785    12.000000000000
         C           -0.142421840857    -1.459280538906     0.022347451785    12.000000000000
         C            1.104906159143     1.947078461094     0.017954451785    12.000000000000
         C            1.261106159143    -1.564793538906     0.007459451785    12.000000000000
         C           -2.695566840857    -0.053102538906    -0.013059548215    12.000000000000
         H           -0.872215840857    -2.255049538906     0.035263451785     1.007825032230
         H            1.156052159143     2.297403461094     1.052207451785     1.007825032230
         H            2.059429159143     2.120436461094    -0.477346548215     1.007825032230
         H            0.304101159143     2.470350461094    -0.505269548215     1.007825032230
         H            1.866053159143    -2.462524538906     0.007355451785     1.007825032230
         H           -3.495436840857     0.685885461094    -0.012658548215     1.007825032230
         H           -2.774129840857    -0.690421538906     0.873217451785     1.007825032230
         H           -2.752357840857    -0.668295538906    -0.916450548215     1.007825032230

  Basis Set: AUG-CC-PVTZ
    Blend: AUG-CC-PVTZ
  Basis Set: (AUG-CC-PVTZ AUX)
    Blend: AUG-CC-PVTZ-JKFIT
	 Reference Energy          =    -377.8432665450945933 [Eh]
	 Singles Energy            =      -0.0000000000000000 [Eh]
	 Same-Spin Energy          =      -0.3962176244752429 [Eh]
	 Opposite-Spin Energy      =      -1.2397458247995505 [Eh]
	 Correlation Energy        =      -1.6359634492747934 [Eh]
	 Total Energy              =    -379.4792299943694047 [Eh]

	 ================> DF-SCS-MP2 Energies <==================
	-----------------------------------------------------------
	 SCS Same-Spin Scale       =       0.3333333333333333 [-]
	 SCS Opposite-Spin Scale   =       1.2000000000000000 [-]
	 SCS Same-Spin Energy      =      -0.1320725414917476 [Eh]
	 SCS Opposite-Spin Energy  =      -1.4876949897594607 [Eh]
	 SCS Correlation Energy    =      -1.6197675312512083 [Eh]
	 SCS Total Energy          =    -379.4630340763458207 [Eh]
	-----------------------------------------------------------

  Dipole Moment: [D]
     X:    -3.0247      Y:     0.6336      Z:     0.0037     Total:     3.0903

*** Psi4 exiting successfully. Buy a developer a beer!
