                               Psi4 1.3.2 release

  ==> Input File <==

--------------------------------------------------------------------------
#psi4
#
memory 32 gb

molecule  {
0 1
  O       -1.4234896     0.7005017     0.0106508
  N        0.8840130     0.5088410    -0.0326410
  N        1.9094790    -0.3796650    -0.0187050
  C       -0.3281200    -0.1042590     0.0031940
  C       -0.1032490    -1.4732180     0.0219040
  C        1.1440790     1.9331410     0.0175110
  C        1.3002790    -1.5787310     0.0070160
  C       -2.6563940    -0.0670400    -0.0135030
  H       -0.8330430    -2.2689870     0.0348200
  H        1.1952250     2.2834660     1.0517640
  H        2.0986020     2.1064990    -0.4777900
  H        0.3432740     2.4564130    -0.5057130
  H        1.9052260    -2.4764620     0.0069120
  H       -3.4562640     0.6719480    -0.0131020
  H       -2.7349570    -0.7043590     0.8727740
  H       -2.7131850    -0.6822330    -0.9168940
units angstrom
no_reorient  #important for SAPT in psi4, default
symmetry c1  #important for SAPT in psi4, default
}

set PROPERTIES_ORIGIN ["COM"]
properties('MP2/aug-cc-pvtz', properties = ['dipole'])
--------------------------------------------------------------------------

    Molecular point group: c1
  Charge       = 0
  Multiplicity = 1
  Basis Set: AUG-CC-PVTZ
    Blend: AUG-CC-PVTZ
  Basis Set: (AUG-CC-PVTZ AUX)
    Blend: AUG-CC-PVTZ-JKFIT

    Orbital Energies [Eh]
    ---------------------

    Doubly Occupied:

       1A    -20.609947     2A    -15.627165     3A    -15.573128
       4A    -11.334694     5A    -11.300422     6A    -11.263404
       7A    -11.251763     8A    -11.215780     9A     -1.432829
      10A     -1.354461    11A     -1.113241    12A     -1.047838
      13A     -0.964408    14A     -0.933637    15A     -0.804150
      16A     -0.769422    17A     -0.724959    18A     -0.679607
      19A     -0.641484    20A     -0.631540    21A     -0.619754
      22A     -0.592931    23A     -0.576661    24A     -0.546203
      25A     -0.544523    26A     -0.526751    27A     -0.503091
      28A     -0.447383    29A     -0.349222    30A     -0.320295

  @DF-RHF Final Energy:  -377.84240635754759

   => Energetics <=

    Nuclear Repulsion Energy =            377.2993279292269335
    One-Electron Energy =               -1261.6820859477347767
    Two-Electron Energy =                 506.5403516609602548
    Total Energy =                       -377.8424063575475884
  Basis Set: (AUG-CC-PVTZ AUX)
    Blend: AUG-CC-PVTZ-RI
    Molecular point group: c1

    Geometry (in Angstrom), charge = 0, multiplicity = 1:

       Center              X                  Y                   Z               Mass
    ------------   -----------------  -----------------  -----------------  -----------------
         O           -1.462753635413     0.710057208696     0.011204014707    15.994914619570
         N            0.844748964587     0.518396508696    -0.032087785293    14.003074004430
         N            1.870214964587    -0.370109491304    -0.018151785293    14.003074004430
         C           -0.367384035413    -0.094703491304     0.003747214707    12.000000000000
         C           -0.142513035413    -1.463662491304     0.022457214707    12.000000000000
         C            1.104814964587     1.942696508696     0.018064214707    12.000000000000
         C            1.261014964587    -1.569175491304     0.007569214707    12.000000000000
         C           -2.695658035413    -0.057484491304    -0.012949785293    12.000000000000
         H           -0.872307035413    -2.259431491304     0.035373214707     1.007825032230
         H            1.155960964587     2.293021508696     1.052317214707     1.007825032230
         H            2.059337964587     2.116054508696    -0.477236785293     1.007825032230
         H            0.304009964587     2.465968508696    -0.505159785293     1.007825032230
         H            1.865961964587    -2.466906491304     0.007465214707     1.007825032230
         H           -3.495528035413     0.681503508696    -0.012548785293     1.007825032230
         H           -2.774221035413    -0.694803491304     0.873327214707     1.007825032230
         H           -2.752449035413    -0.672677491304    -0.916340785293     1.007825032230

  Basis Set: AUG-CC-PVTZ
    Blend: AUG-CC-PVTZ
  Basis Set: (AUG-CC-PVTZ AUX)
    Blend: AUG-CC-PVTZ-JKFIT
	 Reference Energy          =    -377.8424063575475884 [Eh]
	 Singles Energy            =      -0.0000000000000000 [Eh]
	 Same-Spin Energy          =      -0.3966202757581022 [Eh]
	 Opposite-Spin Energy      =      -1.2403094845313265 [Eh]
	 Correlation Energy        =      -1.6369297602894286 [Eh]
	 Total Energy              =    -379.4793361178370219 [Eh]

	 ================> DF-SCS-MP2 Energies <==================
	-----------------------------------------------------------
	 SCS Same-Spin Scale       =       0.3333333333333333 [-]
	 SCS Opposite-Spin Scale   =       1.2000000000000000 [-]
	 SCS Same-Spin Energy      =      -0.1322067585860341 [Eh]
	 SCS Opposite-Spin Energy  =      -1.4883713814375918 [Eh]
	 SCS Correlation Energy    =      -1.6205781400236259 [Eh]
	 SCS Total Energy          =    -379.4629844975711990 [Eh]
	-----------------------------------------------------------

  Dipole Moment: [D]
     X:    -3.0754      Y:     0.6059      Z:     0.0032     Total:     3.1345

*** Psi4 exiting successfully. Buy a developer a beer!
