                               Psi4 1.3.2 release

  ==> Input File <==

--------------------------------------------------------------------------
#psi4
#
memory 32 gb

molecule  {
0 1
  O       -1.4373610     0.6812660     0.0112400
  N        0.8840130     0.5088410    -0.0326410
  N        1.9688631    -0.3060111    -0.0143625
  C       -0.3281200    -0.1042590     0.0031940
  C       -0.1032490    -1.4732180     0.0219040
  C        1.1440790     1.9331410     0.0175110
  C        1.3002790    -1.5787310     0.0070160
  C       -2.6563940    -0.0670400    -0.0135030
  H       -0.8330430    -2.2689870     0.0348200
  H        1.1952250     2.2834660     1.0517640
  H        2.0986020     2.1064990    -0.4777900
  H        0.3432740     2.4564130    -0.5057130
  H        1.9052260    -2.4764620     0.0069120
  H       -3.4562640     0.6719480    -0.0131020
  H       -2.7349570    -0.7043590     0.8727740
  H       -2.7131850    -0.6822330    -0.9168940
units angstrom
no_reorient  #important for SAPT in psi4, default
symmetry c1  #important for SAPT in psi4, default
}

set PROPERTIES_ORIGIN ["COM"]
properties('MP2/aug-cc-pvtz', properties = ['dipole'])
--------------------------------------------------------------------------

    Molecular point group: c1
  Charge       = 0
  Multiplicity = 1
  Basis Set: AUG-CC-PVTZ
    Blend: AUG-CC-PVTZ
  Basis Set: (AUG-CC-PVTZ AUX)
    Blend: AUG-CC-PVTZ-JKFIT

    Orbital Energies [Eh]
    ---------------------

    Doubly Occupied:

       1A    -20.610911     2A    -15.633080     3A    -15.582923
       4A    -11.338150     5A    -11.300104     6A    -11.263026
       7A    -11.261486     8A    -11.223449     9A     -1.438080
      10A     -1.349305    11A     -1.096070    12A     -1.055897
      13A     -0.965964    14A     -0.929489    15A     -0.807224
      16A     -0.767767    17A     -0.725890    18A     -0.683020
      19A     -0.647543    20A     -0.632164    21A     -0.616924
      22A     -0.594101    23A     -0.573611    24A     -0.543430
      25A     -0.536707    26A     -0.524022    27A     -0.498566
      28A     -0.457846    29A     -0.351490    30A     -0.312399

  @DF-RHF Final Energy:  -377.82607247410482

   => Energetics <=

    Nuclear Repulsion Energy =            375.8621126080131489
    One-Electron Energy =               -1258.7350977473133753
    Two-Electron Energy =                 505.0469126651954070
    Total Energy =                       -377.8260724741048193
  Basis Set: (AUG-CC-PVTZ AUX)
    Blend: AUG-CC-PVTZ-RI
    Molecular point group: c1

    Geometry (in Angstrom), charge = 0, multiplicity = 1:

       Center              X                  Y                   Z               Mass
    ------------   -----------------  -----------------  -----------------  -----------------
         O           -1.482065586548     0.684363504249     0.011166494584    15.994914619570
         N            0.839308413452     0.511938504249    -0.032714505416    14.003074004430
         N            1.924158513452    -0.302913595751    -0.014436005416    14.003074004430
         C           -0.372824586548    -0.101161495751     0.003120494584    12.000000000000
         C           -0.147953586548    -1.470120495751     0.021830494584    12.000000000000
         C            1.099374413452     1.936238504249     0.017437494584    12.000000000000
         C            1.255574413452    -1.575633495751     0.006942494584    12.000000000000
         C           -2.701098586548    -0.063942495751    -0.013576505416    12.000000000000
         H           -0.877747586548    -2.265889495751     0.034746494584     1.007825032230
         H            1.150520413452     2.286563504249     1.051690494584     1.007825032230
         H            2.053897413452     2.109596504249    -0.477863505416     1.007825032230
         H            0.298569413452     2.459510504249    -0.505786505416     1.007825032230
         H            1.860521413452    -2.473364495751     0.006838494584     1.007825032230
         H           -3.500968586548     0.675045504249    -0.013175505416     1.007825032230
         H           -2.779661586548    -0.701261495751     0.872700494584     1.007825032230
         H           -2.757889586548    -0.679135495751    -0.916967505416     1.007825032230

  Basis Set: AUG-CC-PVTZ
    Blend: AUG-CC-PVTZ
  Basis Set: (AUG-CC-PVTZ AUX)
    Blend: AUG-CC-PVTZ-JKFIT
	 Reference Energy          =    -377.8260724741048193 [Eh]
	 Singles Energy            =      -0.0000000000000000 [Eh]
	 Same-Spin Energy          =      -0.3992655351618143 [Eh]
	 Opposite-Spin Energy      =      -1.2457032512336772 [Eh]
	 Correlation Energy        =      -1.6449687863954916 [Eh]
	 Total Energy              =    -379.4710412605003285 [Eh]

	 ================> DF-SCS-MP2 Energies <==================
	-----------------------------------------------------------
	 SCS Same-Spin Scale       =       0.3333333333333333 [-]
	 SCS Opposite-Spin Scale   =       1.2000000000000000 [-]
	 SCS Same-Spin Energy      =      -0.1330885117206048 [Eh]
	 SCS Opposite-Spin Energy  =      -1.4948439014804127 [Eh]
	 SCS Correlation Energy    =      -1.6279324132010173 [Eh]
	 SCS Total Energy          =    -379.4540048873058140 [Eh]
	-----------------------------------------------------------

  Dipole Moment: [D]
     X:    -3.1870      Y:     0.5788      Z:    -0.0001     Total:     3.2391

*** Psi4 exiting successfully. Buy a developer a beer!
