                               Psi4 1.4a3.dev225

  ==> Input File <==

--------------------------------------------------------------------------
#psi4
#
memory 32 gb

molecule  {
0 1
  O       -1.4373610     0.6812660     0.0112400
  N        0.8840130     0.5088410    -0.0326410
  N        1.9094790    -0.3796650    -0.0187050
  C       -0.2835182    -0.0816993     0.0018754
  C       -0.1032490    -1.4732180     0.0219040
  C        1.1440790     1.9331410     0.0175110
  C        1.3002790    -1.5787310     0.0070160
  C       -2.6563940    -0.0670400    -0.0135030
  H       -0.8330430    -2.2689870     0.0348200
  H        1.1952250     2.2834660     1.0517640
  H        2.0986020     2.1064990    -0.4777900
  H        0.3432740     2.4564130    -0.5057130
  H        1.9052260    -2.4764620     0.0069120
  H       -3.4562640     0.6719480    -0.0131020
  H       -2.7349570    -0.7043590     0.8727740
  H       -2.7131850    -0.6822330    -0.9168940
units angstrom
no_reorient  #important for SAPT in psi4, default
symmetry c1  #important for SAPT in psi4, default
}

set PROPERTIES_ORIGIN ["COM"]
properties('MP2/aug-cc-pvtz', properties = ['dipole'])
--------------------------------------------------------------------------

    Molecular point group: c1
  Charge       = 0
  Multiplicity = 1
  Basis Set: AUG-CC-PVTZ
    Blend: AUG-CC-PVTZ
  Basis Set: (AUG-CC-PVTZ AUX)
    Blend: AUG-CC-PVTZ-JKFIT

    Orbital Energies [Eh]
    ---------------------

    Doubly Occupied:

       1A    -20.603937     2A    -15.633515     3A    -15.570583
       4A    -11.334394     5A    -11.295715     6A    -11.267744
       7A    -11.253566     8A    -11.214812     9A     -1.428631
      10A     -1.364523    11A     -1.121251    12A     -1.050065
      13A     -0.960219    14A     -0.940523    15A     -0.810631
      16A     -0.766568    17A     -0.727050    18A     -0.681077
      19A     -0.641098    20A     -0.635674    21A     -0.618316
      22A     -0.593259    23A     -0.584757    24A     -0.549304
      25A     -0.548020    26A     -0.514853    27A     -0.496889
      28A     -0.448607    29A     -0.353847    30A     -0.321568

  @DF-RHF Final Energy:  -377.84277980893012

   => Energetics <=

    Nuclear Repulsion Energy =            377.8447177773154522
    One-Electron Energy =               -1262.7130031771014274
    Two-Electron Energy =                 507.0255055908558006
    Total Energy =                       -377.8427798089301177
  Basis Set: (AUG-CC-PVTZ AUX)
    Blend: AUG-CC-PVTZ-RI
    Molecular point group: c1

    Geometry (in Angstrom), charge = 0, multiplicity = 1:

       Center              X                  Y                   Z               Mass
    ------------   -----------------  -----------------  -----------------  -----------------
         O           -1.479421211562     0.691151294268     0.011850316145    15.994914619570
         N            0.841952788438     0.518726294268    -0.032030683855    14.003074004430
         N            1.867418788438    -0.369779705732    -0.018094683855    14.003074004430
         C           -0.325578411562    -0.071814005732     0.002485716145    12.000000000000
         C           -0.145309211562    -1.463332705732     0.022514316145    12.000000000000
         C            1.102018788438     1.943026294268     0.018121316145    12.000000000000
         C            1.258218788438    -1.568845705732     0.007626316145    12.000000000000
         C           -2.698454211562    -0.057154705732    -0.012892683855    12.000000000000
         H           -0.875103211562    -2.259101705732     0.035430316145     1.007825032230
         H            1.153164788438     2.293351294268     1.052374316145     1.007825032230
         H            2.056541788438     2.116384294268    -0.477179683855     1.007825032230
         H            0.301213788438     2.466298294268    -0.505102683855     1.007825032230
         H            1.863165788438    -2.466576705732     0.007522316145     1.007825032230
         H           -3.498324211562     0.681833294268    -0.012491683855     1.007825032230
         H           -2.777017211562    -0.694473705732     0.873384316145     1.007825032230
         H           -2.755245211562    -0.672347705732    -0.916283683855     1.007825032230

  Basis Set: AUG-CC-PVTZ
    Blend: AUG-CC-PVTZ
  Basis Set: (AUG-CC-PVTZ AUX)
    Blend: AUG-CC-PVTZ-JKFIT
	 Reference Energy          =    -377.8427798089301177 [Eh]
	 Singles Energy            =      -0.0000000000000000 [Eh]
	 Same-Spin Energy          =      -0.3958577917033236 [Eh]
	 Opposite-Spin Energy      =      -1.2384696324470421 [Eh]
	 Correlation Energy        =      -1.6343274241503658 [Eh]
	 Total Energy              =    -379.4771072330804600 [Eh]

	 ================> DF-SCS-MP2 Energies <==================
	-----------------------------------------------------------
	 SCS Same-Spin Scale       =       0.3333333333333333 [-]
	 SCS Opposite-Spin Scale   =       1.2000000000000000 [-]
	 SCS Same-Spin Energy      =      -0.1319525972344412 [Eh]
	 SCS Opposite-Spin Energy  =      -1.4861635589364506 [Eh]
	 SCS Correlation Energy    =      -1.6181161561708917 [Eh]
	 SCS Total Energy          =    -379.4608959651010309 [Eh]
	-----------------------------------------------------------

  Dipole Moment: [D]
     X:    -2.8117      Y:     0.7067      Z:     0.0003     Total:     2.8991

*** Psi4 exiting successfully. Buy a developer a beer!
