                               Psi4 1.3.2 release

  ==> Input File <==

--------------------------------------------------------------------------
#psi4
#
memory 32 gb

molecule  {
0 1
  O       -1.4373610     0.6812660     0.0112400
  N        0.8840130     0.5088410    -0.0326410
  N        1.9094790    -0.3796650    -0.0187050
  C       -0.3281200    -0.1042590     0.0031940
  C       -0.1356644    -1.2758808     0.0192069
  C        1.1440790     1.9331410     0.0175110
  C        1.3002790    -1.5787310     0.0070160
  C       -2.6563940    -0.0670400    -0.0135030
  H       -0.8330430    -2.2689870     0.0348200
  H        1.1952250     2.2834660     1.0517640
  H        2.0986020     2.1064990    -0.4777900
  H        0.3432740     2.4564130    -0.5057130
  H        1.9052260    -2.4764620     0.0069120
  H       -3.4562640     0.6719480    -0.0131020
  H       -2.7349570    -0.7043590     0.8727740
  H       -2.7131850    -0.6822330    -0.9168940
units angstrom
no_reorient  #important for SAPT in psi4, default
symmetry c1  #important for SAPT in psi4, default
}

set PROPERTIES_ORIGIN ["COM"]
properties('MP2/aug-cc-pvtz', properties = ['dipole'])
--------------------------------------------------------------------------

    Molecular point group: c1
  Charge       = 0
  Multiplicity = 1
  Basis Set: AUG-CC-PVTZ
    Blend: AUG-CC-PVTZ
  Basis Set: (AUG-CC-PVTZ AUX)
    Blend: AUG-CC-PVTZ-JKFIT

    Orbital Energies [Eh]
    ---------------------

    Doubly Occupied:

       1A    -20.600028     2A    -15.613540     3A    -15.588069
       4A    -11.302431     5A    -11.293158     6A    -11.258983
       7A    -11.257090     8A    -11.207878     9A     -1.433524
      10A     -1.360715    11A     -1.110534    12A     -1.087425
      13A     -0.960467    14A     -0.924149    15A     -0.818042
      16A     -0.760651    17A     -0.723829    18A     -0.683731
      19A     -0.646161    20A     -0.630748    21A     -0.615143
      22A     -0.597033    23A     -0.558440    24A     -0.549689
      25A     -0.528813    26A     -0.525812    27A     -0.496558
      28A     -0.445080    29A     -0.360673    30A     -0.333495

  @DF-RHF Final Energy:  -377.78201407294921

   => Energetics <=

    Nuclear Repulsion Energy =            381.3910363126635161
    One-Electron Energy =               -1269.8023237185336711
    Two-Electron Energy =                 510.6292733329208886
    Total Energy =                       -377.7820140729492095
  Basis Set: (AUG-CC-PVTZ AUX)
    Blend: AUG-CC-PVTZ-RI
    Molecular point group: c1

    Geometry (in Angstrom), charge = 0, multiplicity = 1:

       Center              X                  Y                   Z               Mass
    ------------   -----------------  -----------------  -----------------  -----------------
         O           -1.471174056542     0.672435771805     0.011997928668    15.994914619570
         N            0.850199943458     0.500010771805    -0.031883071332    14.003074004430
         N            1.875665943458    -0.388495228195    -0.017947071332    14.003074004430
         C           -0.361933056542    -0.113089228195     0.003951928668    12.000000000000
         C           -0.169477456542    -1.284711028195     0.019964828668    12.000000000000
         C            1.110265943458     1.924310771805     0.018268928668    12.000000000000
         C            1.266465943458    -1.587561228195     0.007773928668    12.000000000000
         C           -2.690207056542    -0.075870228195    -0.012745071332    12.000000000000
         H           -0.866856056542    -2.277817228195     0.035577928668     1.007825032230
         H            1.161411943458     2.274635771805     1.052521928668     1.007825032230
         H            2.064788943458     2.097668771805    -0.477032071332     1.007825032230
         H            0.309460943458     2.447582771805    -0.504955071332     1.007825032230
         H            1.871412943458    -2.485292228195     0.007669928668     1.007825032230
         H           -3.490077056542     0.663117771805    -0.012344071332     1.007825032230
         H           -2.768770056542    -0.713189228195     0.873531928668     1.007825032230
         H           -2.746998056542    -0.691063228195    -0.916136071332     1.007825032230

  Basis Set: AUG-CC-PVTZ
    Blend: AUG-CC-PVTZ
  Basis Set: (AUG-CC-PVTZ AUX)
    Blend: AUG-CC-PVTZ-JKFIT
	 Reference Energy          =    -377.7820140729492095 [Eh]
	 Singles Energy            =      -0.0000000000000000 [Eh]
	 Same-Spin Energy          =      -0.3955133068318999 [Eh]
	 Opposite-Spin Energy      =      -1.2389183193758346 [Eh]
	 Correlation Energy        =      -1.6344316262077345 [Eh]
	 Total Energy              =    -379.4164456991569523 [Eh]

	 ================> DF-SCS-MP2 Energies <==================
	-----------------------------------------------------------
	 SCS Same-Spin Scale       =       0.3333333333333333 [-]
	 SCS Opposite-Spin Scale   =       1.2000000000000000 [-]
	 SCS Same-Spin Energy      =      -0.1318377689439666 [Eh]
	 SCS Opposite-Spin Energy  =      -1.4867019832510016 [Eh]
	 SCS Correlation Energy    =      -1.6185397521949683 [Eh]
	 SCS Total Energy          =    -379.4005538251441862 [Eh]
	-----------------------------------------------------------

  Dipole Moment: [D]
     X:    -2.7882      Y:     0.2674      Z:    -0.0040     Total:     2.8010

*** Psi4 exiting successfully. Buy a developer a beer!
