                               Psi4 1.3.2 release

  ==> Input File <==

--------------------------------------------------------------------------
#psi4
#
memory 32 gb

molecule  {
0 1
  O       -1.4373610     0.6812660     0.0112400
  N        0.8840130     0.5088410    -0.0326410
  N        1.9094790    -0.3796650    -0.0187050
  C       -0.3281200    -0.1042590     0.0031940
  C       -0.0870413    -1.5718866     0.0232525
  C        1.1440790     1.9331410     0.0175110
  C        1.3002790    -1.5787310     0.0070160
  C       -2.6563940    -0.0670400    -0.0135030
  H       -0.8330430    -2.2689870     0.0348200
  H        1.1952250     2.2834660     1.0517640
  H        2.0986020     2.1064990    -0.4777900
  H        0.3432740     2.4564130    -0.5057130
  H        1.9052260    -2.4764620     0.0069120
  H       -3.4562640     0.6719480    -0.0131020
  H       -2.7349570    -0.7043590     0.8727740
  H       -2.7131850    -0.6822330    -0.9168940
units angstrom
no_reorient  #important for SAPT in psi4, default
symmetry c1  #important for SAPT in psi4, default
}

set PROPERTIES_ORIGIN ["COM"]
properties('MP2/aug-cc-pvtz', properties = ['dipole'])
--------------------------------------------------------------------------

    Molecular point group: c1
  Charge       = 0
  Multiplicity = 1
  Basis Set: AUG-CC-PVTZ
    Blend: AUG-CC-PVTZ
  Basis Set: (AUG-CC-PVTZ AUX)
    Blend: AUG-CC-PVTZ-JKFIT

    Orbital Energies [Eh]
    ---------------------

    Doubly Occupied:

       1A    -20.612882     2A    -15.635396     3A    -15.567482
       4A    -11.347450     5A    -11.299972     6A    -11.266604
       7A    -11.251913     8A    -11.220008     9A     -1.438685
      10A     -1.354983    11A     -1.115349    12A     -1.038370
      13A     -0.966792    14A     -0.937469    15A     -0.804199
      16A     -0.772979    17A     -0.725635    18A     -0.682158
      19A     -0.654882    20A     -0.634147    21A     -0.630779
      22A     -0.586323    23A     -0.583192    24A     -0.546816
      25A     -0.544082    26A     -0.513544    27A     -0.502878
      28A     -0.448136    29A     -0.354600    30A     -0.309809

  @DF-RHF Final Energy:  -377.83019441862336

   => Energetics <=

    Nuclear Repulsion Energy =            375.7589025345725418
    One-Electron Energy =               -1258.4831657853881097
    Two-Electron Energy =                 504.8940688321921471
    Total Energy =                       -377.8301944186233641
  Basis Set: (AUG-CC-PVTZ AUX)
    Blend: AUG-CC-PVTZ-RI
    Molecular point group: c1

    Geometry (in Angstrom), charge = 0, multiplicity = 1:

       Center              X                  Y                   Z               Mass
    ------------   -----------------  -----------------  -----------------  -----------------
         O           -1.476380714837     0.704132661845     0.011564717770    15.994914619570
         N            0.844993285163     0.531707661845    -0.032316282230    14.003074004430
         N            1.870459285163    -0.356798338155    -0.018380282230    14.003074004430
         C           -0.367139714837    -0.081392338155     0.003518717770    12.000000000000
         C           -0.126061014837    -1.549019938155     0.023577217770    12.000000000000
         C            1.105059285163     1.956007661845     0.017835717770    12.000000000000
         C            1.261259285163    -1.555864338155     0.007340717770    12.000000000000
         C           -2.695413714837    -0.044173338155    -0.013178282230    12.000000000000
         H           -0.872062714837    -2.246120338155     0.035144717770     1.007825032230
         H            1.156205285163     2.306332661845     1.052088717770     1.007825032230
         H            2.059582285163     2.129365661845    -0.477465282230     1.007825032230
         H            0.304254285163     2.479279661845    -0.505388282230     1.007825032230
         H            1.866206285163    -2.453595338155     0.007236717770     1.007825032230
         H           -3.495283714837     0.694814661845    -0.012777282230     1.007825032230
         H           -2.773976714837    -0.681492338155     0.873098717770     1.007825032230
         H           -2.752204714837    -0.659366338155    -0.916569282230     1.007825032230

  Basis Set: AUG-CC-PVTZ
    Blend: AUG-CC-PVTZ
  Basis Set: (AUG-CC-PVTZ AUX)
    Blend: AUG-CC-PVTZ-JKFIT
	 Reference Energy          =    -377.8301944186233641 [Eh]
	 Singles Energy            =      -0.0000000000000000 [Eh]
	 Same-Spin Energy          =      -0.3970295980593009 [Eh]
	 Opposite-Spin Energy      =      -1.2410628322608173 [Eh]
	 Correlation Energy        =      -1.6380924303201181 [Eh]
	 Total Energy              =    -379.4682868489434782 [Eh]

	 ================> DF-SCS-MP2 Energies <==================
	-----------------------------------------------------------
	 SCS Same-Spin Scale       =       0.3333333333333333 [-]
	 SCS Opposite-Spin Scale   =       1.2000000000000000 [-]
	 SCS Same-Spin Energy      =      -0.1323431993531003 [Eh]
	 SCS Opposite-Spin Energy  =      -1.4892753987129808 [Eh]
	 SCS Correlation Energy    =      -1.6216185980660811 [Eh]
	 SCS Total Energy          =    -379.4518130166894707 [Eh]
	-----------------------------------------------------------

  Dipole Moment: [D]
     X:    -3.0611      Y:     0.8104      Z:     0.0061     Total:     3.1666

*** Psi4 exiting successfully. Buy a developer a beer!
