                               Psi4 1.4a3.dev225

  ==> Input File <==

--------------------------------------------------------------------------
#psi4
#
memory 32 gb

molecule  {
0 1
  O       -1.4373610     0.6812660     0.0112400
  N        0.8840130     0.5088410    -0.0326410
  N        1.9094790    -0.3796650    -0.0187050
  C       -0.3281200    -0.1042590     0.0031940
  C       -0.1032490    -1.4732180     0.0219040
  C        1.1530547     1.9822983     0.0192419
  C        1.3002790    -1.5787310     0.0070160
  C       -2.6563940    -0.0670400    -0.0135030
  H       -0.8330430    -2.2689870     0.0348200
  H        1.1952250     2.2834660     1.0517640
  H        2.0986020     2.1064990    -0.4777900
  H        0.3432740     2.4564130    -0.5057130
  H        1.9052260    -2.4764620     0.0069120
  H       -3.4562640     0.6719480    -0.0131020
  H       -2.7349570    -0.7043590     0.8727740
  H       -2.7131850    -0.6822330    -0.9168940
units angstrom
no_reorient  #important for SAPT in psi4, default
symmetry c1  #important for SAPT in psi4, default
}

set PROPERTIES_ORIGIN ["COM"]
properties('MP2/aug-cc-pvtz', properties = ['dipole'])
--------------------------------------------------------------------------

    Molecular point group: c1
  Charge       = 0
  Multiplicity = 1
  Basis Set: AUG-CC-PVTZ
    Blend: AUG-CC-PVTZ
  Basis Set: (AUG-CC-PVTZ AUX)
    Blend: AUG-CC-PVTZ-JKFIT

    Orbital Energies [Eh]
    ---------------------

    Doubly Occupied:

       1A    -20.607937     2A    -15.626978     3A    -15.572295
       4A    -11.333359     5A    -11.297245     6A    -11.266187
       7A    -11.250159     8A    -11.213965     9A     -1.434976
      10A     -1.351173    11A     -1.105464    12A     -1.047002
      13A     -0.963692    14A     -0.936541    15A     -0.801662
      16A     -0.769393    17A     -0.722161    18A     -0.680230
      19A     -0.642943    20A     -0.632911    21A     -0.618559
      22A     -0.595281    23A     -0.569450    24A     -0.553424
      25A     -0.551031    26A     -0.522572    27A     -0.500545
      28A     -0.446128    29A     -0.348986    30A     -0.319073

  @DF-RHF Final Energy:  -377.84158753197346

   => Energetics <=

    Nuclear Repulsion Energy =            376.5127443723949909
    One-Electron Energy =               -1260.1460170682189528
    Two-Electron Energy =                 505.7916851638505022
    Total Energy =                       -377.8415875319734596
  Basis Set: (AUG-CC-PVTZ AUX)
    Blend: AUG-CC-PVTZ-RI
    Molecular point group: c1

    Geometry (in Angstrom), charge = 0, multiplicity = 1:

       Center              X                  Y                   Z               Mass
    ------------   -----------------  -----------------  -----------------  -----------------
         O           -1.475606297887     0.688303170338     0.011523769617    15.994914619570
         N            0.845767702113     0.515878170338    -0.032357230383    14.003074004430
         N            1.871233702113    -0.372627829662    -0.018421230383    14.003074004430
         C           -0.366365297887    -0.097221829662     0.003477769617    12.000000000000
         C           -0.141494297887    -1.466180829662     0.022187769617    12.000000000000
         C            1.114809402113     1.989335470338     0.019525669617    12.000000000000
         C            1.262033702113    -1.571693829662     0.007299769617    12.000000000000
         C           -2.694639297887    -0.060002829662    -0.013219230383    12.000000000000
         H           -0.871288297887    -2.261949829662     0.035103769617     1.007825032230
         H            1.156979702113     2.290503170338     1.052047769617     1.007825032230
         H            2.060356702113     2.113536170338    -0.477506230383     1.007825032230
         H            0.305028702113     2.463450170338    -0.505429230383     1.007825032230
         H            1.866980702113    -2.469424829662     0.007195769617     1.007825032230
         H           -3.494509297887     0.678985170338    -0.012818230383     1.007825032230
         H           -2.773202297887    -0.697321829662     0.873057769617     1.007825032230
         H           -2.751430297887    -0.675195829662    -0.916610230383     1.007825032230

  Basis Set: AUG-CC-PVTZ
    Blend: AUG-CC-PVTZ
  Basis Set: (AUG-CC-PVTZ AUX)
    Blend: AUG-CC-PVTZ-JKFIT
	 Reference Energy          =    -377.8415875319734596 [Eh]
	 Singles Energy            =      -0.0000000000000000 [Eh]
	 Same-Spin Energy          =      -0.3962810042876174 [Eh]
	 Opposite-Spin Energy      =      -1.2398084741571873 [Eh]
	 Correlation Energy        =      -1.6360894784448048 [Eh]
	 Total Energy              =    -379.4776770104182901 [Eh]

	 ================> DF-SCS-MP2 Energies <==================
	-----------------------------------------------------------
	 SCS Same-Spin Scale       =       0.3333333333333333 [-]
	 SCS Opposite-Spin Scale   =       1.2000000000000000 [-]
	 SCS Same-Spin Energy      =      -0.1320936680958724 [Eh]
	 SCS Opposite-Spin Energy  =      -1.4877701689886247 [Eh]
	 SCS Correlation Energy    =      -1.6198638370844971 [Eh]
	 SCS Total Energy          =    -379.4614513690579543 [Eh]
	-----------------------------------------------------------

  Dipole Moment: [D]
     X:    -2.9581      Y:     0.7926      Z:     0.0180     Total:     3.0625

*** Psi4 exiting successfully. Buy a developer a beer!
