                               Psi4 1.3.2 release

  ==> Input File <==

--------------------------------------------------------------------------
#psi4
#
memory 32 gb

molecule  {
0 1
  O       -1.4373610     0.6812660     0.0112400
  N        0.8840130     0.5088410    -0.0326410
  N        1.9094790    -0.3796650    -0.0187050
  C       -0.3281200    -0.1042590     0.0031940
  C       -0.1032490    -1.4732180     0.0219040
  C        1.1440790     1.9331410     0.0175110
  C        1.2097047    -1.7570051     0.0108401
  C       -2.6563940    -0.0670400    -0.0135030
  H       -0.8330430    -2.2689870     0.0348200
  H        1.1952250     2.2834660     1.0517640
  H        2.0986020     2.1064990    -0.4777900
  H        0.3432740     2.4564130    -0.5057130
  H        1.9052260    -2.4764620     0.0069120
  H       -3.4562640     0.6719480    -0.0131020
  H       -2.7349570    -0.7043590     0.8727740
  H       -2.7131850    -0.6822330    -0.9168940
units angstrom
no_reorient  #important for SAPT in psi4, default
symmetry c1  #important for SAPT in psi4, default
}

set PROPERTIES_ORIGIN ["COM"]
properties('MP2/aug-cc-pvtz', properties = ['dipole'])
--------------------------------------------------------------------------

    Molecular point group: c1
  Charge       = 0
  Multiplicity = 1
  Basis Set: AUG-CC-PVTZ
    Blend: AUG-CC-PVTZ
  Basis Set: (AUG-CC-PVTZ AUX)
    Blend: AUG-CC-PVTZ-JKFIT

    Orbital Energies [Eh]
    ---------------------

    Doubly Occupied:

       1A    -20.608758     2A    -15.644736     3A    -15.575264
       4A    -11.332524     5A    -11.298717     6A    -11.268228
       7A    -11.255750     8A    -11.223252     9A     -1.436005
      10A     -1.339999    11A     -1.098655    12A     -1.040390
      13A     -0.969466    14A     -0.937730    15A     -0.815395
      16A     -0.766817    17A     -0.730186    18A     -0.681779
      19A     -0.657625    20A     -0.631735    21A     -0.619990
      22A     -0.597973    23A     -0.588824    24A     -0.544033
      25A     -0.535717    26A     -0.528347    27A     -0.494283
      28A     -0.424177    29A     -0.365872    30A     -0.291857

  @DF-RHF Final Energy:  -377.79022453108291

   => Energetics <=

    Nuclear Repulsion Energy =            374.9449555388578119
    One-Electron Energy =               -1256.8621968183406352
    Two-Electron Energy =                 504.1270167483999103
    Total Energy =                       -377.7902245310829130
  Basis Set: (AUG-CC-PVTZ AUX)
    Blend: AUG-CC-PVTZ-RI
    Molecular point group: c1

    Geometry (in Angstrom), charge = 0, multiplicity = 1:

       Center              X                  Y                   Z               Mass
    ------------   -----------------  -----------------  -----------------  -----------------
         O           -1.464946285808     0.712656977180     0.011299625596    15.994914619570
         N            0.856427714192     0.540231977180    -0.032581374404    14.003074004430
         N            1.881893714192    -0.348274022820    -0.018645374404    14.003074004430
         C           -0.355705285808    -0.072868022820     0.003253625596    12.000000000000
         C           -0.130834285808    -1.441827022820     0.021963625596    12.000000000000
         C            1.116493714192     1.964531977180     0.017570625596    12.000000000000
         C            1.182119414192    -1.725614122820     0.010899725596    12.000000000000
         C           -2.683979285808    -0.035649022820    -0.013443374404    12.000000000000
         H           -0.860628285808    -2.237596022820     0.034879625596     1.007825032230
         H            1.167639714192     2.314856977180     1.051823625596     1.007825032230
         H            2.071016714192     2.137889977180    -0.477730374404     1.007825032230
         H            0.315688714192     2.487803977180    -0.505653374404     1.007825032230
         H            1.877640714192    -2.445071022820     0.006971625596     1.007825032230
         H           -3.483849285808     0.703338977180    -0.013042374404     1.007825032230
         H           -2.762542285808    -0.672968022820     0.872833625596     1.007825032230
         H           -2.740770285808    -0.650842022820    -0.916834374404     1.007825032230

  Basis Set: AUG-CC-PVTZ
    Blend: AUG-CC-PVTZ
  Basis Set: (AUG-CC-PVTZ AUX)
    Blend: AUG-CC-PVTZ-JKFIT
	 Reference Energy          =    -377.7902245310829130 [Eh]
	 Singles Energy            =      -0.0000000000000000 [Eh]
	 Same-Spin Energy          =      -0.4027046834420565 [Eh]
	 Opposite-Spin Energy      =      -1.2520266192882346 [Eh]
	 Correlation Energy        =      -1.6547313027302910 [Eh]
	 Total Energy              =    -379.4449558338131965 [Eh]

	 ================> DF-SCS-MP2 Energies <==================
	-----------------------------------------------------------
	 SCS Same-Spin Scale       =       0.3333333333333333 [-]
	 SCS Opposite-Spin Scale   =       1.2000000000000000 [-]
	 SCS Same-Spin Energy      =      -0.1342348944806855 [Eh]
	 SCS Opposite-Spin Energy  =      -1.5024319431458815 [Eh]
	 SCS Correlation Energy    =      -1.6366668376265670 [Eh]
	 SCS Total Energy          =    -379.4268913687095051 [Eh]
	-----------------------------------------------------------

  Dipole Moment: [D]
     X:    -3.0956      Y:     0.7462      Z:     0.0124     Total:     3.1843

*** Psi4 exiting successfully. Buy a developer a beer!
