                               Psi4 1.3.2 release

  ==> Input File <==

--------------------------------------------------------------------------
#psi4
#
memory 32 gb

molecule  {
0 1
  O       -1.4373610     0.6812660     0.0112400
  N        0.8840130     0.5088410    -0.0326410
  N        1.8778488    -0.4148843    -0.0171655
  C       -0.3281200    -0.1042590     0.0031940
  C       -0.1032490    -1.4732180     0.0219040
  C        1.1440790     1.9331410     0.0175110
  C        1.3002790    -1.5787310     0.0070160
  C       -2.6563940    -0.0670400    -0.0135030
  H       -0.8330430    -2.2689870     0.0348200
  H        1.1952250     2.2834660     1.0517640
  H        2.0986020     2.1064990    -0.4777900
  H        0.3432740     2.4564130    -0.5057130
  H        1.9052260    -2.4764620     0.0069120
  H       -3.4562640     0.6719480    -0.0131020
  H       -2.7349570    -0.7043590     0.8727740
  H       -2.7131850    -0.6822330    -0.9168940
units angstrom
no_reorient  #important for SAPT in psi4, default
symmetry c1  #important for SAPT in psi4, default
}

set PROPERTIES_ORIGIN ["COM"]
properties('MP2/aug-cc-pvtz', properties = ['dipole'])
--------------------------------------------------------------------------

    Molecular point group: c1
  Charge       = 0
  Multiplicity = 1
  Basis Set: AUG-CC-PVTZ
    Blend: AUG-CC-PVTZ
  Basis Set: (AUG-CC-PVTZ AUX)
    Blend: AUG-CC-PVTZ-JKFIT

    Orbital Energies [Eh]
    ---------------------

    Doubly Occupied:

       1A    -20.608248     2A    -15.626307     3A    -15.568336
       4A    -11.334163     5A    -11.296942     6A    -11.265519
       7A    -11.246110     8A    -11.211803     9A     -1.436241
      10A     -1.360936    11A     -1.124720    12A     -1.046056
      13A     -0.963339    14A     -0.936648    15A     -0.804202
      16A     -0.771765    17A     -0.726784    18A     -0.681535
      19A     -0.643569    20A     -0.633566    21A     -0.623106
      22A     -0.594024    23A     -0.580704    24A     -0.548634
      25A     -0.547785    26A     -0.523290    27A     -0.502249
      28A     -0.440673    29A     -0.351384    30A     -0.322978

  @DF-RHF Final Energy:  -377.84634622798245

   => Energetics <=

    Nuclear Repulsion Energy =            378.3948130453353542
    One-Electron Energy =               -1263.8390837321874187
    Two-Electron Energy =                 507.5979244588696133
    Total Energy =                       -377.8463462279824512
  Basis Set: (AUG-CC-PVTZ AUX)
    Blend: AUG-CC-PVTZ-RI
    Molecular point group: c1

    Geometry (in Angstrom), charge = 0, multiplicity = 1:

       Center              X                  Y                   Z               Mass
    ------------   -----------------  -----------------  -----------------  -----------------
         O           -1.470692765550     0.697967909437     0.011516747426    15.994914619570
         N            0.850681234450     0.525542909437    -0.032364252574    14.003074004430
         N            1.844517034450    -0.398182390563    -0.016888752574    14.003074004430
         C           -0.361451765550    -0.087557090563     0.003470747426    12.000000000000
         C           -0.136580765550    -1.456516090563     0.022180747426    12.000000000000
         C            1.110747234450     1.949842909437     0.017787747426    12.000000000000
         C            1.266947234450    -1.562029090563     0.007292747426    12.000000000000
         C           -2.689725765550    -0.050338090563    -0.013226252574    12.000000000000
         H           -0.866374765550    -2.252285090563     0.035096747426     1.007825032230
         H            1.161893234450     2.300167909437     1.052040747426     1.007825032230
         H            2.065270234450     2.123200909437    -0.477513252574     1.007825032230
         H            0.309942234450     2.473114909437    -0.505436252574     1.007825032230
         H            1.871894234450    -2.459760090563     0.007188747426     1.007825032230
         H           -3.489595765550     0.688649909437    -0.012825252574     1.007825032230
         H           -2.768288765550    -0.687657090563     0.873050747426     1.007825032230
         H           -2.746516765550    -0.665531090563    -0.916617252574     1.007825032230

  Basis Set: AUG-CC-PVTZ
    Blend: AUG-CC-PVTZ
  Basis Set: (AUG-CC-PVTZ AUX)
    Blend: AUG-CC-PVTZ-JKFIT
	 Reference Energy          =    -377.8463462279824512 [Eh]
	 Singles Energy            =      -0.0000000000000000 [Eh]
	 Same-Spin Energy          =      -0.3951657082737442 [Eh]
	 Opposite-Spin Energy      =      -1.2369655756627522 [Eh]
	 Correlation Energy        =      -1.6321312839364963 [Eh]
	 Total Energy              =    -379.4784775119189248 [Eh]

	 ================> DF-SCS-MP2 Energies <==================
	-----------------------------------------------------------
	 SCS Same-Spin Scale       =       0.3333333333333333 [-]
	 SCS Opposite-Spin Scale   =       1.2000000000000000 [-]
	 SCS Same-Spin Energy      =      -0.1317219027579147 [Eh]
	 SCS Opposite-Spin Energy  =      -1.4843586907953026 [Eh]
	 SCS Correlation Energy    =      -1.6160805935532174 [Eh]
	 SCS Total Energy          =    -379.4624268215356437 [Eh]
	-----------------------------------------------------------

  Dipole Moment: [D]
     X:    -2.8849      Y:     0.6819      Z:     0.0005     Total:     2.9644

*** Psi4 exiting successfully. Buy a developer a beer!
