                               Psi4 1.3.2 release

  ==> Input File <==

--------------------------------------------------------------------------
#psi4
#
memory 32 gb

molecule  {
0 1
  O       -1.4373610     0.6812660     0.0112400
  N        0.8840130     0.5088410    -0.0326410
  N        2.0606257    -0.5106247    -0.0166509
  C       -0.3281200    -0.1042590     0.0031940
  C       -0.1032490    -1.4732180     0.0219040
  C        1.1440790     1.9331410     0.0175110
  C        1.3002790    -1.5787310     0.0070160
  C       -2.6563940    -0.0670400    -0.0135030
  H       -0.8330430    -2.2689870     0.0348200
  H        1.1952250     2.2834660     1.0517640
  H        2.0986020     2.1064990    -0.4777900
  H        0.3432740     2.4564130    -0.5057130
  H        1.9052260    -2.4764620     0.0069120
  H       -3.4562640     0.6719480    -0.0131020
  H       -2.7349570    -0.7043590     0.8727740
  H       -2.7131850    -0.6822330    -0.9168940
units angstrom
no_reorient  #important for SAPT in psi4, default
symmetry c1  #important for SAPT in psi4, default
}

set PROPERTIES_ORIGIN ["COM"]
properties('MP2/aug-cc-pvtz', properties = ['dipole'])
--------------------------------------------------------------------------

    Molecular point group: c1
  Charge       = 0
  Multiplicity = 1
  Basis Set: AUG-CC-PVTZ
    Blend: AUG-CC-PVTZ
  Basis Set: (AUG-CC-PVTZ AUX)
    Blend: AUG-CC-PVTZ-JKFIT

    Orbital Energies [Eh]
    ---------------------

    Doubly Occupied:

       1A    -20.618150     2A    -15.610420     3A    -15.590669
       4A    -11.351496     5A    -11.301904     6A    -11.263234
       7A    -11.257487     8A    -11.214361     9A     -1.441257
      10A     -1.304843    11A     -1.128979    12A     -1.045600
      13A     -0.970242    14A     -0.922040    15A     -0.788339
      16A     -0.773057    17A     -0.715493    18A     -0.681925
      19A     -0.649488    20A     -0.622319    21A     -0.618906
      22A     -0.591236    23A     -0.566382    24A     -0.541403
      25A     -0.529247    26A     -0.524008    27A     -0.499550
      28A     -0.459234    29A     -0.362473    30A     -0.325517

  @DF-RHF Final Energy:  -377.81626568842228

   => Energetics <=

    Nuclear Repulsion Energy =            373.1011477766392090
    One-Electron Energy =               -1253.2963062730561887
    Two-Electron Energy =                 502.3788928079947027
    Total Energy =                       -377.8162656884222770
  Basis Set: (AUG-CC-PVTZ AUX)
    Blend: AUG-CC-PVTZ-RI
    Molecular point group: c1

    Geometry (in Angstrom), charge = 0, multiplicity = 1:

       Center              X                  Y                   Z               Mass
    ------------   -----------------  -----------------  -----------------  -----------------
         O           -1.493531912434     0.709931286966     0.011452444853    15.994914619570
         N            0.827842087566     0.537506286966    -0.032428555147    14.003074004430
         N            2.004454787566    -0.481959413034    -0.016438455147    14.003074004430
         C           -0.384290912434    -0.075593713034     0.003406444853    12.000000000000
         C           -0.159419912434    -1.444552713034     0.022116444853    12.000000000000
         C            1.087908087566     1.961806286966     0.017723444853    12.000000000000
         C            1.244108087566    -1.550065713034     0.007228444853    12.000000000000
         C           -2.712564912434    -0.038374713034    -0.013290555147    12.000000000000
         H           -0.889213912434    -2.240321713034     0.035032444853     1.007825032230
         H            1.139054087566     2.312131286966     1.051976444853     1.007825032230
         H            2.042431087566     2.135164286966    -0.477577555147     1.007825032230
         H            0.287103087566     2.485078286966    -0.505500555147     1.007825032230
         H            1.849055087566    -2.447796713034     0.007124444853     1.007825032230
         H           -3.512434912434     0.700613286966    -0.012889555147     1.007825032230
         H           -2.791127912434    -0.675693713034     0.872986444853     1.007825032230
         H           -2.769355912434    -0.653567713034    -0.916681555147     1.007825032230

  Basis Set: AUG-CC-PVTZ
    Blend: AUG-CC-PVTZ
  Basis Set: (AUG-CC-PVTZ AUX)
    Blend: AUG-CC-PVTZ-JKFIT
	 Reference Energy          =    -377.8162656884222770 [Eh]
	 Singles Energy            =      -0.0000000000000000 [Eh]
	 Same-Spin Energy          =      -0.3951045052206897 [Eh]
	 Opposite-Spin Energy      =      -1.2423905022688835 [Eh]
	 Correlation Energy        =      -1.6374950074895731 [Eh]
	 Total Energy              =    -379.4537606959118534 [Eh]

	 ================> DF-SCS-MP2 Energies <==================
	-----------------------------------------------------------
	 SCS Same-Spin Scale       =       0.3333333333333333 [-]
	 SCS Opposite-Spin Scale   =       1.2000000000000000 [-]
	 SCS Same-Spin Energy      =      -0.1317015017402299 [Eh]
	 SCS Opposite-Spin Energy  =      -1.4908686027226601 [Eh]
	 SCS Correlation Energy    =      -1.6225701044628900 [Eh]
	 SCS Total Energy          =    -379.4388357928851860 [Eh]
	-----------------------------------------------------------

  Dipole Moment: [D]
     X:    -3.2036      Y:     0.5319      Z:     0.0088     Total:     3.2474

*** Psi4 exiting successfully. Buy a developer a beer!
