                               Psi4 1.3.2 release

  ==> Input File <==

--------------------------------------------------------------------------
#psi4
#
memory 32 gb

molecule  {
0 1
  O       -1.4373610     0.6812660     0.0112400
  N        0.8840130     0.5088410    -0.0326410
  N        1.9094790    -0.3796650    -0.0187050
  C       -0.3281200    -0.1042590     0.0031940
  C       -0.1032490    -1.4732180     0.0219040
  C        1.1440790     1.9331410     0.0175110
  C        1.4997051    -1.5937233     0.0049006
  C       -2.6563940    -0.0670400    -0.0135030
  H       -0.8330430    -2.2689870     0.0348200
  H        1.1952250     2.2834660     1.0517640
  H        2.0986020     2.1064990    -0.4777900
  H        0.3432740     2.4564130    -0.5057130
  H        1.9052260    -2.4764620     0.0069120
  H       -3.4562640     0.6719480    -0.0131020
  H       -2.7349570    -0.7043590     0.8727740
  H       -2.7131850    -0.6822330    -0.9168940
units angstrom
no_reorient  #important for SAPT in psi4, default
symmetry c1  #important for SAPT in psi4, default
}

set PROPERTIES_ORIGIN ["COM"]
properties('MP2/aug-cc-pvtz', properties = ['dipole'])
--------------------------------------------------------------------------

    Molecular point group: c1
  Charge       = 0
  Multiplicity = 1
  Basis Set: AUG-CC-PVTZ
    Blend: AUG-CC-PVTZ
  Basis Set: (AUG-CC-PVTZ AUX)
    Blend: AUG-CC-PVTZ-JKFIT

    Orbital Energies [Eh]
    ---------------------

    Doubly Occupied:

       1A    -20.608060     2A    -15.623538     3A    -15.584421
       4A    -11.333618     5A    -11.294910     6A    -11.264172
       7A    -11.260506     8A    -11.218861     9A     -1.434468
      10A     -1.356893    11A     -1.128147    12A     -1.034576
      13A     -0.956546    14A     -0.933287    15A     -0.820828
      16A     -0.767850    17A     -0.731870    18A     -0.679279
      19A     -0.654448    20A     -0.632713    21A     -0.630341
      22A     -0.592767    23A     -0.570169    24A     -0.550408
      25A     -0.542802    26A     -0.523255    27A     -0.501733
      28A     -0.418688    29A     -0.351287    30A     -0.317926

  @DF-RHF Final Energy:  -377.80833184924921

   => Energetics <=

    Nuclear Repulsion Energy =            375.3091542141196442
    One-Electron Energy =               -1257.5982370834178710
    Two-Electron Energy =                 504.4807510200490128
    Total Energy =                       -377.8083318492492140
  Basis Set: (AUG-CC-PVTZ AUX)
    Blend: AUG-CC-PVTZ-RI
    Molecular point group: c1

    Geometry (in Angstrom), charge = 0, multiplicity = 1:

       Center              X                  Y                   Z               Mass
    ------------   -----------------  -----------------  -----------------  -----------------
         O           -1.496000105667     0.695172437147     0.011935639074    15.994914619570
         N            0.825373894333     0.522747437147    -0.031945360926    14.003074004430
         N            1.850839894333    -0.365758562853    -0.018009360926    14.003074004430
         C           -0.386759105667    -0.090352562853     0.003889639074    12.000000000000
         C           -0.161888105667    -1.459311562853     0.022599639074    12.000000000000
         C            1.085439894333     1.947047437147     0.018206639074    12.000000000000
         C            1.441065994333    -1.579816862853     0.005596239074    12.000000000000
         C           -2.715033105667    -0.053133562853    -0.012807360926    12.000000000000
         H           -0.891682105667    -2.255080562853     0.035515639074     1.007825032230
         H            1.136585894333     2.297372437147     1.052459639074     1.007825032230
         H            2.039962894333     2.120405437147    -0.477094360926     1.007825032230
         H            0.284634894333     2.470319437147    -0.505017360926     1.007825032230
         H            1.846586894333    -2.462555562853     0.007607639074     1.007825032230
         H           -3.514903105667     0.685854437147    -0.012406360926     1.007825032230
         H           -2.793596105667    -0.690452562853     0.873469639074     1.007825032230
         H           -2.771824105667    -0.668326562853    -0.916198360926     1.007825032230

  Basis Set: AUG-CC-PVTZ
    Blend: AUG-CC-PVTZ
  Basis Set: (AUG-CC-PVTZ AUX)
    Blend: AUG-CC-PVTZ-JKFIT
	 Reference Energy          =    -377.8083318492492140 [Eh]
	 Singles Energy            =      -0.0000000000000000 [Eh]
	 Same-Spin Energy          =      -0.3937255080948430 [Eh]
	 Opposite-Spin Energy      =      -1.2377221069462663 [Eh]
	 Correlation Energy        =      -1.6314476150411092 [Eh]
	 Total Energy              =    -379.4397794642903250 [Eh]

	 ================> DF-SCS-MP2 Energies <==================
	-----------------------------------------------------------
	 SCS Same-Spin Scale       =       0.3333333333333333 [-]
	 SCS Opposite-Spin Scale   =       1.2000000000000000 [-]
	 SCS Same-Spin Energy      =      -0.1312418360316143 [Eh]
	 SCS Opposite-Spin Energy  =      -1.4852665283355195 [Eh]
	 SCS Correlation Energy    =      -1.6165083643671339 [Eh]
	 SCS Total Energy          =    -379.4248402136163349 [Eh]
	-----------------------------------------------------------

  Dipole Moment: [D]
     X:    -2.5873      Y:     0.5631      Z:    -0.0128     Total:     2.6479

*** Psi4 exiting successfully. Buy a developer a beer!
