                               Psi4 1.3.2 release

  ==> Input File <==

--------------------------------------------------------------------------
#psi4
#
memory 32 gb

molecule  {
0 1
  O       -1.4373610     0.6812660     0.0112400
  N        0.8840130     0.5088410    -0.0326410
  N        1.9094790    -0.3796650    -0.0187050
  C       -0.2577115    -0.2274995    -0.0059949
  C       -0.1032490    -1.4732180     0.0219040
  C        1.1440790     1.9331410     0.0175110
  C        1.3002790    -1.5787310     0.0070160
  C       -2.6563940    -0.0670400    -0.0135030
  H       -0.8330430    -2.2689870     0.0348200
  H        1.1952250     2.2834660     1.0517640
  H        2.0986020     2.1064990    -0.4777900
  H        0.3432740     2.4564130    -0.5057130
  H        1.9052260    -2.4764620     0.0069120
  H       -3.4562640     0.6719480    -0.0131020
  H       -2.7349570    -0.7043590     0.8727740
  H       -2.7131850    -0.6822330    -0.9168940
units angstrom
no_reorient  #important for SAPT in psi4, default
symmetry c1  #important for SAPT in psi4, default
}

set PROPERTIES_ORIGIN ["COM"]
properties('MP2/aug-cc-pvtz', properties = ['dipole'])
--------------------------------------------------------------------------

    Molecular point group: c1
  Charge       = 0
  Multiplicity = 1
  Basis Set: AUG-CC-PVTZ
    Blend: AUG-CC-PVTZ
  Basis Set: (AUG-CC-PVTZ AUX)
    Blend: AUG-CC-PVTZ-JKFIT

    Orbital Energies [Eh]
    ---------------------

    Doubly Occupied:

       1A    -20.590277     2A    -15.626492     3A    -15.584000
       4A    -11.323411     5A    -11.284270     6A    -11.266995
       7A    -11.257767     8A    -11.212952     9A     -1.400400
      10A     -1.350706    11A     -1.122903    12A     -1.074146
      13A     -0.955539    14A     -0.926254    15A     -0.814130
      16A     -0.763496    17A     -0.720780    18A     -0.668354
      19A     -0.634583    20A     -0.628717    21A     -0.618728
      22A     -0.594430    23A     -0.581448    24A     -0.551436
      25A     -0.548593    26A     -0.505410    27A     -0.479682
      28A     -0.454552    29A     -0.368146    30A     -0.336641

  @DF-RHF Final Energy:  -377.81081250395852

   => Energetics <=

    Nuclear Repulsion Energy =            377.7716155878493396
    One-Electron Energy =               -1262.6743800743272459
    Two-Electron Energy =                 507.0919519825194470
    Total Energy =                       -377.8108125039585161
  Basis Set: (AUG-CC-PVTZ AUX)
    Blend: AUG-CC-PVTZ-RI
    Molecular point group: c1

    Geometry (in Angstrom), charge = 0, multiplicity = 1:

       Center              X                  Y                   Z               Mass
    ------------   -----------------  -----------------  -----------------  -----------------
         O           -1.482184644347     0.706763869789     0.012693083529    15.994914619570
         N            0.839189355653     0.534338869789    -0.031187916471    14.003074004430
         N            1.864655355653    -0.354167130211    -0.017251916471    14.003074004430
         C           -0.302535144347    -0.202001630211    -0.004541816471    12.000000000000
         C           -0.148072644347    -1.447720130211     0.023357083529    12.000000000000
         C            1.099255355653     1.958638869789     0.018964083529    12.000000000000
         C            1.255455355653    -1.553233130211     0.008469083529    12.000000000000
         C           -2.701217644347    -0.041542130211    -0.012049916471    12.000000000000
         H           -0.877866644347    -2.243489130211     0.036273083529     1.007825032230
         H            1.150401355653     2.308963869789     1.053217083529     1.007825032230
         H            2.053778355653     2.131996869789    -0.476336916471     1.007825032230
         H            0.298450355653     2.481910869789    -0.504259916471     1.007825032230
         H            1.860402355653    -2.450964130211     0.008365083529     1.007825032230
         H           -3.501087644347     0.697445869789    -0.011648916471     1.007825032230
         H           -2.779780644347    -0.678861130211     0.874227083529     1.007825032230
         H           -2.758008644347    -0.656735130211    -0.915440916471     1.007825032230

  Basis Set: AUG-CC-PVTZ
    Blend: AUG-CC-PVTZ
  Basis Set: (AUG-CC-PVTZ AUX)
    Blend: AUG-CC-PVTZ-JKFIT
	 Reference Energy          =    -377.8108125039585161 [Eh]
	 Singles Energy            =      -0.0000000000000000 [Eh]
	 Same-Spin Energy          =      -0.3965236239245705 [Eh]
	 Opposite-Spin Energy      =      -1.2420353821180630 [Eh]
	 Correlation Energy        =      -1.6385590060426334 [Eh]
	 Total Energy              =    -379.4493715100011286 [Eh]

	 ================> DF-SCS-MP2 Energies <==================
	-----------------------------------------------------------
	 SCS Same-Spin Scale       =       0.3333333333333333 [-]
	 SCS Opposite-Spin Scale   =       1.2000000000000000 [-]
	 SCS Same-Spin Energy      =      -0.1321745413081902 [Eh]
	 SCS Opposite-Spin Energy  =      -1.4904424585416756 [Eh]
	 SCS Correlation Energy    =      -1.6226169998498658 [Eh]
	 SCS Total Energy          =    -379.4334295038083837 [Eh]
	-----------------------------------------------------------

  Dipole Moment: [D]
     X:    -2.3709      Y:     0.1803      Z:     0.0028     Total:     2.3778

*** Psi4 exiting successfully. Buy a developer a beer!
