                               Psi4 1.3.2 release

  ==> Input File <==

--------------------------------------------------------------------------
#psi4
#
memory 32 gb

molecule  {
0 1
  O       -1.4373610     0.6812660     0.0112400
  N        0.8840130     0.5088410    -0.0326410
  N        1.9094790    -0.3796650    -0.0187050
  C       -0.4913350     0.0113241     0.0043779
  C       -0.1032490    -1.4732180     0.0219040
  C        1.1440790     1.9331410     0.0175110
  C        1.3002790    -1.5787310     0.0070160
  C       -2.6563940    -0.0670400    -0.0135030
  H       -0.8330430    -2.2689870     0.0348200
  H        1.1952250     2.2834660     1.0517640
  H        2.0986020     2.1064990    -0.4777900
  H        0.3432740     2.4564130    -0.5057130
  H        1.9052260    -2.4764620     0.0069120
  H       -3.4562640     0.6719480    -0.0131020
  H       -2.7349570    -0.7043590     0.8727740
  H       -2.7131850    -0.6822330    -0.9168940
units angstrom
no_reorient  #important for SAPT in psi4, default
symmetry c1  #important for SAPT in psi4, default
}

set PROPERTIES_ORIGIN ["COM"]
properties('MP2/aug-cc-pvtz', properties = ['dipole'])
--------------------------------------------------------------------------

    Molecular point group: c1
  Charge       = 0
  Multiplicity = 1
  Basis Set: AUG-CC-PVTZ
    Blend: AUG-CC-PVTZ
  Basis Set: (AUG-CC-PVTZ AUX)
    Blend: AUG-CC-PVTZ-JKFIT

    Orbital Energies [Eh]
    ---------------------

    Doubly Occupied:

       1A    -20.649196     2A    -15.613312     3A    -15.560665
       4A    -11.357799     5A    -11.325813     6A    -11.252258
       7A    -11.242856     8A    -11.214679     9A     -1.561094
      10A     -1.326270    11A     -1.100049    12A     -1.042750
      13A     -0.980914    14A     -0.915474    15A     -0.818873
      16A     -0.792035    17A     -0.735003    18A     -0.716864
      19A     -0.686980    20A     -0.623712    21A     -0.621151
      22A     -0.596960    23A     -0.567714    24A     -0.566584
      25A     -0.546255    26A     -0.510355    27A     -0.494001
      28A     -0.428920    29A     -0.334066    30A     -0.282579

  @DF-RHF Final Energy:  -377.77231622956168

   => Energetics <=

    Nuclear Repulsion Energy =            377.4581900751351213
    One-Electron Energy =               -1261.5306561791367130
    Two-Electron Energy =                 506.3001498744399100
    Total Energy =                       -377.7723162295616817
  Basis Set: (AUG-CC-PVTZ AUX)
    Blend: AUG-CC-PVTZ-RI
    Molecular point group: c1

    Geometry (in Angstrom), charge = 0, multiplicity = 1:

       Center              X                  Y                   Z               Mass
    ------------   -----------------  -----------------  -----------------  -----------------
         O           -1.457167775116     0.681190163503     0.011582343466    15.994914619570
         N            0.864206224884     0.508765163503    -0.032298656534    14.003074004430
         N            1.889672224884    -0.379740836497    -0.018362656534    14.003074004430
         C           -0.511141775116     0.011248263503     0.004720243466    12.000000000000
         C           -0.123055775116    -1.473293836497     0.022246343466    12.000000000000
         C            1.124272224884     1.933065163503     0.017853343466    12.000000000000
         C            1.280472224884    -1.578806836497     0.007358343466    12.000000000000
         C           -2.676200775116    -0.067115836497    -0.013160656534    12.000000000000
         H           -0.852849775116    -2.269062836497     0.035162343466     1.007825032230
         H            1.175418224884     2.283390163503     1.052106343466     1.007825032230
         H            2.078795224884     2.106423163503    -0.477447656534     1.007825032230
         H            0.323467224884     2.456337163503    -0.505370656534     1.007825032230
         H            1.885419224884    -2.476537836497     0.007254343466     1.007825032230
         H           -3.476070775116     0.671872163503    -0.012759656534     1.007825032230
         H           -2.754763775116    -0.704434836497     0.873116343466     1.007825032230
         H           -2.732991775116    -0.682308836497    -0.916551656534     1.007825032230

  Basis Set: AUG-CC-PVTZ
    Blend: AUG-CC-PVTZ
  Basis Set: (AUG-CC-PVTZ AUX)
    Blend: AUG-CC-PVTZ-JKFIT
	 Reference Energy          =    -377.7723162295616817 [Eh]
	 Singles Energy            =      -0.0000000000000000 [Eh]
	 Same-Spin Energy          =      -0.3987767562811302 [Eh]
	 Opposite-Spin Energy      =      -1.2420126662384980 [Eh]
	 Correlation Energy        =      -1.6407894225196282 [Eh]
	 Total Energy              =    -379.4131056520812990 [Eh]

	 ================> DF-SCS-MP2 Energies <==================
	-----------------------------------------------------------
	 SCS Same-Spin Scale       =       0.3333333333333333 [-]
	 SCS Opposite-Spin Scale   =       1.2000000000000000 [-]
	 SCS Same-Spin Energy      =      -0.1329255854270434 [Eh]
	 SCS Opposite-Spin Energy  =      -1.4904151994861976 [Eh]
	 SCS Correlation Energy    =      -1.6233407849132411 [Eh]
	 SCS Total Energy          =    -379.3956570144749207 [Eh]
	-----------------------------------------------------------

  Dipole Moment: [D]
     X:    -4.4048      Y:     1.1957      Z:     0.0061     Total:     4.5642

*** Psi4 exiting successfully. Buy a developer a beer!
