                               Psi4 1.3.2 release

  ==> Input File <==

--------------------------------------------------------------------------
#psi4
#
memory 32 gb

molecule  {
0 1
  O       -1.3798943     0.7567117     0.0086887
  N        0.8840130     0.5088410    -0.0326410
  N        1.9094790    -0.3796650    -0.0187050
  C       -0.3281200    -0.1042590     0.0031940
  C       -0.1032490    -1.4732180     0.0219040
  C        1.1440790     1.9331410     0.0175110
  C        1.3002790    -1.5787310     0.0070160
  C       -2.6563940    -0.0670400    -0.0135030
  H       -0.8330430    -2.2689870     0.0348200
  H        1.1952250     2.2834660     1.0517640
  H        2.0986020     2.1064990    -0.4777900
  H        0.3432740     2.4564130    -0.5057130
  H        1.9052260    -2.4764620     0.0069120
  H       -3.4562640     0.6719480    -0.0131020
  H       -2.7349570    -0.7043590     0.8727740
  H       -2.7131850    -0.6822330    -0.9168940
units angstrom
no_reorient  #important for SAPT in psi4, default
symmetry c1  #important for SAPT in psi4, default
}

set PROPERTIES_ORIGIN ["COM"]
properties('MP2/aug-cc-pvtz', properties = ['dipole'])
--------------------------------------------------------------------------

    Molecular point group: c1
  Charge       = 0
  Multiplicity = 1
  Basis Set: AUG-CC-PVTZ
    Blend: AUG-CC-PVTZ
  Basis Set: (AUG-CC-PVTZ AUX)
    Blend: AUG-CC-PVTZ-JKFIT

    Orbital Energies [Eh]
    ---------------------

    Doubly Occupied:

       1A    -20.611645     2A    -15.623307     3A    -15.571330
       4A    -11.332521     5A    -11.307777     6A    -11.261204
       7A    -11.250607     8A    -11.216115     9A     -1.422936
      10A     -1.348456    11A     -1.110805    12A     -1.043185
      13A     -0.965101    14A     -0.932992    15A     -0.802563
      16A     -0.764436    17A     -0.720682    18A     -0.673640
      19A     -0.633779    20A     -0.627537    21A     -0.615653
      22A     -0.589970    23A     -0.573994    24A     -0.547608
      25A     -0.543074    26A     -0.532980    27A     -0.507940
      28A     -0.444700    29A     -0.347932    30A     -0.318651

  @DF-RHF Final Energy:  -377.83358466066898

   => Energetics <=

    Nuclear Repulsion Energy =            376.7977083788961750
    One-Electron Energy =               -1260.7763523809067010
    Two-Electron Energy =                 506.1450593413414936
    Total Energy =                       -377.8335846606689756
  Basis Set: (AUG-CC-PVTZ AUX)
    Blend: AUG-CC-PVTZ-RI
    Molecular point group: c1

    Geometry (in Angstrom), charge = 0, multiplicity = 1:

       Center              X                  Y                   Z               Mass
    ------------   -----------------  -----------------  -----------------  -----------------
         O           -1.425380719042     0.758244321280     0.009521966431    15.994914619570
         N            0.838526580958     0.510373621280    -0.031807733569    14.003074004430
         N            1.863992580958    -0.378132378720    -0.017871733569    14.003074004430
         C           -0.373606419042    -0.102726378720     0.004027266431    12.000000000000
         C           -0.148735419042    -1.471685378720     0.022737266431    12.000000000000
         C            1.098592580958     1.934673621280     0.018344266431    12.000000000000
         C            1.254792580958    -1.577198378720     0.007849266431    12.000000000000
         C           -2.701880419042    -0.065507378720    -0.012669733569    12.000000000000
         H           -0.878529419042    -2.267454378720     0.035653266431     1.007825032230
         H            1.149738580958     2.284998621280     1.052597266431     1.007825032230
         H            2.053115580958     2.108031621280    -0.476956733569     1.007825032230
         H            0.297787580958     2.457945621280    -0.504879733569     1.007825032230
         H            1.859739580958    -2.474929378720     0.007745266431     1.007825032230
         H           -3.501750419042     0.673480621280    -0.012268733569     1.007825032230
         H           -2.780443419042    -0.702826378720     0.873607266431     1.007825032230
         H           -2.758671419042    -0.680700378720    -0.916060733569     1.007825032230

  Basis Set: AUG-CC-PVTZ
    Blend: AUG-CC-PVTZ
  Basis Set: (AUG-CC-PVTZ AUX)
    Blend: AUG-CC-PVTZ-JKFIT
	 Reference Energy          =    -377.8335846606689756 [Eh]
	 Singles Energy            =      -0.0000000000000000 [Eh]
	 Same-Spin Energy          =      -0.3973470563369292 [Eh]
	 Opposite-Spin Energy      =      -1.2427203542772416 [Eh]
	 Correlation Energy        =      -1.6400674106141708 [Eh]
	 Total Energy              =    -379.4736520712831407 [Eh]

	 ================> DF-SCS-MP2 Energies <==================
	-----------------------------------------------------------
	 SCS Same-Spin Scale       =       0.3333333333333333 [-]
	 SCS Opposite-Spin Scale   =       1.2000000000000000 [-]
	 SCS Same-Spin Energy      =      -0.1324490187789764 [Eh]
	 SCS Opposite-Spin Energy  =      -1.4912644251326899 [Eh]
	 SCS Correlation Energy    =      -1.6237134439116663 [Eh]
	 SCS Total Energy          =    -379.4572981045806159 [Eh]
	-----------------------------------------------------------

  Dipole Moment: [D]
     X:    -3.2918      Y:     0.4946      Z:     0.0037     Total:     3.3287

*** Psi4 exiting successfully. Buy a developer a beer!
