                               Psi4 1.3.2 release

  ==> Input File <==

--------------------------------------------------------------------------
#psi4
#
memory 32 gb

molecule  {
0 1
  O       -1.4373610     0.6812660     0.0112400
  N        0.8840130     0.5088410    -0.0326410
  N        1.9094790    -0.3796650    -0.0187050
  C       -0.3281200    -0.1042590     0.0031940
  C       -0.1032490    -1.4732180     0.0219040
  C        1.1440790     1.9331410     0.0175110
  C        1.3002790    -1.5787310     0.0070160
  C       -2.6563940    -0.0670400    -0.0135030
  H       -0.8330430    -2.2689870     0.0348200
  H        1.1952250     2.2834660     1.0517640
  H        2.0986020     2.1064990    -0.4777900
  H        0.3432740     2.4564130    -0.5057130
  H        2.0169909    -2.6423192     0.0068928
  H       -3.4562640     0.6719480    -0.0131020
  H       -2.7349570    -0.7043590     0.8727740
  H       -2.7131850    -0.6822330    -0.9168940
units angstrom
no_reorient  #important for SAPT in psi4, default
symmetry c1  #important for SAPT in psi4, default
}

set PROPERTIES_ORIGIN ["COM"]
properties('MP2/aug-cc-pvtz', properties = ['dipole'])
--------------------------------------------------------------------------

    Molecular point group: c1
  Charge       = 0
  Multiplicity = 1
  Basis Set: AUG-CC-PVTZ
    Blend: AUG-CC-PVTZ
  Basis Set: (AUG-CC-PVTZ AUX)
    Blend: AUG-CC-PVTZ-JKFIT

    Orbital Energies [Eh]
    ---------------------

    Doubly Occupied:

       1A    -20.610241     2A    -15.629869     3A    -15.575435
       4A    -11.337085     5A    -11.298694     6A    -11.273126
       7A    -11.265018     8A    -11.218032     9A     -1.437880
      10A     -1.357895    11A     -1.113419    12A     -1.051203
      13A     -0.965237    14A     -0.930587    15A     -0.795514
      16A     -0.771472    17A     -0.717635    18A     -0.682964
      19A     -0.640776    20A     -0.633965    21A     -0.622325
      22A     -0.592185    23A     -0.564002    24A     -0.546991
      25A     -0.536773    26A     -0.516095    27A     -0.502029
      28A     -0.446931    29A     -0.351025    30A     -0.322189

  @DF-RHF Final Energy:  -377.82117349214093

   => Energetics <=

    Nuclear Repulsion Energy =            376.5610458707567432
    One-Electron Energy =               -1260.1512542003656563
    Two-Electron Energy =                 505.7690348374679843
    Total Energy =                       -377.8211734921409288
  Basis Set: (AUG-CC-PVTZ AUX)
    Blend: AUG-CC-PVTZ-RI
    Molecular point group: c1

    Geometry (in Angstrom), charge = 0, multiplicity = 1:

       Center              X                  Y                   Z               Mass
    ------------   -----------------  -----------------  -----------------  -----------------
         O           -1.475650300232     0.695058639670     0.011709290505    15.994914619570
         N            0.845723699768     0.522633639670    -0.032171709495    14.003074004430
         N            1.871189699768    -0.365872360330    -0.018235709495    14.003074004430
         C           -0.366409300232    -0.090466360330     0.003663290505    12.000000000000
         C           -0.141538300232    -1.459425360330     0.022373290505    12.000000000000
         C            1.105789699768     1.946933639670     0.017980290505    12.000000000000
         C            1.261989699768    -1.564938360330     0.007485290505    12.000000000000
         C           -2.694683300232    -0.053247360330    -0.013033709495    12.000000000000
         H           -0.871332300232    -2.255194360330     0.035289290505     1.007825032230
         H            1.156935699768     2.297258639670     1.052233290505     1.007825032230
         H            2.060312699768     2.120291639670    -0.477320709495     1.007825032230
         H            0.304984699768     2.470205639670    -0.505243709495     1.007825032230
         H            1.978701599768    -2.628526560330     0.007362090505     1.007825032230
         H           -3.494553300232     0.685740639670    -0.012632709495     1.007825032230
         H           -2.773246300232    -0.690566360330     0.873243290505     1.007825032230
         H           -2.751474300232    -0.668440360330    -0.916424709495     1.007825032230

  Basis Set: AUG-CC-PVTZ
    Blend: AUG-CC-PVTZ
  Basis Set: (AUG-CC-PVTZ AUX)
    Blend: AUG-CC-PVTZ-JKFIT
	 Reference Energy          =    -377.8211734921409288 [Eh]
	 Singles Energy            =      -0.0000000000000000 [Eh]
	 Same-Spin Energy          =      -0.3968620158248176 [Eh]
	 Opposite-Spin Energy      =      -1.2416120325782527 [Eh]
	 Correlation Energy        =      -1.6384740484030704 [Eh]
	 Total Energy              =    -379.4596475405439833 [Eh]

	 ================> DF-SCS-MP2 Energies <==================
	-----------------------------------------------------------
	 SCS Same-Spin Scale       =       0.3333333333333333 [-]
	 SCS Opposite-Spin Scale   =       1.2000000000000000 [-]
	 SCS Same-Spin Energy      =      -0.1322873386082725 [Eh]
	 SCS Opposite-Spin Energy  =      -1.4899344390939031 [Eh]
	 SCS Correlation Energy    =      -1.6222217777021757 [Eh]
	 SCS Total Energy          =    -379.4433952698431085 [Eh]
	-----------------------------------------------------------

  Dipole Moment: [D]
     X:    -3.0360      Y:     0.7100      Z:     0.0023     Total:     3.1179

*** Psi4 exiting successfully. Buy a developer a beer!
