                               Psi4 1.4a3.dev225

  ==> Input File <==

--------------------------------------------------------------------------
#psi4
#
memory 32 gb

molecule  {
0 1
  O       -1.4373610     0.6812660     0.0112400
  N        0.8840130     0.5088410    -0.0326410
  N        1.9094790    -0.3796650    -0.0187050
  C       -0.3281200    -0.1042590     0.0031940
  C       -0.1032490    -1.4732180     0.0219040
  C        1.1476693     1.9528039     0.0182034
  C        1.3002790    -1.5787310     0.0070160
  C       -2.6563940    -0.0670400    -0.0135030
  H       -0.8330430    -2.2689870     0.0348200
  H        1.1952250     2.2834660     1.0517640
  H        2.0986020     2.1064990    -0.4777900
  H        0.3432740     2.4564130    -0.5057130
  H        1.9052260    -2.4764620     0.0069120
  H       -3.4562640     0.6719480    -0.0131020
  H       -2.7349570    -0.7043590     0.8727740
  H       -2.7131850    -0.6822330    -0.9168940
units angstrom
no_reorient  #important for SAPT in psi4, default
symmetry c1  #important for SAPT in psi4, default
}

set PROPERTIES_ORIGIN ["COM"]
properties('MP2/aug-cc-pvtz', properties = ['dipole'])
--------------------------------------------------------------------------

    Molecular point group: c1
  Charge       = 0
  Multiplicity = 1
  Basis Set: AUG-CC-PVTZ
    Blend: AUG-CC-PVTZ
  Basis Set: (AUG-CC-PVTZ AUX)
    Blend: AUG-CC-PVTZ-JKFIT

    Orbital Energies [Eh]
    ---------------------

    Doubly Occupied:

       1A    -20.608675     2A    -15.627935     3A    -15.573176
       4A    -11.334660     5A    -11.297712     6A    -11.264849
       7A    -11.251349     8A    -11.214993     9A     -1.436046
      10A     -1.354211    11A     -1.110487    12A     -1.048540
      13A     -0.964043    14A     -0.934958    15A     -0.803519
      16A     -0.770427    17A     -0.724644    18A     -0.681234
      19A     -0.644008    20A     -0.632795    21A     -0.619871
      22A     -0.594283    23A     -0.574167    24A     -0.549161
      25A     -0.547918    26A     -0.523292    27A     -0.500860
      28A     -0.447406    29A     -0.349461    30A     -0.320120

  @DF-RHF Final Energy:  -377.84348572458242

   => Energetics <=

    Nuclear Repulsion Energy =            377.0953454003309844
    One-Electron Energy =               -1261.2680622546279210
    Two-Electron Energy =                 506.3292311297145147
    Total Energy =                       -377.8434857245824219
  Basis Set: (AUG-CC-PVTZ AUX)
    Blend: AUG-CC-PVTZ-RI
    Molecular point group: c1

    Geometry (in Angstrom), charge = 0, multiplicity = 1:

       Center              X                  Y                   Z               Mass
    ------------   -----------------  -----------------  -----------------  -----------------
         O           -1.475029618540     0.691461489376     0.011634974264    15.994914619570
         N            0.846344381460     0.519036489376    -0.032246025736    14.003074004430
         N            1.871810381460    -0.369469510624    -0.018310025736    14.003074004430
         C           -0.365788618540    -0.094063510624     0.003588974264    12.000000000000
         C           -0.140917618540    -1.463022510624     0.022298974264    12.000000000000
         C            1.110000681460     1.962999389376     0.018598374264    12.000000000000
         C            1.262610381460    -1.568535510624     0.007410974264    12.000000000000
         C           -2.694062618540    -0.056844510624    -0.013108025736    12.000000000000
         H           -0.870711618540    -2.258791510624     0.035214974264     1.007825032230
         H            1.157556381460     2.293661489376     1.052158974264     1.007825032230
         H            2.060933381460     2.116694489376    -0.477395025736     1.007825032230
         H            0.305605381460     2.466608489376    -0.505318025736     1.007825032230
         H            1.867557381460    -2.466266510624     0.007306974264     1.007825032230
         H           -3.493932618540     0.682143489376    -0.012707025736     1.007825032230
         H           -2.772625618540    -0.694163510624     0.873168974264     1.007825032230
         H           -2.750853618540    -0.672037510624    -0.916499025736     1.007825032230

  Basis Set: AUG-CC-PVTZ
    Blend: AUG-CC-PVTZ
  Basis Set: (AUG-CC-PVTZ AUX)
    Blend: AUG-CC-PVTZ-JKFIT
	 Reference Energy          =    -377.8434857245824219 [Eh]
	 Singles Energy            =      -0.0000000000000000 [Eh]
	 Same-Spin Energy          =      -0.3963531237235259 [Eh]
	 Opposite-Spin Energy      =      -1.2396590038683442 [Eh]
	 Correlation Energy        =      -1.6360121275918700 [Eh]
	 Total Energy              =    -379.4794978521742905 [Eh]

	 ================> DF-SCS-MP2 Energies <==================
	-----------------------------------------------------------
	 SCS Same-Spin Scale       =       0.3333333333333333 [-]
	 SCS Opposite-Spin Scale   =       1.2000000000000000 [-]
	 SCS Same-Spin Energy      =      -0.1321177079078420 [Eh]
	 SCS Opposite-Spin Energy  =      -1.4875908046420130 [Eh]
	 SCS Correlation Energy    =      -1.6197085125498549 [Eh]
	 SCS Total Energy          =    -379.4631942371322566 [Eh]
	-----------------------------------------------------------

  Dipole Moment: [D]
     X:    -2.9822      Y:     0.7052      Z:     0.0093     Total:     3.0644

*** Psi4 exiting successfully. Buy a developer a beer!
