                               Psi4 1.3.2 release

  ==> Input File <==

--------------------------------------------------------------------------
#psi4
#
memory 32 gb

molecule  {
0 1
  O       -1.4373610     0.6812660     0.0112400
  N        0.8840130     0.5088410    -0.0326410
  N        1.9398598    -0.3433632    -0.0202615
  C       -0.3281200    -0.1042590     0.0031940
  C       -0.1032490    -1.4732180     0.0219040
  C        1.1440790     1.9331410     0.0175110
  C        1.3002790    -1.5787310     0.0070160
  C       -2.6563940    -0.0670400    -0.0135030
  H       -0.8330430    -2.2689870     0.0348200
  H        1.1952250     2.2834660     1.0517640
  H        2.0986020     2.1064990    -0.4777900
  H        0.3432740     2.4564130    -0.5057130
  H        1.9052260    -2.4764620     0.0069120
  H       -3.4562640     0.6719480    -0.0131020
  H       -2.7349570    -0.7043590     0.8727740
  H       -2.7131850    -0.6822330    -0.9168940
units angstrom
no_reorient  #important for SAPT in psi4, default
symmetry c1  #important for SAPT in psi4, default
}

set PROPERTIES_ORIGIN ["COM"]
properties('MP2/aug-cc-pvtz', properties = ['dipole'])
--------------------------------------------------------------------------

    Molecular point group: c1
  Charge       = 0
  Multiplicity = 1
  Basis Set: AUG-CC-PVTZ
    Blend: AUG-CC-PVTZ
  Basis Set: (AUG-CC-PVTZ AUX)
    Blend: AUG-CC-PVTZ-JKFIT

    Orbital Energies [Eh]
    ---------------------

    Doubly Occupied:

       1A    -20.610053     2A    -15.630748     3A    -15.578629
       4A    -11.336844     5A    -11.299079     6A    -11.262799
       7A    -11.257806     8A    -11.219584     9A     -1.437408
      10A     -1.352499    11A     -1.104410    12A     -1.052950
      13A     -0.965224    14A     -0.931500    15A     -0.805814
      16A     -0.769733    17A     -0.726047    18A     -0.682456
      19A     -0.646150    20A     -0.632508    21A     -0.618844
      22A     -0.593961    23A     -0.575151    24A     -0.544549
      25A     -0.540891    26A     -0.524007    27A     -0.499758
      28A     -0.454092    29A     -0.349935    30A     -0.317034

  @DF-RHF Final Energy:  -377.83680350809681

   => Energetics <=

    Nuclear Repulsion Energy =            376.6456939549859726
    One-Electron Energy =               -1260.3240689545859823
    Two-Electron Energy =                 505.8415714915032027
    Total Energy =                       -377.8368035080968070
  Basis Set: (AUG-CC-PVTZ AUX)
    Blend: AUG-CC-PVTZ-RI
    Molecular point group: c1

    Geometry (in Angstrom), charge = 0, multiplicity = 1:

       Center              X                  Y                   Z               Mass
    ------------   -----------------  -----------------  -----------------  -----------------
         O           -1.478441438044     0.689030888904     0.011903612499    15.994914619570
         N            0.842932561956     0.516605888904    -0.031977387501    14.003074004430
         N            1.898779361956    -0.335598311096    -0.019597887501    14.003074004430
         C           -0.369200438044    -0.096494111096     0.003857612499    12.000000000000
         C           -0.144329438044    -1.465453111096     0.022567612499    12.000000000000
         C            1.102998561956     1.940905888904     0.018174612499    12.000000000000
         C            1.259198561956    -1.570966111096     0.007679612499    12.000000000000
         C           -2.697474438044    -0.059275111096    -0.012839387501    12.000000000000
         H           -0.874123438044    -2.261222111096     0.035483612499     1.007825032230
         H            1.154144561956     2.291230888904     1.052427612499     1.007825032230
         H            2.057521561956     2.114263888904    -0.477126387501     1.007825032230
         H            0.302193561956     2.464177888904    -0.505049387501     1.007825032230
         H            1.864145561956    -2.468697111096     0.007575612499     1.007825032230
         H           -3.497344438044     0.679712888904    -0.012438387501     1.007825032230
         H           -2.776037438044    -0.696594111096     0.873437612499     1.007825032230
         H           -2.754265438044    -0.674468111096    -0.916230387501     1.007825032230

  Basis Set: AUG-CC-PVTZ
    Blend: AUG-CC-PVTZ
  Basis Set: (AUG-CC-PVTZ AUX)
    Blend: AUG-CC-PVTZ-JKFIT
	 Reference Energy          =    -377.8368035080968070 [Eh]
	 Singles Energy            =      -0.0000000000000000 [Eh]
	 Same-Spin Energy          =      -0.3978127010589291 [Eh]
	 Opposite-Spin Energy      =      -1.2425443217268470 [Eh]
	 Correlation Energy        =      -1.6403570227857762 [Eh]
	 Total Energy              =    -379.4771605308825997 [Eh]

	 ================> DF-SCS-MP2 Energies <==================
	-----------------------------------------------------------
	 SCS Same-Spin Scale       =       0.3333333333333333 [-]
	 SCS Opposite-Spin Scale   =       1.2000000000000000 [-]
	 SCS Same-Spin Energy      =      -0.1326042336863097 [Eh]
	 SCS Opposite-Spin Energy  =      -1.4910531860722165 [Eh]
	 SCS Correlation Energy    =      -1.6236574197585263 [Eh]
	 SCS Total Energy          =    -379.4604609278553085 [Eh]
	-----------------------------------------------------------

  Dipole Moment: [D]
     X:    -3.0993      Y:     0.6122      Z:     0.0055     Total:     3.1592

*** Psi4 exiting successfully. Buy a developer a beer!
