                               Psi4 1.3.2 release

  ==> Input File <==

--------------------------------------------------------------------------
#psi4
#
memory 32 gb

molecule  {
0 1
  O       -1.4373610     0.6812660     0.0112400
  N        0.9411411     0.3788833    -0.0414373
  N        1.9094790    -0.3796650    -0.0187050
  C       -0.3281200    -0.1042590     0.0031940
  C       -0.1032490    -1.4732180     0.0219040
  C        1.1440790     1.9331410     0.0175110
  C        1.3002790    -1.5787310     0.0070160
  C       -2.6563940    -0.0670400    -0.0135030
  H       -0.8330430    -2.2689870     0.0348200
  H        1.1952250     2.2834660     1.0517640
  H        2.0986020     2.1064990    -0.4777900
  H        0.3432740     2.4564130    -0.5057130
  H        1.9052260    -2.4764620     0.0069120
  H       -3.4562640     0.6719480    -0.0131020
  H       -2.7349570    -0.7043590     0.8727740
  H       -2.7131850    -0.6822330    -0.9168940
units angstrom
no_reorient  #important for SAPT in psi4, default
symmetry c1  #important for SAPT in psi4, default
}

set PROPERTIES_ORIGIN ["COM"]
properties('MP2/aug-cc-pvtz', properties = ['dipole'])
--------------------------------------------------------------------------

    Molecular point group: c1
  Charge       = 0
  Multiplicity = 1
  Basis Set: AUG-CC-PVTZ
    Blend: AUG-CC-PVTZ
  Basis Set: (AUG-CC-PVTZ AUX)
    Blend: AUG-CC-PVTZ-JKFIT

    Orbital Energies [Eh]
    ---------------------

    Doubly Occupied:

       1A    -20.608013     2A    -15.640021     3A    -15.572865
       4A    -11.322936     5A    -11.298179     6A    -11.273382
       7A    -11.237270     8A    -11.214365     9A     -1.443313
      10A     -1.405160    11A     -1.090250    12A     -1.065970
      13A     -0.961418    14A     -0.933290    15A     -0.817902
      16A     -0.767151    17A     -0.726081    18A     -0.684177
      19A     -0.642926    20A     -0.638570    21A     -0.625425
      22A     -0.594294    23A     -0.561389    24A     -0.557295
      25A     -0.542649    26A     -0.521954    27A     -0.507794
      28A     -0.449716    29A     -0.350102    30A     -0.311008

  @DF-RHF Final Energy:  -377.81513977961879

   => Energetics <=

    Nuclear Repulsion Energy =            378.7964997427220055
    One-Electron Energy =               -1264.4935443908707384
    Two-Electron Energy =                 507.8819048685298867
    Total Energy =                       -377.8151397796187894
  Basis Set: (AUG-CC-PVTZ AUX)
    Blend: AUG-CC-PVTZ-RI
    Molecular point group: c1

    Geometry (in Angstrom), charge = 0, multiplicity = 1:

       Center              X                  Y                   Z               Mass
    ------------   -----------------  -----------------  -----------------  -----------------
         O           -1.481783684867     0.709806080634     0.012808271981    15.994914619570
         N            0.896718415133     0.407423380634    -0.039869028019    14.003074004430
         N            1.865056315133    -0.351124919366    -0.017136728019    14.003074004430
         C           -0.372542684867    -0.075718919366     0.004762271981    12.000000000000
         C           -0.147671684867    -1.444677919366     0.023472271981    12.000000000000
         C            1.099656315133     1.961681080634     0.019079271981    12.000000000000
         C            1.255856315133    -1.550190919366     0.008584271981    12.000000000000
         C           -2.700816684867    -0.038499919366    -0.011934728019    12.000000000000
         H           -0.877465684867    -2.240446919366     0.036388271981     1.007825032230
         H            1.150802315133     2.312006080634     1.053332271981     1.007825032230
         H            2.054179315133     2.135039080634    -0.476221728019     1.007825032230
         H            0.298851315133     2.484953080634    -0.504144728019     1.007825032230
         H            1.860803315133    -2.447921919366     0.008480271981     1.007825032230
         H           -3.500686684867     0.700488080634    -0.011533728019     1.007825032230
         H           -2.779379684867    -0.675818919366     0.874342271981     1.007825032230
         H           -2.757607684867    -0.653692919366    -0.915325728019     1.007825032230

  Basis Set: AUG-CC-PVTZ
    Blend: AUG-CC-PVTZ
  Basis Set: (AUG-CC-PVTZ AUX)
    Blend: AUG-CC-PVTZ-JKFIT
	 Reference Energy          =    -377.8151397796187894 [Eh]
	 Singles Energy            =      -0.0000000000000000 [Eh]
	 Same-Spin Energy          =      -0.3978920149428167 [Eh]
	 Opposite-Spin Energy      =      -1.2401907383357020 [Eh]
	 Correlation Energy        =      -1.6380827532785187 [Eh]
	 Total Energy              =    -379.4532225328973141 [Eh]

	 ================> DF-SCS-MP2 Energies <==================
	-----------------------------------------------------------
	 SCS Same-Spin Scale       =       0.3333333333333333 [-]
	 SCS Opposite-Spin Scale   =       1.2000000000000000 [-]
	 SCS Same-Spin Energy      =      -0.1326306716476056 [Eh]
	 SCS Opposite-Spin Energy  =      -1.4882288860028423 [Eh]
	 SCS Correlation Energy    =      -1.6208595576504479 [Eh]
	 SCS Total Energy          =    -379.4359993372692088 [Eh]
	-----------------------------------------------------------

  Dipole Moment: [D]
     X:    -2.9627      Y:     0.9333      Z:     0.0046     Total:     3.1062

*** Psi4 exiting successfully. Buy a developer a beer!
