                               Psi4 1.3.2 release

  ==> Input File <==

--------------------------------------------------------------------------
#psi4
#
memory 32 gb

molecule  {
0 1
  O       -1.4373610     0.6812660     0.0112400
  N        0.8840130     0.5088410    -0.0326410
  N        1.9094790    -0.3796650    -0.0187050
  C       -0.3856158    -0.1796991     0.0011903
  C       -0.1032490    -1.4732180     0.0219040
  C        1.1440790     1.9331410     0.0175110
  C        1.3002790    -1.5787310     0.0070160
  C       -2.6563940    -0.0670400    -0.0135030
  H       -0.8330430    -2.2689870     0.0348200
  H        1.1952250     2.2834660     1.0517640
  H        2.0986020     2.1064990    -0.4777900
  H        0.3432740     2.4564130    -0.5057130
  H        1.9052260    -2.4764620     0.0069120
  H       -3.4562640     0.6719480    -0.0131020
  H       -2.7349570    -0.7043590     0.8727740
  H       -2.7131850    -0.6822330    -0.9168940
units angstrom
no_reorient  #important for SAPT in psi4, default
symmetry c1  #important for SAPT in psi4, default
}

set PROPERTIES_ORIGIN ["COM"]
properties('MP2/aug-cc-pvtz', properties = ['dipole'])
--------------------------------------------------------------------------

    Molecular point group: c1
  Charge       = 0
  Multiplicity = 1
  Basis Set: AUG-CC-PVTZ
    Blend: AUG-CC-PVTZ
  Basis Set: (AUG-CC-PVTZ AUX)
    Blend: AUG-CC-PVTZ-JKFIT

    Orbital Energies [Eh]
    ---------------------

    Doubly Occupied:

       1A    -20.612648     2A    -15.618678     3A    -15.582215
       4A    -11.333716     5A    -11.297900     6A    -11.259211
       7A    -11.250849     8A    -11.216971     9A     -1.437785
      10A     -1.343899    11A     -1.105703    12A     -1.057337
      13A     -0.966564    14A     -0.922619    15A     -0.797204
      16A     -0.773820    17A     -0.724845    18A     -0.680842
      19A     -0.644718    20A     -0.628035    21A     -0.626058
      22A     -0.594612    23A     -0.565741    24A     -0.542849
      25A     -0.538135    26A     -0.534585    27A     -0.501460
      28A     -0.448806    29A     -0.354801    30A     -0.319052

  @DF-RHF Final Energy:  -377.82902213342948

   => Energetics <=

    Nuclear Repulsion Energy =            376.9555786584550674
    One-Electron Energy =               -1261.0058856659497906
    Two-Electron Energy =                 506.2212848740651907
    Total Energy =                       -377.8290221334294756
  Basis Set: (AUG-CC-PVTZ AUX)
    Blend: AUG-CC-PVTZ-RI
    Molecular point group: c1

    Geometry (in Angstrom), charge = 0, multiplicity = 1:

       Center              X                  Y                   Z               Mass
    ------------   -----------------  -----------------  -----------------  -----------------
         O           -1.468488397406     0.701645307847     0.011923678016    15.994914619570
         N            0.852885602594     0.529220307847    -0.031957321984    14.003074004430
         N            1.878351602594    -0.359285692153    -0.018021321984    14.003074004430
         C           -0.416743197406    -0.159319792153     0.001873978016    12.000000000000
         C           -0.134376397406    -1.452838692153     0.022587678016    12.000000000000
         C            1.112951602594     1.953520307847     0.018194678016    12.000000000000
         C            1.269151602594    -1.558351692153     0.007699678016    12.000000000000
         C           -2.687521397406    -0.046660692153    -0.012819321984    12.000000000000
         H           -0.864170397406    -2.248607692153     0.035503678016     1.007825032230
         H            1.164097602594     2.303845307847     1.052447678016     1.007825032230
         H            2.067474602594     2.126878307847    -0.477106321984     1.007825032230
         H            0.312146602594     2.476792307847    -0.505029321984     1.007825032230
         H            1.874098602594    -2.456082692153     0.007595678016     1.007825032230
         H           -3.487391397406     0.692327307847    -0.012418321984     1.007825032230
         H           -2.766084397406    -0.683979692153     0.873457678016     1.007825032230
         H           -2.744312397406    -0.661853692153    -0.916210321984     1.007825032230

  Basis Set: AUG-CC-PVTZ
    Blend: AUG-CC-PVTZ
  Basis Set: (AUG-CC-PVTZ AUX)
    Blend: AUG-CC-PVTZ-JKFIT
	 Reference Energy          =    -377.8290221334294756 [Eh]
	 Singles Energy            =      -0.0000000000000000 [Eh]
	 Same-Spin Energy          =      -0.3973316590468347 [Eh]
	 Opposite-Spin Energy      =      -1.2423466078282697 [Eh]
	 Correlation Energy        =      -1.6396782668751042 [Eh]
	 Total Energy              =    -379.4687004003045558 [Eh]

	 ================> DF-SCS-MP2 Energies <==================
	-----------------------------------------------------------
	 SCS Same-Spin Scale       =       0.3333333333333333 [-]
	 SCS Opposite-Spin Scale   =       1.2000000000000000 [-]
	 SCS Same-Spin Energy      =      -0.1324438863489449 [Eh]
	 SCS Opposite-Spin Energy  =      -1.4908159293939236 [Eh]
	 SCS Correlation Energy    =      -1.6232598157428684 [Eh]
	 SCS Total Energy          =    -379.4522819491723453 [Eh]
	-----------------------------------------------------------

  Dipole Moment: [D]
     X:    -3.1400      Y:     0.4221      Z:     0.0079     Total:     3.1682

*** Psi4 exiting successfully. Buy a developer a beer!
