                               Psi4 1.3.2 release

  ==> Input File <==

--------------------------------------------------------------------------
#psi4
#
memory 32 gb

molecule  {
0 1
  O       -1.4234905     0.7005009     0.0106054
  N        0.8840130     0.5088410    -0.0326410
  N        1.9094790    -0.3796650    -0.0187050
  C       -0.3281200    -0.1042590     0.0031940
  C       -0.1032490    -1.4732180     0.0219040
  C        1.1440790     1.9331410     0.0175110
  C        1.3002790    -1.5787310     0.0070160
  C       -2.6563940    -0.0670400    -0.0135030
  H       -0.8330430    -2.2689870     0.0348200
  H        1.1952250     2.2834660     1.0517640
  H        2.0986020     2.1064990    -0.4777900
  H        0.3432740     2.4564130    -0.5057130
  H        1.9052260    -2.4764620     0.0069120
  H       -3.4562640     0.6719480    -0.0131020
  H       -2.7349570    -0.7043590     0.8727740
  H       -2.7131850    -0.6822330    -0.9168940
units angstrom
no_reorient  #important for SAPT in psi4, default
symmetry c1  #important for SAPT in psi4, default
}

set PROPERTIES_ORIGIN ["COM"]
properties('MP2/aug-cc-pvtz', properties = ['dipole'])
--------------------------------------------------------------------------

    Molecular point group: c1
  Charge       = 0
  Multiplicity = 1
  Basis Set: AUG-CC-PVTZ
    Blend: AUG-CC-PVTZ
  Basis Set: (AUG-CC-PVTZ AUX)
    Blend: AUG-CC-PVTZ-JKFIT

    Orbital Energies [Eh]
    ---------------------

    Doubly Occupied:

       1A    -20.609947     2A    -15.627165     3A    -15.573128
       4A    -11.334694     5A    -11.300422     6A    -11.263404
       7A    -11.251763     8A    -11.215780     9A     -1.432829
      10A     -1.354461    11A     -1.113241    12A     -1.047838
      13A     -0.964408    14A     -0.933637    15A     -0.804151
      16A     -0.769422    17A     -0.724959    18A     -0.679607
      19A     -0.641484    20A     -0.631540    21A     -0.619754
      22A     -0.592931    23A     -0.576661    24A     -0.546203
      25A     -0.544522    26A     -0.526751    27A     -0.503090
      28A     -0.447383    29A     -0.349222    30A     -0.320295

  @DF-RHF Final Energy:  -377.84240649588224

   => Energetics <=

    Nuclear Repulsion Energy =            377.2993518574431846
    One-Electron Energy =               -1261.6821310146153792
    Two-Electron Energy =                 506.5403726612899504
    Total Energy =                       -377.8424064958822441
  Basis Set: (AUG-CC-PVTZ AUX)
    Blend: AUG-CC-PVTZ-RI
    Molecular point group: c1

    Geometry (in Angstrom), charge = 0, multiplicity = 1:

       Center              X                  Y                   Z               Mass
    ------------   -----------------  -----------------  -----------------  -----------------
         O           -1.462754406955     0.710056522881     0.011165094677    15.994914619570
         N            0.844749093045     0.518396622881    -0.032081305323    14.003074004430
         N            1.870215093045    -0.370109377119    -0.018145305323    14.003074004430
         C           -0.367383906955    -0.094703377119     0.003753694677    12.000000000000
         C           -0.142512906955    -1.463662377119     0.022463694677    12.000000000000
         C            1.104815093045     1.942696622881     0.018070694677    12.000000000000
         C            1.261015093045    -1.569175377119     0.007575694677    12.000000000000
         C           -2.695657906955    -0.057484377119    -0.012943305323    12.000000000000
         H           -0.872306906955    -2.259431377119     0.035379694677     1.007825032230
         H            1.155961093045     2.293021622881     1.052323694677     1.007825032230
         H            2.059338093045     2.116054622881    -0.477230305323     1.007825032230
         H            0.304010093045     2.465968622881    -0.505153305323     1.007825032230
         H            1.865962093045    -2.466906377119     0.007471694677     1.007825032230
         H           -3.495527906955     0.681503622881    -0.012542305323     1.007825032230
         H           -2.774220906955    -0.694803377119     0.873333694677     1.007825032230
         H           -2.752448906955    -0.672677377119    -0.916334305323     1.007825032230

  Basis Set: AUG-CC-PVTZ
    Blend: AUG-CC-PVTZ
  Basis Set: (AUG-CC-PVTZ AUX)
    Blend: AUG-CC-PVTZ-JKFIT
	 Reference Energy          =    -377.8424064958822441 [Eh]
	 Singles Energy            =      -0.0000000000000000 [Eh]
	 Same-Spin Energy          =      -0.3966202621597849 [Eh]
	 Opposite-Spin Energy      =      -1.2403094296328503 [Eh]
	 Correlation Energy        =      -1.6369296917926350 [Eh]
	 Total Energy              =    -379.4793361876749032 [Eh]

	 ================> DF-SCS-MP2 Energies <==================
	-----------------------------------------------------------
	 SCS Same-Spin Scale       =       0.3333333333333333 [-]
	 SCS Opposite-Spin Scale   =       1.2000000000000000 [-]
	 SCS Same-Spin Energy      =      -0.1322067540532616 [Eh]
	 SCS Opposite-Spin Energy  =      -1.4883713155594203 [Eh]
	 SCS Correlation Energy    =      -1.6205780696126819 [Eh]
	 SCS Total Energy          =    -379.4629845654949349 [Eh]
	-----------------------------------------------------------

  Dipole Moment: [D]
     X:    -3.0754      Y:     0.6059      Z:     0.0032     Total:     3.1345

*** Psi4 exiting successfully. Buy a developer a beer!
