                               Psi4 1.3.2 release

  ==> Input File <==

--------------------------------------------------------------------------
#psi4
#
memory 32 gb

molecule  {
0 1
  O       -1.4373610     0.6812660     0.0112400
  N        0.8840130     0.5088410    -0.0326410
  N        1.9094790    -0.3796650    -0.0187050
  C       -0.3281200    -0.1042590     0.0031940
  C       -0.1032490    -1.4732180     0.0219040
  C        1.1440790     1.9331410     0.0175110
  C        1.2005660    -1.5712349     0.0080737
  C       -2.6563940    -0.0670400    -0.0135030
  H       -0.8330430    -2.2689870     0.0348200
  H        1.1952250     2.2834660     1.0517640
  H        2.0986020     2.1064990    -0.4777900
  H        0.3432740     2.4564130    -0.5057130
  H        1.9052260    -2.4764620     0.0069120
  H       -3.4562640     0.6719480    -0.0131020
  H       -2.7349570    -0.7043590     0.8727740
  H       -2.7131850    -0.6822330    -0.9168940
units angstrom
no_reorient  #important for SAPT in psi4, default
symmetry c1  #important for SAPT in psi4, default
}

set PROPERTIES_ORIGIN ["COM"]
properties('MP2/aug-cc-pvtz', properties = ['dipole'])
--------------------------------------------------------------------------

    Molecular point group: c1
  Charge       = 0
  Multiplicity = 1
  Basis Set: AUG-CC-PVTZ
    Blend: AUG-CC-PVTZ
  Basis Set: (AUG-CC-PVTZ AUX)
    Blend: AUG-CC-PVTZ-JKFIT

    Orbital Energies [Eh]
    ---------------------

    Doubly Occupied:

       1A    -20.609868     2A    -15.632782     3A    -15.567747
       4A    -11.336537     5A    -11.299754     6A    -11.264438
       7A    -11.248192     8A    -11.211282     9A     -1.438149
      10A     -1.356113    11A     -1.114737    12A     -1.056322
      13A     -0.970805    14A     -0.934016    15A     -0.797403
      16A     -0.776835    17A     -0.726760    18A     -0.683682
      19A     -0.642915    20A     -0.633459    21A     -0.629054
      22A     -0.593132    23A     -0.574340    24A     -0.548463
      25A     -0.535437    26A     -0.513867    27A     -0.501328
      28A     -0.454746    29A     -0.365162    30A     -0.310171

  @DF-RHF Final Energy:  -377.82494779577547

   => Energetics <=

    Nuclear Repulsion Energy =            378.7053418320249989
    One-Electron Energy =               -1264.4055881227575355
    Two-Electron Energy =                 507.8752984949571214
    Total Energy =                       -377.8249477957754721
  Basis Set: (AUG-CC-PVTZ AUX)
    Blend: AUG-CC-PVTZ-RI
    Molecular point group: c1

    Geometry (in Angstrom), charge = 0, multiplicity = 1:

       Center              X                  Y                   Z               Mass
    ------------   -----------------  -----------------  -----------------  -----------------
         O           -1.463967695628     0.692764334529     0.011595857213    15.994914619570
         N            0.857406304372     0.520339334529    -0.032285142787    14.003074004430
         N            1.882872304372    -0.368166665471    -0.018349142787    14.003074004430
         C           -0.354726695628    -0.092760665471     0.003549857213    12.000000000000
         C           -0.129855695628    -1.461719665471     0.022259857213    12.000000000000
         C            1.117472304372     1.944639334529     0.017866857213    12.000000000000
         C            1.173959304372    -1.559736565471     0.008429557213    12.000000000000
         C           -2.683000695628    -0.055541665471    -0.013147142787    12.000000000000
         H           -0.859649695628    -2.257488665471     0.035175857213     1.007825032230
         H            1.168618304372     2.294964334529     1.052119857213     1.007825032230
         H            2.071995304372     2.117997334529    -0.477434142787     1.007825032230
         H            0.316667304372     2.467911334529    -0.505357142787     1.007825032230
         H            1.878619304372    -2.464963665471     0.007267857213     1.007825032230
         H           -3.482870695628     0.683446334529    -0.012746142787     1.007825032230
         H           -2.761563695628    -0.692860665471     0.873129857213     1.007825032230
         H           -2.739791695628    -0.670734665471    -0.916538142787     1.007825032230

  Basis Set: AUG-CC-PVTZ
    Blend: AUG-CC-PVTZ
  Basis Set: (AUG-CC-PVTZ AUX)
    Blend: AUG-CC-PVTZ-JKFIT
	 Reference Energy          =    -377.8249477957754721 [Eh]
	 Singles Energy            =      -0.0000000000000000 [Eh]
	 Same-Spin Energy          =      -0.3985223765325361 [Eh]
	 Opposite-Spin Energy      =      -1.2428238019511497 [Eh]
	 Correlation Energy        =      -1.6413461784836858 [Eh]
	 Total Energy              =    -379.4662939742591448 [Eh]

	 ================> DF-SCS-MP2 Energies <==================
	-----------------------------------------------------------
	 SCS Same-Spin Scale       =       0.3333333333333333 [-]
	 SCS Opposite-Spin Scale   =       1.2000000000000000 [-]
	 SCS Same-Spin Energy      =      -0.1328407921775120 [Eh]
	 SCS Opposite-Spin Energy  =      -1.4913885623413796 [Eh]
	 SCS Correlation Energy    =      -1.6242293545188917 [Eh]
	 SCS Total Energy          =    -379.4491771502943607 [Eh]
	-----------------------------------------------------------

  Dipole Moment: [D]
     X:    -3.1659      Y:     0.7001      Z:     0.0105     Total:     3.2424

*** Psi4 exiting successfully. Buy a developer a beer!
