                               Psi4 1.3.2 release

  ==> Input File <==

--------------------------------------------------------------------------
#psi4
#
memory 32 gb

molecule  {
0 1
  O       -1.4373610     0.6812660     0.0112400
  N        0.8840130     0.5088410    -0.0326410
  N        1.9094790    -0.3796650    -0.0187050
  C       -0.2465125    -0.1620505     0.0026021
  C       -0.1032490    -1.4732180     0.0219040
  C        1.1440790     1.9331410     0.0175110
  C        1.3002790    -1.5787310     0.0070160
  C       -2.6563940    -0.0670400    -0.0135030
  H       -0.8330430    -2.2689870     0.0348200
  H        1.1952250     2.2834660     1.0517640
  H        2.0986020     2.1064990    -0.4777900
  H        0.3432740     2.4564130    -0.5057130
  H        1.9052260    -2.4764620     0.0069120
  H       -3.4562640     0.6719480    -0.0131020
  H       -2.7349570    -0.7043590     0.8727740
  H       -2.7131850    -0.6822330    -0.9168940
units angstrom
no_reorient  #important for SAPT in psi4, default
symmetry c1  #important for SAPT in psi4, default
}

set PROPERTIES_ORIGIN ["COM"]
properties('MP2/aug-cc-pvtz', properties = ['dipole'])
--------------------------------------------------------------------------

    Molecular point group: c1
  Charge       = 0
  Multiplicity = 1
  Basis Set: AUG-CC-PVTZ
    Blend: AUG-CC-PVTZ
  Basis Set: (AUG-CC-PVTZ AUX)
    Blend: AUG-CC-PVTZ-JKFIT

    Orbital Energies [Eh]
    ---------------------

    Doubly Occupied:

       1A    -20.592890     2A    -15.631538     3A    -15.577545
       4A    -11.327530     5A    -11.287301     6A    -11.269141
       7A    -11.256905     8A    -11.214027     9A     -1.409709
      10A     -1.357609    11A     -1.122701    12A     -1.065011
      13A     -0.958935    14A     -0.932530    15A     -0.815428
      16A     -0.762973    17A     -0.722433    18A     -0.673570
      19A     -0.634676    20A     -0.631737    21A     -0.613945
      22A     -0.599300    23A     -0.585512    24A     -0.551747
      25A     -0.549961    26A     -0.507216    27A     -0.484025
      28A     -0.452569    29A     -0.358207    30A     -0.336529

  @DF-RHF Final Energy:  -377.83018644038856

   => Energetics <=

    Nuclear Repulsion Energy =            377.9462518000349860
    One-Electron Energy =               -1262.9864769931282353
    Two-Electron Energy =                 507.2100387527046337
    Total Energy =                       -377.8301864403885588
  Basis Set: (AUG-CC-PVTZ AUX)
    Blend: AUG-CC-PVTZ-RI
    Molecular point group: c1

    Geometry (in Angstrom), charge = 0, multiplicity = 1:

       Center              X                  Y                   Z               Mass
    ------------   -----------------  -----------------  -----------------  -----------------
         O           -1.483383855550     0.699755460642     0.011772499663    15.994914619570
         N            0.837990144450     0.527330460642    -0.032108500337    14.003074004430
         N            1.863456144450    -0.361175539358    -0.018172500337    14.003074004430
         C           -0.292535355550    -0.143561039358     0.003134599663    12.000000000000
         C           -0.149271855550    -1.454728539358     0.022436499663    12.000000000000
         C            1.098056144450     1.951630460642     0.018043499663    12.000000000000
         C            1.254256144450    -1.560241539358     0.007548499663    12.000000000000
         C           -2.702416855550    -0.048550539358    -0.012970500337    12.000000000000
         H           -0.879065855550    -2.250497539358     0.035352499663     1.007825032230
         H            1.149202144450     2.301955460642     1.052296499663     1.007825032230
         H            2.052579144450     2.124988460642    -0.477257500337     1.007825032230
         H            0.297251144450     2.474902460642    -0.505180500337     1.007825032230
         H            1.859203144450    -2.457972539358     0.007444499663     1.007825032230
         H           -3.502286855550     0.690437460642    -0.012569500337     1.007825032230
         H           -2.780979855550    -0.685869539358     0.873306499663     1.007825032230
         H           -2.759207855550    -0.663743539358    -0.916361500337     1.007825032230

  Basis Set: AUG-CC-PVTZ
    Blend: AUG-CC-PVTZ
  Basis Set: (AUG-CC-PVTZ AUX)
    Blend: AUG-CC-PVTZ-JKFIT
	 Reference Energy          =    -377.8301864403885588 [Eh]
	 Singles Energy            =      -0.0000000000000000 [Eh]
	 Same-Spin Energy          =      -0.3961053001428428 [Eh]
	 Opposite-Spin Energy      =      -1.2401260998337689 [Eh]
	 Correlation Energy        =      -1.6362313999766116 [Eh]
	 Total Energy              =    -379.4664178403651817 [Eh]

	 ================> DF-SCS-MP2 Energies <==================
	-----------------------------------------------------------
	 SCS Same-Spin Scale       =       0.3333333333333333 [-]
	 SCS Opposite-Spin Scale   =       1.2000000000000000 [-]
	 SCS Same-Spin Energy      =      -0.1320351000476143 [Eh]
	 SCS Opposite-Spin Energy  =      -1.4881513198005225 [Eh]
	 SCS Correlation Energy    =      -1.6201864198481368 [Eh]
	 SCS Total Energy          =    -379.4503728602367119 [Eh]
	-----------------------------------------------------------

  Dipole Moment: [D]
     X:    -2.4336      Y:     0.4157      Z:     0.0031     Total:     2.4689

*** Psi4 exiting successfully. Buy a developer a beer!
