                               Psi4 1.3.2 release

  ==> Input File <==

--------------------------------------------------------------------------
#psi4
#
memory 32 gb

molecule  {
0 1
  O       -1.4373610     0.6812660     0.0112400
  N        0.8840130     0.5088410    -0.0326410
  N        1.9094790    -0.3796650    -0.0187050
  C       -0.2826119    -0.1872507    -0.0028945
  C       -0.1032490    -1.4732180     0.0219040
  C        1.1440790     1.9331410     0.0175110
  C        1.3002790    -1.5787310     0.0070160
  C       -2.6563940    -0.0670400    -0.0135030
  H       -0.8330430    -2.2689870     0.0348200
  H        1.1952250     2.2834660     1.0517640
  H        2.0986020     2.1064990    -0.4777900
  H        0.3432740     2.4564130    -0.5057130
  H        1.9052260    -2.4764620     0.0069120
  H       -3.4562640     0.6719480    -0.0131020
  H       -2.7349570    -0.7043590     0.8727740
  H       -2.7131850    -0.6822330    -0.9168940
units angstrom
no_reorient  #important for SAPT in psi4, default
symmetry c1  #important for SAPT in psi4, default
}

set PROPERTIES_ORIGIN ["COM"]
properties('MP2/aug-cc-pvtz', properties = ['dipole'])
--------------------------------------------------------------------------

    Molecular point group: c1
  Charge       = 0
  Multiplicity = 1
  Basis Set: AUG-CC-PVTZ
    Blend: AUG-CC-PVTZ
  Basis Set: (AUG-CC-PVTZ AUX)
    Blend: AUG-CC-PVTZ-JKFIT

    Orbital Energies [Eh]
    ---------------------

    Doubly Occupied:

       1A    -20.596754     2A    -15.627205     3A    -15.580825
       4A    -11.327068     5A    -11.288687     6A    -11.266085
       7A    -11.255659     8A    -11.214207     9A     -1.408107
      10A     -1.355332    11A     -1.117915    12A     -1.066580
      13A     -0.957014    14A     -0.930164    15A     -0.810672
      16A     -0.764456    17A     -0.722945    18A     -0.671382
      19A     -0.635289    20A     -0.630830    21A     -0.618200
      22A     -0.596990    23A     -0.581355    24A     -0.548695
      25A     -0.547242    26A     -0.514299    27A     -0.487060
      28A     -0.452830    29A     -0.359623    30A     -0.333473

  @DF-RHF Final Energy:  -377.82900665629137

   => Energetics <=

    Nuclear Repulsion Energy =            377.6204322740683210
    One-Electron Energy =               -1262.3649874496654775
    Two-Electron Energy =                 506.9155485193057871
    Total Energy =                       -377.8290066562913694
  Basis Set: (AUG-CC-PVTZ AUX)
    Blend: AUG-CC-PVTZ-RI
    Molecular point group: c1

    Geometry (in Angstrom), charge = 0, multiplicity = 1:

       Center              X                  Y                   Z               Mass
    ------------   -----------------  -----------------  -----------------  -----------------
         O           -1.479518259969     0.702453948200     0.012361086528    15.994914619570
         N            0.841855740031     0.530028948200    -0.031519913472    14.003074004430
         N            1.867321740031    -0.358477051800    -0.017583913472    14.003074004430
         C           -0.324769159969    -0.166062751800    -0.001773413472    12.000000000000
         C           -0.145406259969    -1.452030051800     0.023025086528    12.000000000000
         C            1.101921740031     1.954328948200     0.018632086528    12.000000000000
         C            1.258121740031    -1.557543051800     0.008137086528    12.000000000000
         C           -2.698551259969    -0.045852051800    -0.012381913472    12.000000000000
         H           -0.875200259969    -2.247799051800     0.035941086528     1.007825032230
         H            1.153067740031     2.304653948200     1.052885086528     1.007825032230
         H            2.056444740031     2.127686948200    -0.476668913472     1.007825032230
         H            0.301116740031     2.477600948200    -0.504591913472     1.007825032230
         H            1.863068740031    -2.455274051800     0.008033086528     1.007825032230
         H           -3.498421259969     0.693135948200    -0.011980913472     1.007825032230
         H           -2.777114259969    -0.683171051800     0.873895086528     1.007825032230
         H           -2.755342259969    -0.661045051800    -0.915772913472     1.007825032230

  Basis Set: AUG-CC-PVTZ
    Blend: AUG-CC-PVTZ
  Basis Set: (AUG-CC-PVTZ AUX)
    Blend: AUG-CC-PVTZ-JKFIT
	 Reference Energy          =    -377.8290066562913694 [Eh]
	 Singles Energy            =      -0.0000000000000000 [Eh]
	 Same-Spin Energy          =      -0.3963780395456075 [Eh]
	 Opposite-Spin Energy      =      -1.2409993844640841 [Eh]
	 Correlation Energy        =      -1.6373774240096917 [Eh]
	 Total Energy              =    -379.4663840803010544 [Eh]

	 ================> DF-SCS-MP2 Energies <==================
	-----------------------------------------------------------
	 SCS Same-Spin Scale       =       0.3333333333333333 [-]
	 SCS Opposite-Spin Scale   =       1.2000000000000000 [-]
	 SCS Same-Spin Energy      =      -0.1321260131818691 [Eh]
	 SCS Opposite-Spin Energy  =      -1.4891992613569009 [Eh]
	 SCS Correlation Energy    =      -1.6213252745387701 [Eh]
	 SCS Total Energy          =    -379.4503319308301457 [Eh]
	-----------------------------------------------------------

  Dipole Moment: [D]
     X:    -2.5741      Y:     0.3381      Z:     0.0033     Total:     2.5962

*** Psi4 exiting successfully. Buy a developer a beer!
