                               Psi4 1.4a3.dev225

  ==> Input File <==

--------------------------------------------------------------------------
#psi4
#
memory 32 gb

molecule  {
0 1
  O       -1.4373610     0.6812660     0.0112400
  N        0.8840130     0.5088410    -0.0326410
  N        1.9094790    -0.3796650    -0.0187050
  C       -0.3281200    -0.1042590     0.0031940
  C       -0.1000075    -1.4929517     0.0221737
  C        1.1440790     1.9331410     0.0175110
  C        1.3002790    -1.5787310     0.0070160
  C       -2.6563940    -0.0670400    -0.0135030
  H       -0.8330430    -2.2689870     0.0348200
  H        1.1952250     2.2834660     1.0517640
  H        2.0986020     2.1064990    -0.4777900
  H        0.3432740     2.4564130    -0.5057130
  H        1.9052260    -2.4764620     0.0069120
  H       -3.4562640     0.6719480    -0.0131020
  H       -2.7349570    -0.7043590     0.8727740
  H       -2.7131850    -0.6822330    -0.9168940
units angstrom
no_reorient  #important for SAPT in psi4, default
symmetry c1  #important for SAPT in psi4, default
}

set PROPERTIES_ORIGIN ["COM"]
properties('MP2/aug-cc-pvtz', properties = ['dipole'])
--------------------------------------------------------------------------

    Molecular point group: c1
  Charge       = 0
  Multiplicity = 1
  Basis Set: AUG-CC-PVTZ
    Blend: AUG-CC-PVTZ
  Basis Set: (AUG-CC-PVTZ AUX)
    Blend: AUG-CC-PVTZ-JKFIT

    Orbital Energies [Eh]
    ---------------------

    Doubly Occupied:

       1A    -20.609973     2A    -15.629923     3A    -15.572429
       4A    -11.338192     5A    -11.298449     6A    -11.264652
       7A    -11.251957     8A    -11.216498     9A     -1.437182
      10A     -1.356045    11A     -1.114353    12A     -1.046959
      13A     -0.964785    14A     -0.934718    15A     -0.804236
      16A     -0.771695    17A     -0.726311    18A     -0.681973
      19A     -0.645984    20A     -0.633211    21A     -0.623104
      22A     -0.592402    23A     -0.579052    24A     -0.546211
      25A     -0.544874    26A     -0.522348    27A     -0.501402
      28A     -0.448280    29A     -0.350530    30A     -0.318454

  @DF-RHF Final Energy:  -377.84294844511987

   => Energetics <=

    Nuclear Repulsion Energy =            377.1355403082337716
    One-Electron Energy =               -1261.3046143757262598
    Two-Electron Energy =                 506.3261256223726150
    Total Energy =                       -377.8429484451198732
  Basis Set: (AUG-CC-PVTZ AUX)
    Blend: AUG-CC-PVTZ-RI
    Molecular point group: c1

    Geometry (in Angstrom), charge = 0, multiplicity = 1:

       Center              X                  Y                   Z               Mass
    ------------   -----------------  -----------------  -----------------  -----------------
         O           -1.474992268342     0.695680155693     0.011680237821    15.994914619570
         N            0.846381731658     0.523255155693    -0.032200762179    14.003074004430
         N            1.871847731658    -0.365250844307    -0.018264762179    14.003074004430
         C           -0.365751268342    -0.089844844307     0.003634237821    12.000000000000
         C           -0.137638768342    -1.478537544307     0.022613937821    12.000000000000
         C            1.106447731658     1.947555155693     0.017951237821    12.000000000000
         C            1.262647731658    -1.564316844307     0.007456237821    12.000000000000
         C           -2.694025268342    -0.052625844307    -0.013062762179    12.000000000000
         H           -0.870674268342    -2.254572844307     0.035260237821     1.007825032230
         H            1.157593731658     2.297880155693     1.052204237821     1.007825032230
         H            2.060970731658     2.120913155693    -0.477349762179     1.007825032230
         H            0.305642731658     2.470827155693    -0.505272762179     1.007825032230
         H            1.867594731658    -2.462047844307     0.007352237821     1.007825032230
         H           -3.493895268342     0.686362155693    -0.012661762179     1.007825032230
         H           -2.772588268342    -0.689944844307     0.873214237821     1.007825032230
         H           -2.750816268342    -0.667818844307    -0.916453762179     1.007825032230

  Basis Set: AUG-CC-PVTZ
    Blend: AUG-CC-PVTZ
  Basis Set: (AUG-CC-PVTZ AUX)
    Blend: AUG-CC-PVTZ-JKFIT
	 Reference Energy          =    -377.8429484451198732 [Eh]
	 Singles Energy            =      -0.0000000000000000 [Eh]
	 Same-Spin Energy          =      -0.3965549536548643 [Eh]
	 Opposite-Spin Energy      =      -1.2398500239181234 [Eh]
	 Correlation Energy        =      -1.6364049775729876 [Eh]
	 Total Energy              =    -379.4793534226928386 [Eh]

	 ================> DF-SCS-MP2 Energies <==================
	-----------------------------------------------------------
	 SCS Same-Spin Scale       =       0.3333333333333333 [-]
	 SCS Opposite-Spin Scale   =       1.2000000000000000 [-]
	 SCS Same-Spin Energy      =      -0.1321849845516214 [Eh]
	 SCS Opposite-Spin Energy  =      -1.4878200287017480 [Eh]
	 SCS Correlation Energy    =      -1.6200050132533694 [Eh]
	 SCS Total Energy          =    -379.4629534583732493 [Eh]
	-----------------------------------------------------------

  Dipole Moment: [D]
     X:    -3.0131      Y:     0.6801      Z:     0.0037     Total:     3.0889

*** Psi4 exiting successfully. Buy a developer a beer!
