                               Psi4 1.3.2 release

  ==> Input File <==

--------------------------------------------------------------------------
#psi4
#
memory 32 gb

molecule  {
0 1
  O       -1.4373610     0.6812660     0.0112400
  N        0.8840130     0.5088410    -0.0326410
  N        1.9094790    -0.3796650    -0.0187050
  C       -0.3145801    -0.0847862     0.0037014
  C       -0.1032490    -1.4732180     0.0219040
  C        1.1440790     1.9331410     0.0175110
  C        1.3002790    -1.5787310     0.0070160
  C       -2.6563940    -0.0670400    -0.0135030
  H       -0.8330430    -2.2689870     0.0348200
  H        1.1952250     2.2834660     1.0517640
  H        2.0986020     2.1064990    -0.4777900
  H        0.3432740     2.4564130    -0.5057130
  H        1.9052260    -2.4764620     0.0069120
  H       -3.4562640     0.6719480    -0.0131020
  H       -2.7349570    -0.7043590     0.8727740
  H       -2.7131850    -0.6822330    -0.9168940
units angstrom
no_reorient  #important for SAPT in psi4, default
symmetry c1  #important for SAPT in psi4, default
}

set PROPERTIES_ORIGIN ["COM"]
properties('MP2/aug-cc-pvtz', properties = ['dipole'])
--------------------------------------------------------------------------

    Molecular point group: c1
  Charge       = 0
  Multiplicity = 1
  Basis Set: AUG-CC-PVTZ
    Blend: AUG-CC-PVTZ
  Basis Set: (AUG-CC-PVTZ AUX)
    Blend: AUG-CC-PVTZ-JKFIT

    Orbital Energies [Eh]
    ---------------------

    Doubly Occupied:

       1A    -20.608476     2A    -15.630742     3A    -15.571539
       4A    -11.336040     5A    -11.298221     6A    -11.265361
       7A    -11.252350     8A    -11.215328     9A     -1.436930
      10A     -1.359771    11A     -1.116842    12A     -1.047905
      13A     -0.963546    14A     -0.936939    15A     -0.806634
      16A     -0.770351    17A     -0.726888    18A     -0.682771
      19A     -0.644853    20A     -0.634448    21A     -0.620180
      22A     -0.592963    23A     -0.579985    24A     -0.547344
      25A     -0.546092    26A     -0.520302    27A     -0.500926
      28A     -0.447826    29A     -0.350609    30A     -0.319339

  @DF-RHF Final Energy:  -377.84429711572358

   => Energetics <=

    Nuclear Repulsion Energy =            377.6297293511711359
    One-Electron Energy =               -1262.2850490306975644
    Two-Electron Energy =                 506.8110225638028510
    Total Energy =                       -377.8442971157235775
  Basis Set: (AUG-CC-PVTZ AUX)
    Blend: AUG-CC-PVTZ-RI
    Molecular point group: c1

    Geometry (in Angstrom), charge = 0, multiplicity = 1:

       Center              X                  Y                   Z               Mass
    ------------   -----------------  -----------------  -----------------  -----------------
         O           -1.476095041505     0.691481845662     0.011654784432    15.994914619570
         N            0.845278958495     0.519056845662    -0.032226215568    14.003074004430
         N            1.870744958495    -0.369449154338    -0.018290215568    14.003074004430
         C           -0.353314141505    -0.074570354338     0.004116184432    12.000000000000
         C           -0.141983041505    -1.463002154338     0.022318784432    12.000000000000
         C            1.105344958495     1.943356845662     0.017925784432    12.000000000000
         C            1.261544958495    -1.568515154338     0.007430784432    12.000000000000
         C           -2.695128041505    -0.056824154338    -0.013088215568    12.000000000000
         H           -0.871777041505    -2.258771154338     0.035234784432     1.007825032230
         H            1.156490958495     2.293681845662     1.052178784432     1.007825032230
         H            2.059867958495     2.116714845662    -0.477375215568     1.007825032230
         H            0.304539958495     2.466628845662    -0.505298215568     1.007825032230
         H            1.866491958495    -2.466246154338     0.007326784432     1.007825032230
         H           -3.494998041505     0.682163845662    -0.012687215568     1.007825032230
         H           -2.773691041505    -0.694143154338     0.873188784432     1.007825032230
         H           -2.751919041505    -0.672017154338    -0.916479215568     1.007825032230

  Basis Set: AUG-CC-PVTZ
    Blend: AUG-CC-PVTZ
  Basis Set: (AUG-CC-PVTZ AUX)
    Blend: AUG-CC-PVTZ-JKFIT
	 Reference Energy          =    -377.8442971157235775 [Eh]
	 Singles Energy            =      -0.0000000000000000 [Eh]
	 Same-Spin Energy          =      -0.3962022814774026 [Eh]
	 Opposite-Spin Energy      =      -1.2389929339506864 [Eh]
	 Correlation Energy        =      -1.6351952154280891 [Eh]
	 Total Energy              =    -379.4794923311516754 [Eh]

	 ================> DF-SCS-MP2 Energies <==================
	-----------------------------------------------------------
	 SCS Same-Spin Scale       =       0.3333333333333333 [-]
	 SCS Opposite-Spin Scale   =       1.2000000000000000 [-]
	 SCS Same-Spin Energy      =      -0.1320674271591342 [Eh]
	 SCS Opposite-Spin Energy  =      -1.4867915207408238 [Eh]
	 SCS Correlation Energy    =      -1.6188589478999580 [Eh]
	 SCS Total Energy          =    -379.4631560636235577 [Eh]
	-----------------------------------------------------------

  Dipole Moment: [D]
     X:    -2.9733      Y:     0.7064      Z:     0.0018     Total:     3.0561

*** Psi4 exiting successfully. Buy a developer a beer!
