                               Psi4 1.4a3.dev225

  ==> Input File <==

--------------------------------------------------------------------------
#psi4
#
memory 32 gb

molecule  {
0 1
  O       -1.4373610     0.6812660     0.0112400
  N        0.8840130     0.5088410    -0.0326410
  N        1.8716923    -0.3469251    -0.0192185
  C       -0.3281200    -0.1042590     0.0031940
  C       -0.1032490    -1.4732180     0.0219040
  C        1.1440790     1.9331410     0.0175110
  C        1.3002790    -1.5787310     0.0070160
  C       -2.6563940    -0.0670400    -0.0135030
  H       -0.8330430    -2.2689870     0.0348200
  H        1.1952250     2.2834660     1.0517640
  H        2.0986020     2.1064990    -0.4777900
  H        0.3432740     2.4564130    -0.5057130
  H        1.9052260    -2.4764620     0.0069120
  H       -3.4562640     0.6719480    -0.0131020
  H       -2.7349570    -0.7043590     0.8727740
  H       -2.7131850    -0.6822330    -0.9168940
units angstrom
no_reorient  #important for SAPT in psi4, default
symmetry c1  #important for SAPT in psi4, default
}

set PROPERTIES_ORIGIN ["COM"]
properties('MP2/aug-cc-pvtz', properties = ['dipole'])
--------------------------------------------------------------------------

    Molecular point group: c1
  Charge       = 0
  Multiplicity = 1
  Basis Set: AUG-CC-PVTZ
    Blend: AUG-CC-PVTZ
  Basis Set: (AUG-CC-PVTZ AUX)
    Blend: AUG-CC-PVTZ-JKFIT

    Orbital Energies [Eh]
    ---------------------

    Doubly Occupied:

       1A    -20.606045     2A    -15.633073     3A    -15.571049
       4A    -11.329887     5A    -11.296639     6A    -11.265733
       7A    -11.249473     8A    -11.216516     9A     -1.436701
      10A     -1.373918    11A     -1.111139    12A     -1.051775
      13A     -0.963747    14A     -0.935798    15A     -0.811276
      16A     -0.768672    17A     -0.728614    18A     -0.682925
      19A     -0.643412    20A     -0.637032    21A     -0.621925
      22A     -0.594645    23A     -0.580277    24A     -0.549805
      25A     -0.547852    26A     -0.522420    27A     -0.501317
      28A     -0.442667    29A     -0.351407    30A     -0.314040

  @DF-RHF Final Energy:  -377.84233787723582

   => Energetics <=

    Nuclear Repulsion Energy =            378.6819808966527603
    One-Electron Energy =               -1264.3690767866389706
    Two-Electron Energy =                 507.8447580127504466
    Total Energy =                       -377.8423378772358205
  Basis Set: (AUG-CC-PVTZ AUX)
    Blend: AUG-CC-PVTZ-RI
    Molecular point group: c1

    Geometry (in Angstrom), charge = 0, multiplicity = 1:

       Center              X                  Y                   Z               Mass
    ------------   -----------------  -----------------  -----------------  -----------------
         O           -1.469923471357     0.689475971173     0.011773282954    15.994914619570
         N            0.851450528643     0.517050971173    -0.032107717046    14.003074004430
         N            1.839129828643    -0.338715128827    -0.018685217046    14.003074004430
         C           -0.360682471357    -0.096049028827     0.003727282954    12.000000000000
         C           -0.135811471357    -1.465008028827     0.022437282954    12.000000000000
         C            1.111516528643     1.941350971173     0.018044282954    12.000000000000
         C            1.267716528643    -1.570521028827     0.007549282954    12.000000000000
         C           -2.688956471357    -0.058830028827    -0.012969717046    12.000000000000
         H           -0.865605471357    -2.260777028827     0.035353282954     1.007825032230
         H            1.162662528643     2.291675971173     1.052297282954     1.007825032230
         H            2.066039528643     2.114708971173    -0.477256717046     1.007825032230
         H            0.310711528643     2.464622971173    -0.505179717046     1.007825032230
         H            1.872663528643    -2.468252028827     0.007445282954     1.007825032230
         H           -3.488826471357     0.680157971173    -0.012568717046     1.007825032230
         H           -2.767519471357    -0.696149028827     0.873307282954     1.007825032230
         H           -2.745747471357    -0.674023028827    -0.916360717046     1.007825032230

  Basis Set: AUG-CC-PVTZ
    Blend: AUG-CC-PVTZ
  Basis Set: (AUG-CC-PVTZ AUX)
    Blend: AUG-CC-PVTZ-JKFIT
	 Reference Energy          =    -377.8423378772358205 [Eh]
	 Singles Energy            =      -0.0000000000000000 [Eh]
	 Same-Spin Energy          =      -0.3970292993885899 [Eh]
	 Opposite-Spin Energy      =      -1.2393977342852982 [Eh]
	 Correlation Energy        =      -1.6364270336738880 [Eh]
	 Total Energy              =    -379.4787649109097174 [Eh]

	 ================> DF-SCS-MP2 Energies <==================
	-----------------------------------------------------------
	 SCS Same-Spin Scale       =       0.3333333333333333 [-]
	 SCS Opposite-Spin Scale   =       1.2000000000000000 [-]
	 SCS Same-Spin Energy      =      -0.1323430997961966 [Eh]
	 SCS Opposite-Spin Energy  =      -1.4872772811423578 [Eh]
	 SCS Correlation Energy    =      -1.6196203809385543 [Eh]
	 SCS Total Energy          =    -379.4619582581743771 [Eh]
	-----------------------------------------------------------

  Dipole Moment: [D]
     X:    -2.9250      Y:     0.6761      Z:     0.0014     Total:     3.0021

*** Psi4 exiting successfully. Buy a developer a beer!
