                               Psi4 1.3.2 release

  ==> Input File <==

--------------------------------------------------------------------------
#psi4
#
memory 32 gb

molecule  {
0 1
  O       -1.4373610     0.6812660     0.0112400
  N        0.8840130     0.5088410    -0.0326410
  N        1.9094790    -0.3796650    -0.0187050
  C       -0.3281200    -0.1042590     0.0031940
  C       -0.0708336    -1.6705552     0.0246011
  C        1.1440790     1.9331410     0.0175110
  C        1.3002790    -1.5787310     0.0070160
  C       -2.6563940    -0.0670400    -0.0135030
  H       -0.8330430    -2.2689870     0.0348200
  H        1.1952250     2.2834660     1.0517640
  H        2.0986020     2.1064990    -0.4777900
  H        0.3432740     2.4564130    -0.5057130
  H        1.9052260    -2.4764620     0.0069120
  H       -3.4562640     0.6719480    -0.0131020
  H       -2.7349570    -0.7043590     0.8727740
  H       -2.7131850    -0.6822330    -0.9168940
units angstrom
no_reorient  #important for SAPT in psi4, default
symmetry c1  #important for SAPT in psi4, default
}

set PROPERTIES_ORIGIN ["COM"]
properties('MP2/aug-cc-pvtz', properties = ['dipole'])
--------------------------------------------------------------------------

    Molecular point group: c1
  Charge       = 0
  Multiplicity = 1
  Basis Set: AUG-CC-PVTZ
    Blend: AUG-CC-PVTZ
  Basis Set: (AUG-CC-PVTZ AUX)
    Blend: AUG-CC-PVTZ-JKFIT

    Orbital Energies [Eh]
    ---------------------

    Doubly Occupied:

       1A    -20.615700     2A    -15.641079     3A    -15.562250
       4A    -11.355622     5A    -11.301409     6A    -11.268671
       7A    -11.253790     8A    -11.225350     9A     -1.440160
      10A     -1.353956    11A     -1.116191    12A     -1.031026
      13A     -0.969847    14A     -0.939717    15A     -0.808645
      16A     -0.773353    17A     -0.723481    18A     -0.682331
      19A     -0.672667    20A     -0.635787    21A     -0.634711
      22A     -0.585291    23A     -0.580403    24A     -0.547403
      25A     -0.543381    26A     -0.504325    27A     -0.495974
      28A     -0.447098    29A     -0.360297    30A     -0.301302

  @DF-RHF Final Energy:  -377.79823150222643

   => Energetics <=

    Nuclear Repulsion Energy =            374.1137042666571801
    One-Electron Energy =               -1255.0814343416107022
    Two-Electron Energy =                 503.1694985727271501
    Total Energy =                       -377.7982315022264288
  Basis Set: (AUG-CC-PVTZ AUX)
    Blend: AUG-CC-PVTZ-RI
    Molecular point group: c1

    Geometry (in Angstrom), charge = 0, multiplicity = 1:

       Center              X                  Y                   Z               Mass
    ------------   -----------------  -----------------  -----------------  -----------------
         O           -1.478116267602     0.714698291859     0.011420306999    15.994914619570
         N            0.843257732398     0.542273291859    -0.032460693001    14.003074004430
         N            1.868723732398    -0.346232708141    -0.018524693001    14.003074004430
         C           -0.368875267602    -0.070826708141     0.003374306999    12.000000000000
         C           -0.111588867602    -1.637122908141     0.024781406999    12.000000000000
         C            1.103323732398     1.966573291859     0.017691306999    12.000000000000
         C            1.259523732398    -1.545298708141     0.007196306999    12.000000000000
         C           -2.697149267602    -0.033607708141    -0.013322693001    12.000000000000
         H           -0.873798267602    -2.235554708141     0.035000306999     1.007825032230
         H            1.154469732398     2.316898291859     1.051944306999     1.007825032230
         H            2.057846732398     2.139931291859    -0.477609693001     1.007825032230
         H            0.302518732398     2.489845291859    -0.505532693001     1.007825032230
         H            1.864470732398    -2.443029708141     0.007092306999     1.007825032230
         H           -3.497019267602     0.705380291859    -0.012921693001     1.007825032230
         H           -2.775712267602    -0.670926708141     0.872954306999     1.007825032230
         H           -2.753940267602    -0.648800708141    -0.916713693001     1.007825032230

  Basis Set: AUG-CC-PVTZ
    Blend: AUG-CC-PVTZ
  Basis Set: (AUG-CC-PVTZ AUX)
    Blend: AUG-CC-PVTZ-JKFIT
	 Reference Energy          =    -377.7982315022264288 [Eh]
	 Singles Energy            =      -0.0000000000000000 [Eh]
	 Same-Spin Energy          =      -0.3975664554683608 [Eh]
	 Opposite-Spin Energy      =      -1.2430564463931901 [Eh]
	 Correlation Energy        =      -1.6406229018615510 [Eh]
	 Total Energy              =    -379.4388544040879765 [Eh]

	 ================> DF-SCS-MP2 Energies <==================
	-----------------------------------------------------------
	 SCS Same-Spin Scale       =       0.3333333333333333 [-]
	 SCS Opposite-Spin Scale   =       1.2000000000000000 [-]
	 SCS Same-Spin Energy      =      -0.1325221518227869 [Eh]
	 SCS Opposite-Spin Energy  =      -1.4916677356718282 [Eh]
	 SCS Correlation Energy    =      -1.6241898874946150 [Eh]
	 SCS Total Energy          =    -379.4224213897210234 [Eh]
	-----------------------------------------------------------

  Dipole Moment: [D]
     X:    -3.1035      Y:     0.9652      Z:     0.0089     Total:     3.2501

*** Psi4 exiting successfully. Buy a developer a beer!
