                               Psi4 1.3.2 release

  ==> Input File <==

--------------------------------------------------------------------------
#psi4
#
memory 32 gb

molecule  {
0 1
  O       -1.4373610     0.6812660     0.0112400
  N        0.8840130     0.5088410    -0.0326410
  N        1.8450078    -0.4489783    -0.0156448
  C       -0.3281200    -0.1042590     0.0031940
  C       -0.1032490    -1.4732180     0.0219040
  C        1.1440790     1.9331410     0.0175110
  C        1.3002790    -1.5787310     0.0070160
  C       -2.6563940    -0.0670400    -0.0135030
  H       -0.8330430    -2.2689870     0.0348200
  H        1.1952250     2.2834660     1.0517640
  H        2.0986020     2.1064990    -0.4777900
  H        0.3432740     2.4564130    -0.5057130
  H        1.9052260    -2.4764620     0.0069120
  H       -3.4562640     0.6719480    -0.0131020
  H       -2.7349570    -0.7043590     0.8727740
  H       -2.7131850    -0.6822330    -0.9168940
units angstrom
no_reorient  #important for SAPT in psi4, default
symmetry c1  #important for SAPT in psi4, default
}

set PROPERTIES_ORIGIN ["COM"]
properties('MP2/aug-cc-pvtz', properties = ['dipole'])
--------------------------------------------------------------------------

    Molecular point group: c1
  Charge       = 0
  Multiplicity = 1
  Basis Set: AUG-CC-PVTZ
    Blend: AUG-CC-PVTZ
  Basis Set: (AUG-CC-PVTZ AUX)
    Blend: AUG-CC-PVTZ-JKFIT

    Orbital Energies [Eh]
    ---------------------

    Doubly Occupied:

       1A    -20.607286     2A    -15.624321     3A    -15.562422
       4A    -11.332769     5A    -11.295836     6A    -11.266952
       7A    -11.239760     8A    -11.207974     9A     -1.435818
      10A     -1.366300    11A     -1.136155    12A     -1.042543
      13A     -0.962237    14A     -0.939643    15A     -0.803988
      16A     -0.771651    17A     -0.727448    18A     -0.681251
      19A     -0.642550    20A     -0.634305    21A     -0.625236
      22A     -0.594712    23A     -0.584542    24A     -0.551455
      25A     -0.549832    26A     -0.522703    27A     -0.503481
      28A     -0.431626    29A     -0.355272    30A     -0.323253

  @DF-RHF Final Energy:  -377.84304186095136

   => Energetics <=

    Nuclear Repulsion Energy =            379.3596155156499776
    One-Electron Energy =               -1265.7586735632185082
    Two-Electron Energy =                 508.5560161866172280
    Total Energy =                       -377.8430418609513595
  Basis Set: (AUG-CC-PVTZ AUX)
    Blend: AUG-CC-PVTZ-RI
    Molecular point group: c1

    Geometry (in Angstrom), charge = 0, multiplicity = 1:

       Center              X                  Y                   Z               Mass
    ------------   -----------------  -----------------  -----------------  -----------------
         O           -1.466589071797     0.702228173583     0.011326726200    15.994914619570
         N            0.854784928203     0.529803173583    -0.032554273800    14.003074004430
         N            1.815779728203    -0.428016126417    -0.015558073800    14.003074004430
         C           -0.357348071797    -0.083296826417     0.003280726200    12.000000000000
         C           -0.132477071797    -1.452255826417     0.021990726200    12.000000000000
         C            1.114850928203     1.954103173583     0.017597726200    12.000000000000
         C            1.271050928203    -1.557768826417     0.007102726200    12.000000000000
         C           -2.685622071797    -0.046077826417    -0.013416273800    12.000000000000
         H           -0.862271071797    -2.248024826417     0.034906726200     1.007825032230
         H            1.165996928203     2.304428173583     1.051850726200     1.007825032230
         H            2.069373928203     2.127461173583    -0.477703273800     1.007825032230
         H            0.314045928203     2.477375173583    -0.505626273800     1.007825032230
         H            1.875997928203    -2.455499826417     0.006998726200     1.007825032230
         H           -3.485492071797     0.692910173583    -0.013015273800     1.007825032230
         H           -2.764185071797    -0.683396826417     0.872860726200     1.007825032230
         H           -2.742413071797    -0.661270826417    -0.916807273800     1.007825032230

  Basis Set: AUG-CC-PVTZ
    Blend: AUG-CC-PVTZ
  Basis Set: (AUG-CC-PVTZ AUX)
    Blend: AUG-CC-PVTZ-JKFIT
	 Reference Energy          =    -377.8430418609513595 [Eh]
	 Singles Energy            =      -0.0000000000000000 [Eh]
	 Same-Spin Energy          =      -0.3940334757396851 [Eh]
	 Opposite-Spin Energy      =      -1.2346348182973206 [Eh]
	 Correlation Energy        =      -1.6286682940370056 [Eh]
	 Total Energy              =    -379.4717101549883864 [Eh]

	 ================> DF-SCS-MP2 Energies <==================
	-----------------------------------------------------------
	 SCS Same-Spin Scale       =       0.3333333333333333 [-]
	 SCS Opposite-Spin Scale   =       1.2000000000000000 [-]
	 SCS Same-Spin Energy      =      -0.1313444919132284 [Eh]
	 SCS Opposite-Spin Energy  =      -1.4815617819567846 [Eh]
	 SCS Correlation Energy    =      -1.6129062738700128 [Eh]
	 SCS Total Energy          =    -379.4559481348213694 [Eh]
	-----------------------------------------------------------

  Dipole Moment: [D]
     X:    -2.7592      Y:     0.7212      Z:    -0.0022     Total:     2.8519

*** Psi4 exiting successfully. Buy a developer a beer!
