                               Psi4 1.3.2 release

  ==> Input File <==

--------------------------------------------------------------------------
#psi4
#
memory 32 gb

molecule  {
0 1
  O       -1.4373610     0.6812660     0.0112400
  N        0.9825149     0.6111376    -0.0349968
  N        1.9094790    -0.3796650    -0.0187050
  C       -0.3281200    -0.1042590     0.0031940
  C       -0.1032490    -1.4732180     0.0219040
  C        1.1440790     1.9331410     0.0175110
  C        1.3002790    -1.5787310     0.0070160
  C       -2.6563940    -0.0670400    -0.0135030
  H       -0.8330430    -2.2689870     0.0348200
  H        1.1952250     2.2834660     1.0517640
  H        2.0986020     2.1064990    -0.4777900
  H        0.3432740     2.4564130    -0.5057130
  H        1.9052260    -2.4764620     0.0069120
  H       -3.4562640     0.6719480    -0.0131020
  H       -2.7349570    -0.7043590     0.8727740
  H       -2.7131850    -0.6822330    -0.9168940
units angstrom
no_reorient  #important for SAPT in psi4, default
symmetry c1  #important for SAPT in psi4, default
}

set PROPERTIES_ORIGIN ["COM"]
properties('MP2/aug-cc-pvtz', properties = ['dipole'])
--------------------------------------------------------------------------

    Molecular point group: c1
  Charge       = 0
  Multiplicity = 1
  Basis Set: AUG-CC-PVTZ
    Blend: AUG-CC-PVTZ
  Basis Set: (AUG-CC-PVTZ AUX)
    Blend: AUG-CC-PVTZ-JKFIT

    Orbital Energies [Eh]
    ---------------------

    Doubly Occupied:

       1A    -20.610809     2A    -15.626443     3A    -15.580697
       4A    -11.346147     5A    -11.299018     6A    -11.255721
       7A    -11.252683     8A    -11.226192     9A     -1.433277
      10A     -1.347532    11A     -1.139673    12A     -1.038137
      13A     -0.970625    14A     -0.924455    15A     -0.792014
      16A     -0.775782    17A     -0.726543    18A     -0.679737
      19A     -0.654673    20A     -0.641049    21A     -0.631419
      22A     -0.603299    23A     -0.588228    24A     -0.537003
      25A     -0.534287    26A     -0.524812    27A     -0.499739
      28A     -0.431218    29A     -0.353688    30A     -0.309484

  @DF-RHF Final Energy:  -377.80894212459685

   => Energetics <=

    Nuclear Repulsion Energy =            375.8165839177241878
    One-Electron Energy =               -1258.5822836024528897
    Two-Electron Energy =                 504.9567575601318481
    Total Energy =                       -377.8089421245968538
  Basis Set: (AUG-CC-PVTZ AUX)
    Blend: AUG-CC-PVTZ-RI
    Molecular point group: c1

    Geometry (in Angstrom), charge = 0, multiplicity = 1:

       Center              X                  Y                   Z               Mass
    ------------   -----------------  -----------------  -----------------  -----------------
         O           -1.486953606752     0.680784415029     0.012003490165    15.994914619570
         N            0.932922293248     0.610656015029    -0.034233309835    14.003074004430
         N            1.859886393248    -0.380146584971    -0.017941509835    14.003074004430
         C           -0.377712606752    -0.104740584971     0.003957490165    12.000000000000
         C           -0.152841606752    -1.473699584971     0.022667490165    12.000000000000
         C            1.094486393248     1.932659415029     0.018274490165    12.000000000000
         C            1.250686393248    -1.579212584971     0.007779490165    12.000000000000
         C           -2.705986606752    -0.067521584971    -0.012739509835    12.000000000000
         H           -0.882635606752    -2.269468584971     0.035583490165     1.007825032230
         H            1.145632393248     2.282984415029     1.052527490165     1.007825032230
         H            2.049009393248     2.106017415029    -0.477026509835     1.007825032230
         H            0.293681393248     2.455931415029    -0.504949509835     1.007825032230
         H            1.855633393248    -2.476943584971     0.007675490165     1.007825032230
         H           -3.505856606752     0.671466415029    -0.012338509835     1.007825032230
         H           -2.784549606752    -0.704840584971     0.873537490165     1.007825032230
         H           -2.762777606752    -0.682714584971    -0.916130509835     1.007825032230

  Basis Set: AUG-CC-PVTZ
    Blend: AUG-CC-PVTZ
  Basis Set: (AUG-CC-PVTZ AUX)
    Blend: AUG-CC-PVTZ-JKFIT
	 Reference Energy          =    -377.8089421245968538 [Eh]
	 Singles Energy            =      -0.0000000000000000 [Eh]
	 Same-Spin Energy          =      -0.3987640665548643 [Eh]
	 Opposite-Spin Energy      =      -1.2442609341022168 [Eh]
	 Correlation Energy        =      -1.6430250006570812 [Eh]
	 Total Energy              =    -379.4519671252539297 [Eh]

	 ================> DF-SCS-MP2 Energies <==================
	-----------------------------------------------------------
	 SCS Same-Spin Scale       =       0.3333333333333333 [-]
	 SCS Opposite-Spin Scale   =       1.2000000000000000 [-]
	 SCS Same-Spin Energy      =      -0.1329213555182881 [Eh]
	 SCS Opposite-Spin Energy  =      -1.4931131209226602 [Eh]
	 SCS Correlation Energy    =      -1.6260344764409482 [Eh]
	 SCS Total Energy          =    -379.4349766010378175 [Eh]
	-----------------------------------------------------------

  Dipole Moment: [D]
     X:    -3.1692      Y:     0.3465      Z:    -0.0143     Total:     3.1882

*** Psi4 exiting successfully. Buy a developer a beer!
