                               Psi4 1.3.2 release

  ==> Input File <==

--------------------------------------------------------------------------
#psi4
#
memory 32 gb

molecule  {
0 1
  O       -1.4640843     0.6420843     0.0125017
  N        0.8840130     0.5088410    -0.0326410
  N        1.9094790    -0.3796650    -0.0187050
  C       -0.3281200    -0.1042590     0.0031940
  C       -0.1032490    -1.4732180     0.0219040
  C        1.1440790     1.9331410     0.0175110
  C        1.3002790    -1.5787310     0.0070160
  C       -2.6563940    -0.0670400    -0.0135030
  H       -0.8330430    -2.2689870     0.0348200
  H        1.1952250     2.2834660     1.0517640
  H        2.0986020     2.1064990    -0.4777900
  H        0.3432740     2.4564130    -0.5057130
  H        1.9052260    -2.4764620     0.0069120
  H       -3.4562640     0.6719480    -0.0131020
  H       -2.7349570    -0.7043590     0.8727740
  H       -2.7131850    -0.6822330    -0.9168940
units angstrom
no_reorient  #important for SAPT in psi4, default
symmetry c1  #important for SAPT in psi4, default
}

set PROPERTIES_ORIGIN ["COM"]
properties('MP2/aug-cc-pvtz', properties = ['dipole'])
--------------------------------------------------------------------------

    Molecular point group: c1
  Charge       = 0
  Multiplicity = 1
  Basis Set: AUG-CC-PVTZ
    Blend: AUG-CC-PVTZ
  Basis Set: (AUG-CC-PVTZ AUX)
    Blend: AUG-CC-PVTZ-JKFIT

    Orbital Energies [Eh]
    ---------------------

    Doubly Occupied:

       1A    -20.607320     2A    -15.631102     3A    -15.575040
       4A    -11.337363     5A    -11.293347     6A    -11.265614
       7A    -11.252938     8A    -11.215527     9A     -1.445768
      10A     -1.359967    11A     -1.115716    12A     -1.053386
      13A     -0.964439    14A     -0.934573    15A     -0.806325
      16A     -0.774419    17A     -0.728976    18A     -0.687239
      19A     -0.652349    20A     -0.635922    21A     -0.623017
      22A     -0.595637    23A     -0.579032    24A     -0.546631
      25A     -0.545558    26A     -0.516683    27A     -0.496132
      28A     -0.449904    29A     -0.350597    30A     -0.321821

  @DF-RHF Final Energy:  -377.84432597071157

   => Energetics <=

    Nuclear Repulsion Energy =            377.9088590076751188
    One-Electron Energy =               -1262.7816863102634670
    Two-Electron Energy =                 507.0285013318767824
    Total Energy =                       -377.8443259707115658
  Basis Set: (AUG-CC-PVTZ AUX)
    Blend: AUG-CC-PVTZ-RI
    Molecular point group: c1

    Geometry (in Angstrom), charge = 0, multiplicity = 1:

       Center              X                  Y                   Z               Mass
    ------------   -----------------  -----------------  -----------------  -----------------
         O           -1.497554229244     0.659977759654     0.012790734627    15.994914619570
         N            0.850543070756     0.526734459654    -0.032351965373    14.003074004430
         N            1.876009070756    -0.361771540346    -0.018415965373    14.003074004430
         C           -0.361589929244    -0.086365540346     0.003483034627    12.000000000000
         C           -0.136718929244    -1.455324540346     0.022193034627    12.000000000000
         C            1.110609070756     1.951034459654     0.017800034627    12.000000000000
         C            1.266809070756    -1.560837540346     0.007305034627    12.000000000000
         C           -2.689863929244    -0.049146540346    -0.013213965373    12.000000000000
         H           -0.866512929244    -2.251093540346     0.035109034627     1.007825032230
         H            1.161755070756     2.301359459654     1.052053034627     1.007825032230
         H            2.065132070756     2.124392459654    -0.477500965373     1.007825032230
         H            0.309804070756     2.474306459654    -0.505423965373     1.007825032230
         H            1.871756070756    -2.458568540346     0.007201034627     1.007825032230
         H           -3.489733929244     0.689841459654    -0.012812965373     1.007825032230
         H           -2.768426929244    -0.686465540346     0.873063034627     1.007825032230
         H           -2.746654929244    -0.664339540346    -0.916604965373     1.007825032230

  Basis Set: AUG-CC-PVTZ
    Blend: AUG-CC-PVTZ
  Basis Set: (AUG-CC-PVTZ AUX)
    Blend: AUG-CC-PVTZ-JKFIT
	 Reference Energy          =    -377.8443259707115658 [Eh]
	 Singles Energy            =      -0.0000000000000000 [Eh]
	 Same-Spin Energy          =      -0.3961546948274304 [Eh]
	 Opposite-Spin Energy      =      -1.2383963452266760 [Eh]
	 Correlation Energy        =      -1.6345510400541063 [Eh]
	 Total Energy              =    -379.4788770107657001 [Eh]

	 ================> DF-SCS-MP2 Energies <==================
	-----------------------------------------------------------
	 SCS Same-Spin Scale       =       0.3333333333333333 [-]
	 SCS Opposite-Spin Scale   =       1.2000000000000000 [-]
	 SCS Same-Spin Energy      =      -0.1320515649424768 [Eh]
	 SCS Opposite-Spin Energy  =      -1.4860756142720111 [Eh]
	 SCS Correlation Energy    =      -1.6181271792144878 [Eh]
	 SCS Total Energy          =    -379.4624531499260343 [Eh]
	-----------------------------------------------------------

  Dipole Moment: [D]
     X:    -2.8370      Y:     0.7312      Z:     0.0028     Total:     2.9297

*** Psi4 exiting successfully. Buy a developer a beer!
