                               Psi4 1.3.2 release

  ==> Input File <==

--------------------------------------------------------------------------
#psi4
#
memory 32 gb

molecule  {
0 1
  O       -1.4894272     0.6019901     0.0135707
  N        0.8840130     0.5088410    -0.0326410
  N        1.9094790    -0.3796650    -0.0187050
  C       -0.3281200    -0.1042590     0.0031940
  C       -0.1032490    -1.4732180     0.0219040
  C        1.1440790     1.9331410     0.0175110
  C        1.3002790    -1.5787310     0.0070160
  C       -2.6563940    -0.0670400    -0.0135030
  H       -0.8330430    -2.2689870     0.0348200
  H        1.1952250     2.2834660     1.0517640
  H        2.0986020     2.1064990    -0.4777900
  H        0.3432740     2.4564130    -0.5057130
  H        1.9052260    -2.4764620     0.0069120
  H       -3.4562640     0.6719480    -0.0131020
  H       -2.7349570    -0.7043590     0.8727740
  H       -2.7131850    -0.6822330    -0.9168940
units angstrom
no_reorient  #important for SAPT in psi4, default
symmetry c1  #important for SAPT in psi4, default
}

set PROPERTIES_ORIGIN ["COM"]
properties('MP2/aug-cc-pvtz', properties = ['dipole'])
--------------------------------------------------------------------------

    Molecular point group: c1
  Charge       = 0
  Multiplicity = 1
  Basis Set: AUG-CC-PVTZ
    Blend: AUG-CC-PVTZ
  Basis Set: (AUG-CC-PVTZ AUX)
    Blend: AUG-CC-PVTZ-JKFIT

    Orbital Energies [Eh]
    ---------------------

    Doubly Occupied:

       1A    -20.605120     2A    -15.633784     3A    -15.576399
       4A    -11.339487     5A    -11.288872     6A    -11.267111
       7A    -11.253749     8A    -11.215433     9A     -1.456206
      10A     -1.363340    11A     -1.117409    12A     -1.057650
      13A     -0.964813    14A     -0.935477    15A     -0.808255
      16A     -0.777454    17A     -0.731471    18A     -0.693397
      19A     -0.660791    20A     -0.638906    21A     -0.624836
      22A     -0.597145    23A     -0.580555    24A     -0.547831
      25A     -0.545945    26A     -0.508499    27A     -0.490456
      28A     -0.451515    29A     -0.351576    30A     -0.322762

  @DF-RHF Final Energy:  -377.84095032430196

   => Energetics <=

    Nuclear Repulsion Energy =            378.3725751381347777
    One-Electron Energy =               -1263.6145605983149380
    Two-Electron Energy =                 507.4010351358781463
    Total Energy =                       -377.8409503243019572
  Basis Set: (AUG-CC-PVTZ AUX)
    Blend: AUG-CC-PVTZ-RI
    Molecular point group: c1

    Geometry (in Angstrom), charge = 0, multiplicity = 1:

       Center              X                  Y                   Z               Mass
    ------------   -----------------  -----------------  -----------------  -----------------
         O           -1.519279921745     0.625606229155     0.013707155608    15.994914619570
         N            0.854160278255     0.532457129155    -0.032504544392    14.003074004430
         N            1.879626278255    -0.356048870845    -0.018568544392    14.003074004430
         C           -0.357972721745    -0.080642870845     0.003330455608    12.000000000000
         C           -0.133101721745    -1.449601870845     0.022040455608    12.000000000000
         C            1.114226278255     1.956757129155     0.017647455608    12.000000000000
         C            1.270426278255    -1.555114870845     0.007152455608    12.000000000000
         C           -2.686246721745    -0.043423870845    -0.013366544392    12.000000000000
         H           -0.862895721745    -2.245370870845     0.034956455608     1.007825032230
         H            1.165372278255     2.307082129155     1.051900455608     1.007825032230
         H            2.068749278255     2.130115129155    -0.477653544392     1.007825032230
         H            0.313421278255     2.480029129155    -0.505576544392     1.007825032230
         H            1.875373278255    -2.452845870845     0.007048455608     1.007825032230
         H           -3.486116721745     0.695564129155    -0.012965544392     1.007825032230
         H           -2.764809721745    -0.680742870845     0.872910455608     1.007825032230
         H           -2.743037721745    -0.658616870845    -0.916757544392     1.007825032230

  Basis Set: AUG-CC-PVTZ
    Blend: AUG-CC-PVTZ
  Basis Set: (AUG-CC-PVTZ AUX)
    Blend: AUG-CC-PVTZ-JKFIT
	 Reference Energy          =    -377.8409503243019572 [Eh]
	 Singles Energy            =      -0.0000000000000000 [Eh]
	 Same-Spin Energy          =      -0.3960012633623337 [Eh]
	 Opposite-Spin Energy      =      -1.2374233692712890 [Eh]
	 Correlation Energy        =      -1.6334246326336226 [Eh]
	 Total Energy              =    -379.4743749569356055 [Eh]

	 ================> DF-SCS-MP2 Energies <==================
	-----------------------------------------------------------
	 SCS Same-Spin Scale       =       0.3333333333333333 [-]
	 SCS Opposite-Spin Scale   =       1.2000000000000000 [-]
	 SCS Same-Spin Energy      =      -0.1320004211207779 [Eh]
	 SCS Opposite-Spin Energy  =      -1.4849080431255468 [Eh]
	 SCS Correlation Energy    =      -1.6169084642463247 [Eh]
	 SCS Total Energy          =    -379.4578587885482648 [Eh]
	-----------------------------------------------------------

  Dipole Moment: [D]
     X:    -2.6641      Y:     0.8228      Z:     0.0028     Total:     2.7883

*** Psi4 exiting successfully. Buy a developer a beer!
