                               Psi4 1.3.2 release

  ==> Input File <==

--------------------------------------------------------------------------
#psi4
#
memory 32 gb

molecule  {
0 1
  O       -1.4373610     0.6812660     0.0112400
  N        0.8840130     0.5088410    -0.0326410
  N        1.9094790    -0.3796650    -0.0187050
  C       -0.3172884    -0.1253030     0.0016871
  C       -0.1032490    -1.4732180     0.0219040
  C        1.1440790     1.9331410     0.0175110
  C        1.3002790    -1.5787310     0.0070160
  C       -2.6563940    -0.0670400    -0.0135030
  H       -0.8330430    -2.2689870     0.0348200
  H        1.1952250     2.2834660     1.0517640
  H        2.0986020     2.1064990    -0.4777900
  H        0.3432740     2.4564130    -0.5057130
  H        1.9052260    -2.4764620     0.0069120
  H       -3.4562640     0.6719480    -0.0131020
  H       -2.7349570    -0.7043590     0.8727740
  H       -2.7131850    -0.6822330    -0.9168940
units angstrom
no_reorient  #important for SAPT in psi4, default
symmetry c1  #important for SAPT in psi4, default
}

set PROPERTIES_ORIGIN ["COM"]
properties('MP2/aug-cc-pvtz', properties = ['dipole'])
--------------------------------------------------------------------------

    Molecular point group: c1
  Charge       = 0
  Multiplicity = 1
  Basis Set: AUG-CC-PVTZ
    Blend: AUG-CC-PVTZ
  Basis Set: (AUG-CC-PVTZ AUX)
    Blend: AUG-CC-PVTZ-JKFIT

    Orbital Energies [Eh]
    ---------------------

    Doubly Occupied:

       1A    -20.606056     2A    -15.628212     3A    -15.575634
       4A    -11.333314     5A    -11.295600     6A    -11.264651
       7A    -11.252978     8A    -11.215493     9A     -1.428295
      10A     -1.356781    11A     -1.114522    12A     -1.053726
      13A     -0.961992    14A     -0.933510    15A     -0.806112
      16A     -0.768737    17A     -0.725801    18A     -0.678770
      19A     -0.641580    20A     -0.632638    21A     -0.620150
      22A     -0.595056    23A     -0.578866    24A     -0.546170
      25A     -0.545348    26A     -0.522885    27A     -0.497687
      28A     -0.449528    29A     -0.351290    30A     -0.324744

  @DF-RHF Final Energy:  -377.84272739200333

   => Energetics <=

    Nuclear Repulsion Energy =            377.5022962061486851
    One-Electron Energy =               -1262.0777927377098422
    Two-Electron Energy =                 506.7327691395578313
    Total Energy =                       -377.8427273920033258
  Basis Set: (AUG-CC-PVTZ AUX)
    Blend: AUG-CC-PVTZ-RI
    Molecular point group: c1

    Geometry (in Angstrom), charge = 0, multiplicity = 1:

       Center              X                  Y                   Z               Mass
    ------------   -----------------  -----------------  -----------------  -----------------
         O           -1.475805031352     0.695820465224     0.011870479684    15.994914619570
         N            0.845568968648     0.523395465224    -0.032010520316    14.003074004430
         N            1.871034968648    -0.365110534776    -0.018074520316    14.003074004430
         C           -0.355732431352    -0.110748534776     0.002317579684    12.000000000000
         C           -0.141693031352    -1.458663534776     0.022534479684    12.000000000000
         C            1.105634968648     1.947695465224     0.018141479684    12.000000000000
         C            1.261834968648    -1.564176534776     0.007646479684    12.000000000000
         C           -2.694838031352    -0.052485534776    -0.012872520316    12.000000000000
         H           -0.871487031352    -2.254432534776     0.035450479684     1.007825032230
         H            1.156780968648     2.298020465224     1.052394479684     1.007825032230
         H            2.060157968648     2.121053465224    -0.477159520316     1.007825032230
         H            0.304829968648     2.470967465224    -0.505082520316     1.007825032230
         H            1.866781968648    -2.461907534776     0.007542479684     1.007825032230
         H           -3.494708031352     0.686502465224    -0.012471520316     1.007825032230
         H           -2.773401031352    -0.689804534776     0.873404479684     1.007825032230
         H           -2.751629031352    -0.667678534776    -0.916263520316     1.007825032230

  Basis Set: AUG-CC-PVTZ
    Blend: AUG-CC-PVTZ
  Basis Set: (AUG-CC-PVTZ AUX)
    Blend: AUG-CC-PVTZ-JKFIT
	 Reference Energy          =    -377.8427273920033258 [Eh]
	 Singles Energy            =      -0.0000000000000000 [Eh]
	 Same-Spin Energy          =      -0.3963895074912416 [Eh]
	 Opposite-Spin Energy      =      -1.2398805499501833 [Eh]
	 Correlation Energy        =      -1.6362700574414248 [Eh]
	 Total Energy              =    -379.4789974494447620 [Eh]

	 ================> DF-SCS-MP2 Energies <==================
	-----------------------------------------------------------
	 SCS Same-Spin Scale       =       0.3333333333333333 [-]
	 SCS Opposite-Spin Scale   =       1.2000000000000000 [-]
	 SCS Same-Spin Energy      =      -0.1321298358304138 [Eh]
	 SCS Opposite-Spin Energy  =      -1.4878566599402199 [Eh]
	 SCS Correlation Energy    =      -1.6199864957706338 [Eh]
	 SCS Total Energy          =    -379.4627138877739867 [Eh]
	-----------------------------------------------------------

  Dipole Moment: [D]
     X:    -2.8887      Y:     0.5692      Z:     0.0033     Total:     2.9442

*** Psi4 exiting successfully. Buy a developer a beer!
