                               Psi4 1.3.2 release

  ==> Input File <==

--------------------------------------------------------------------------
#psi4
#
memory 32 gb

molecule  {
0 1
  O       -1.4373610     0.6812660     0.0112400
  N        0.8840130     0.5088410    -0.0326410
  N        1.9094790    -0.3796650    -0.0187050
  C       -0.3486723    -0.0616172     0.0061746
  C       -0.1032490    -1.4732180     0.0219040
  C        1.1440790     1.9331410     0.0175110
  C        1.3002790    -1.5787310     0.0070160
  C       -2.6563940    -0.0670400    -0.0135030
  H       -0.8330430    -2.2689870     0.0348200
  H        1.1952250     2.2834660     1.0517640
  H        2.0986020     2.1064990    -0.4777900
  H        0.3432740     2.4564130    -0.5057130
  H        1.9052260    -2.4764620     0.0069120
  H       -3.4562640     0.6719480    -0.0131020
  H       -2.7349570    -0.7043590     0.8727740
  H       -2.7131850    -0.6822330    -0.9168940
units angstrom
no_reorient  #important for SAPT in psi4, default
symmetry c1  #important for SAPT in psi4, default
}

set PROPERTIES_ORIGIN ["COM"]
properties('MP2/aug-cc-pvtz', properties = ['dipole'])
--------------------------------------------------------------------------

    Molecular point group: c1
  Charge       = 0
  Multiplicity = 1
  Basis Set: AUG-CC-PVTZ
    Blend: AUG-CC-PVTZ
  Basis Set: (AUG-CC-PVTZ AUX)
    Blend: AUG-CC-PVTZ-JKFIT

    Orbital Energies [Eh]
    ---------------------

    Doubly Occupied:

       1A    -20.615551     2A    -15.628782     3A    -15.569732
       4A    -11.340025     5A    -11.303094     6A    -11.263041
       7A    -11.250526     8A    -11.215637     9A     -1.455763
      10A     -1.354767    11A     -1.113700    12A     -1.042243
      13A     -0.969566    14A     -0.933805    15A     -0.802529
      16A     -0.777327    17A     -0.726506    18A     -0.689331
      19A     -0.652543    20A     -0.633355    21A     -0.621815
      22A     -0.592039    23A     -0.574413    24A     -0.547479
      25A     -0.545135    26A     -0.521372    27A     -0.506892
      28A     -0.445366    29A     -0.347472    30A     -0.312162

  @DF-RHF Final Energy:  -377.84135157944223

   => Energetics <=

    Nuclear Repulsion Energy =            377.5070596465760673
    One-Electron Energy =               -1261.9928870743162861
    Two-Electron Energy =                 506.6444758482979864
    Total Energy =                       -377.8413515794422324
  Basis Set: (AUG-CC-PVTZ AUX)
    Blend: AUG-CC-PVTZ-RI
    Molecular point group: c1

    Geometry (in Angstrom), charge = 0, multiplicity = 1:

       Center              X                  Y                   Z               Mass
    ------------   -----------------  -----------------  -----------------  -----------------
         O           -1.472444380894     0.689000863042     0.011389949255    15.994914619570
         N            0.848929619106     0.516575863042    -0.032491050745    14.003074004430
         N            1.874395619106    -0.371930136958    -0.018555050745    14.003074004430
         C           -0.383755680894    -0.053882336958     0.006324549255    12.000000000000
         C           -0.138332380894    -1.465483136958     0.022053949255    12.000000000000
         C            1.108995619106     1.940875863042     0.017660949255    12.000000000000
         C            1.265195619106    -1.570996136958     0.007165949255    12.000000000000
         C           -2.691477380894    -0.059305136958    -0.013353050745    12.000000000000
         H           -0.868126380894    -2.261252136958     0.034969949255     1.007825032230
         H            1.160141619106     2.291200863042     1.051913949255     1.007825032230
         H            2.063518619106     2.114233863042    -0.477640050745     1.007825032230
         H            0.308190619106     2.464147863042    -0.505563050745     1.007825032230
         H            1.870142619106    -2.468727136958     0.007061949255     1.007825032230
         H           -3.491347380894     0.679682863042    -0.012952050745     1.007825032230
         H           -2.770040380894    -0.696624136958     0.872923949255     1.007825032230
         H           -2.748268380894    -0.674498136958    -0.916744050745     1.007825032230

  Basis Set: AUG-CC-PVTZ
    Blend: AUG-CC-PVTZ
  Basis Set: (AUG-CC-PVTZ AUX)
    Blend: AUG-CC-PVTZ-JKFIT
	 Reference Energy          =    -377.8413515794422324 [Eh]
	 Singles Energy            =      -0.0000000000000000 [Eh]
	 Same-Spin Energy          =      -0.3965588410176306 [Eh]
	 Opposite-Spin Energy      =      -1.2392200083506986 [Eh]
	 Correlation Energy        =      -1.6357788493683292 [Eh]
	 Total Energy              =    -379.4771304288105398 [Eh]

	 ================> DF-SCS-MP2 Energies <==================
	-----------------------------------------------------------
	 SCS Same-Spin Scale       =       0.3333333333333333 [-]
	 SCS Opposite-Spin Scale   =       1.2000000000000000 [-]
	 SCS Same-Spin Energy      =      -0.1321862803392102 [Eh]
	 SCS Opposite-Spin Energy  =      -1.4870640100208383 [Eh]
	 SCS Correlation Energy    =      -1.6192502903600485 [Eh]
	 SCS Total Energy          =    -379.4606018698023036 [Eh]
	-----------------------------------------------------------

  Dipole Moment: [D]
     X:    -3.2283      Y:     0.8018      Z:     0.0022     Total:     3.3264

*** Psi4 exiting successfully. Buy a developer a beer!
