                               Psi4 1.4a3.dev225

  ==> Input File <==

--------------------------------------------------------------------------
#psi4
#
memory 32 gb

molecule  {
0 1
  O       -1.4373610     0.6812660     0.0112400
  N        0.8840130     0.5088410    -0.0326410
  N        1.9472657    -0.4124049    -0.0181915
  C       -0.3281200    -0.1042590     0.0031940
  C       -0.1032490    -1.4732180     0.0219040
  C        1.1440790     1.9331410     0.0175110
  C        1.3002790    -1.5787310     0.0070160
  C       -2.6563940    -0.0670400    -0.0135030
  H       -0.8330430    -2.2689870     0.0348200
  H        1.1952250     2.2834660     1.0517640
  H        2.0986020     2.1064990    -0.4777900
  H        0.3432740     2.4564130    -0.5057130
  H        1.9052260    -2.4764620     0.0069120
  H       -3.4562640     0.6719480    -0.0131020
  H       -2.7349570    -0.7043590     0.8727740
  H       -2.7131850    -0.6822330    -0.9168940
units angstrom
no_reorient  #important for SAPT in psi4, default
symmetry c1  #important for SAPT in psi4, default
}

set PROPERTIES_ORIGIN ["COM"]
properties('MP2/aug-cc-pvtz', properties = ['dipole'])
--------------------------------------------------------------------------

    Molecular point group: c1
  Charge       = 0
  Multiplicity = 1
  Basis Set: AUG-CC-PVTZ
    Blend: AUG-CC-PVTZ
  Basis Set: (AUG-CC-PVTZ AUX)
    Blend: AUG-CC-PVTZ-JKFIT

    Orbital Energies [Eh]
    ---------------------

    Doubly Occupied:

       1A    -20.611921     2A    -15.624001     3A    -15.577088
       4A    -11.340441     5A    -11.299231     6A    -11.262543
       7A    -11.254751     8A    -11.215048     9A     -1.437777
      10A     -1.340637    11A     -1.117456    12A     -1.047979
      13A     -0.965586    14A     -0.931185    15A     -0.798658
      16A     -0.773229    17A     -0.723846    18A     -0.681625
      19A     -0.646109    20A     -0.629109    21A     -0.620702
      22A     -0.593341    23A     -0.574322    24A     -0.544342
      25A     -0.540120    26A     -0.524735    27A     -0.500593
      28A     -0.453134    29A     -0.350063    30A     -0.325261

  @DF-RHF Final Energy:  -377.84120102093641

   => Energetics <=

    Nuclear Repulsion Energy =            376.3436939692615510
    One-Electron Energy =               -1259.7601230117577416
    Two-Electron Energy =                 505.5752280215598375
    Total Energy =                       -377.8412010209364098
  Basis Set: (AUG-CC-PVTZ AUX)
    Blend: AUG-CC-PVTZ-RI
    Molecular point group: c1

    Geometry (in Angstrom), charge = 0, multiplicity = 1:

       Center              X                  Y                   Z               Mass
    ------------   -----------------  -----------------  -----------------  -----------------
         O           -1.479366852786     0.697658092492     0.011644952712    15.994914619570
         N            0.842007147214     0.525233092492    -0.032236047288    14.003074004430
         N            1.905259847214    -0.396012807508    -0.017786547288    14.003074004430
         C           -0.370125852786    -0.087866907508     0.003598952712    12.000000000000
         C           -0.145254852786    -1.456825907508     0.022308952712    12.000000000000
         C            1.102073147214     1.949533092492     0.017915952712    12.000000000000
         C            1.258273147214    -1.562338907508     0.007420952712    12.000000000000
         C           -2.698399852786    -0.050647907508    -0.013098047288    12.000000000000
         H           -0.875048852786    -2.252594907508     0.035224952712     1.007825032230
         H            1.153219147214     2.299858092492     1.052168952712     1.007825032230
         H            2.056596147214     2.122891092492    -0.477385047288     1.007825032230
         H            0.301268147214     2.472805092492    -0.505308047288     1.007825032230
         H            1.863220147214    -2.460069907508     0.007316952712     1.007825032230
         H           -3.498269852786     0.688340092492    -0.012697047288     1.007825032230
         H           -2.776962852786    -0.687966907508     0.873178952712     1.007825032230
         H           -2.755190852786    -0.665840907508    -0.916489047288     1.007825032230

  Basis Set: AUG-CC-PVTZ
    Blend: AUG-CC-PVTZ
  Basis Set: (AUG-CC-PVTZ AUX)
    Blend: AUG-CC-PVTZ-JKFIT
	 Reference Energy          =    -377.8412010209364098 [Eh]
	 Singles Energy            =      -0.0000000000000000 [Eh]
	 Same-Spin Energy          =      -0.3959229605791679 [Eh]
	 Opposite-Spin Energy      =      -1.2400035102311437 [Eh]
	 Correlation Energy        =      -1.6359264708103116 [Eh]
	 Total Energy              =    -379.4771274917467281 [Eh]

	 ================> DF-SCS-MP2 Energies <==================
	-----------------------------------------------------------
	 SCS Same-Spin Scale       =       0.3333333333333333 [-]
	 SCS Opposite-Spin Scale   =       1.2000000000000000 [-]
	 SCS Same-Spin Energy      =      -0.1319743201930559 [Eh]
	 SCS Opposite-Spin Energy  =      -1.4880042122773725 [Eh]
	 SCS Correlation Energy    =      -1.6199785324704283 [Eh]
	 SCS Total Energy          =    -379.4611795534068506 [Eh]
	-----------------------------------------------------------

  Dipole Moment: [D]
     X:    -3.0608      Y:     0.6146      Z:     0.0046     Total:     3.1219

*** Psi4 exiting successfully. Buy a developer a beer!
