                               Psi4 1.3.2 release

  ==> Input File <==

--------------------------------------------------------------------------
#psi4
#
memory 32 gb

molecule  {
0 1
  O       -1.4373610     0.6812660     0.0112400
  N        0.8840130     0.5088410    -0.0326410
  N        1.9094790    -0.3796650    -0.0187050
  C       -0.1649050    -0.2198421     0.0020101
  C       -0.1032490    -1.4732180     0.0219040
  C        1.1440790     1.9331410     0.0175110
  C        1.3002790    -1.5787310     0.0070160
  C       -2.6563940    -0.0670400    -0.0135030
  H       -0.8330430    -2.2689870     0.0348200
  H        1.1952250     2.2834660     1.0517640
  H        2.0986020     2.1064990    -0.4777900
  H        0.3432740     2.4564130    -0.5057130
  H        1.9052260    -2.4764620     0.0069120
  H       -3.4562640     0.6719480    -0.0131020
  H       -2.7349570    -0.7043590     0.8727740
  H       -2.7131850    -0.6822330    -0.9168940
units angstrom
no_reorient  #important for SAPT in psi4, default
symmetry c1  #important for SAPT in psi4, default
}

set PROPERTIES_ORIGIN ["COM"]
properties('MP2/aug-cc-pvtz', properties = ['dipole'])
--------------------------------------------------------------------------

    Molecular point group: c1
  Charge       = 0
  Multiplicity = 1
  Basis Set: AUG-CC-PVTZ
    Blend: AUG-CC-PVTZ
  Basis Set: (AUG-CC-PVTZ AUX)
    Blend: AUG-CC-PVTZ-JKFIT

    Orbital Energies [Eh]
    ---------------------

    Doubly Occupied:

       1A    -20.575077     2A    -15.633711     3A    -15.581452
       4A    -11.323521     5A    -11.276934     6A    -11.273873
       7A    -11.263217     8A    -11.212916     9A     -1.414934
      10A     -1.336365    11A     -1.135666    12A     -1.078093
      13A     -0.968028    14A     -0.919780    15A     -0.826032
      16A     -0.763903    17A     -0.716482    18A     -0.676166
      19A     -0.641458    20A     -0.623645    21A     -0.616630
      22A     -0.588941    23A     -0.582617    24A     -0.560134
      25A     -0.554545    26A     -0.482904    27A     -0.465967
      28A     -0.454594    29A     -0.369441    30A     -0.348831

  @DF-RHF Final Energy:  -377.78952627432187

   => Energetics <=

    Nuclear Repulsion Energy =            378.6131876187031935
    One-Electron Energy =               -1264.2737118636025571
    Two-Electron Energy =                 507.8709979705774344
    Total Energy =                       -377.7895262743218723
  Basis Set: (AUG-CC-PVTZ AUX)
    Blend: AUG-CC-PVTZ-RI
    Molecular point group: c1

    Geometry (in Angstrom), charge = 0, multiplicity = 1:

       Center              X                  Y                   Z               Mass
    ------------   -----------------  -----------------  -----------------  -----------------
         O           -1.492122549028     0.705943900161     0.011835892201    15.994914619570
         N            0.829251450972     0.533518900161    -0.032045107799    14.003074004430
         N            1.854717450972    -0.354987099839    -0.018109107799    14.003074004430
         C           -0.219666549028    -0.195164199839     0.002605992201    12.000000000000
         C           -0.158010549028    -1.448540099839     0.022499892201    12.000000000000
         C            1.089317450972     1.957818900161     0.018106892201    12.000000000000
         C            1.245517450972    -1.554053099839     0.007611892201    12.000000000000
         C           -2.711155549028    -0.042362099839    -0.012907107799    12.000000000000
         H           -0.887804549028    -2.244309099839     0.035415892201     1.007825032230
         H            1.140463450972     2.308143900161     1.052359892201     1.007825032230
         H            2.043840450972     2.131176900161    -0.477194107799     1.007825032230
         H            0.288512450972     2.481090900161    -0.505117107799     1.007825032230
         H            1.850464450972    -2.451784099839     0.007507892201     1.007825032230
         H           -3.511025549028     0.696625900161    -0.012506107799     1.007825032230
         H           -2.789718549028    -0.679681099839     0.873369892201     1.007825032230
         H           -2.767946549028    -0.657555099839    -0.916298107799     1.007825032230

  Basis Set: AUG-CC-PVTZ
    Blend: AUG-CC-PVTZ
  Basis Set: (AUG-CC-PVTZ AUX)
    Blend: AUG-CC-PVTZ-JKFIT
	 Reference Energy          =    -377.7895262743218723 [Eh]
	 Singles Energy            =      -0.0000000000000000 [Eh]
	 Same-Spin Energy          =      -0.3967898557959579 [Eh]
	 Opposite-Spin Energy      =      -1.2422445429460640 [Eh]
	 Correlation Energy        =      -1.6390343987420219 [Eh]
	 Total Energy              =    -379.4285606730638847 [Eh]

	 ================> DF-SCS-MP2 Energies <==================
	-----------------------------------------------------------
	 SCS Same-Spin Scale       =       0.3333333333333333 [-]
	 SCS Opposite-Spin Scale   =       1.2000000000000000 [-]
	 SCS Same-Spin Energy      =      -0.1322632852653193 [Eh]
	 SCS Opposite-Spin Energy  =      -1.4906934515352768 [Eh]
	 SCS Correlation Energy    =      -1.6229567368005962 [Eh]
	 SCS Total Energy          =    -379.4124830111224469 [Eh]
	-----------------------------------------------------------

  Dipole Moment: [D]
     X:    -1.8787      Y:     0.1767      Z:     0.0039     Total:     1.8870

*** Psi4 exiting successfully. Buy a developer a beer!
