                               Psi4 1.3.2 release

  ==> Input File <==

--------------------------------------------------------------------------
#psi4
#
memory 32 gb

molecule  {
0 1
  O       -1.4373610     0.6812660     0.0112400
  N        0.8840130     0.5088410    -0.0326410
  N        1.8109960    -0.4819052    -0.0141448
  C       -0.3281200    -0.1042590     0.0031940
  C       -0.1032490    -1.4732180     0.0219040
  C        1.1440790     1.9331410     0.0175110
  C        1.3002790    -1.5787310     0.0070160
  C       -2.6563940    -0.0670400    -0.0135030
  H       -0.8330430    -2.2689870     0.0348200
  H        1.1952250     2.2834660     1.0517640
  H        2.0986020     2.1064990    -0.4777900
  H        0.3432740     2.4564130    -0.5057130
  H        1.9052260    -2.4764620     0.0069120
  H       -3.4562640     0.6719480    -0.0131020
  H       -2.7349570    -0.7043590     0.8727740
  H       -2.7131850    -0.6822330    -0.9168940
units angstrom
no_reorient  #important for SAPT in psi4, default
symmetry c1  #important for SAPT in psi4, default
}

set PROPERTIES_ORIGIN ["COM"]
properties('MP2/aug-cc-pvtz', properties = ['dipole'])
--------------------------------------------------------------------------

    Molecular point group: c1
  Charge       = 0
  Multiplicity = 1
  Basis Set: AUG-CC-PVTZ
    Blend: AUG-CC-PVTZ
  Basis Set: (AUG-CC-PVTZ AUX)
    Blend: AUG-CC-PVTZ-JKFIT

    Orbital Energies [Eh]
    ---------------------

    Doubly Occupied:

       1A    -20.606286     2A    -15.622565     3A    -15.556088
       4A    -11.331346     5A    -11.294710     6A    -11.268452
       7A    -11.233214     8A    -11.204232     9A     -1.435598
      10A     -1.372466    11A     -1.148118    12A     -1.039172
      13A     -0.961073    14A     -0.942762    15A     -0.804032
      16A     -0.770845    17A     -0.728373    18A     -0.681159
      19A     -0.641909    20A     -0.635222    21A     -0.627163
      22A     -0.596850    23A     -0.587870    24A     -0.554640
      25A     -0.551237    26A     -0.522014    27A     -0.504651
      28A     -0.421240    29A     -0.360783    30A     -0.322105

  @DF-RHF Final Energy:  -377.83269186420898

   => Energetics <=

    Nuclear Repulsion Energy =            380.3866625786850477
    One-Electron Energy =               -1267.7863584910392092
    Two-Electron Energy =                 509.5670040481452361
    Total Energy =                       -377.8326918642089822
  Basis Set: (AUG-CC-PVTZ AUX)
    Blend: AUG-CC-PVTZ-RI
    Molecular point group: c1

    Geometry (in Angstrom), charge = 0, multiplicity = 1:

       Center              X                  Y                   Z               Mass
    ------------   -----------------  -----------------  -----------------  -----------------
         O           -1.462339079068     0.706342601093     0.011139291572    15.994914619570
         N            0.859034920932     0.533917601093    -0.032741708428    14.003074004430
         N            1.786017920932    -0.456828598907    -0.014245508428    14.003074004430
         C           -0.353098079068    -0.079182398907     0.003093291572    12.000000000000
         C           -0.128227079068    -1.448141398907     0.021803291572    12.000000000000
         C            1.119100920932     1.958217601093     0.017410291572    12.000000000000
         C            1.275300920932    -1.553654398907     0.006915291572    12.000000000000
         C           -2.681372079068    -0.041963398907    -0.013603708428    12.000000000000
         H           -0.858021079068    -2.243910398907     0.034719291572     1.007825032230
         H            1.170246920932     2.308542601093     1.051663291572     1.007825032230
         H            2.073623920932     2.131575601093    -0.477890708428     1.007825032230
         H            0.318295920932     2.481489601093    -0.505813708428     1.007825032230
         H            1.880247920932    -2.451385398907     0.006811291572     1.007825032230
         H           -3.481242079068     0.697024601093    -0.013202708428     1.007825032230
         H           -2.759935079068    -0.679282398907     0.872673291572     1.007825032230
         H           -2.738163079068    -0.657156398907    -0.916994708428     1.007825032230

  Basis Set: AUG-CC-PVTZ
    Blend: AUG-CC-PVTZ
  Basis Set: (AUG-CC-PVTZ AUX)
    Blend: AUG-CC-PVTZ-JKFIT
	 Reference Energy          =    -377.8326918642089822 [Eh]
	 Singles Energy            =      -0.0000000000000000 [Eh]
	 Same-Spin Energy          =      -0.3930652346984642 [Eh]
	 Opposite-Spin Energy      =      -1.2326470871171287 [Eh]
	 Correlation Energy        =      -1.6257123218155929 [Eh]
	 Total Energy              =    -379.4584041860245520 [Eh]

	 ================> DF-SCS-MP2 Energies <==================
	-----------------------------------------------------------
	 SCS Same-Spin Scale       =       0.3333333333333333 [-]
	 SCS Opposite-Spin Scale   =       1.2000000000000000 [-]
	 SCS Same-Spin Energy      =      -0.1310217448994881 [Eh]
	 SCS Opposite-Spin Energy  =      -1.4791765045405543 [Eh]
	 SCS Correlation Energy    =      -1.6101982494400424 [Eh]
	 SCS Total Energy          =    -379.4428901136490140 [Eh]
	-----------------------------------------------------------

  Dipole Moment: [D]
     X:    -2.6223      Y:     0.7662      Z:    -0.0050     Total:     2.7320

*** Psi4 exiting successfully. Buy a developer a beer!
