                               Psi4 1.3.2 release

  ==> Input File <==

--------------------------------------------------------------------------
#psi4
#
memory 32 gb

molecule  {
0 1
  O       -1.5133480     0.5610419     0.0149896
  N        0.8840130     0.5088410    -0.0326410
  N        1.9094790    -0.3796650    -0.0187050
  C       -0.3281200    -0.1042590     0.0031940
  C       -0.1032490    -1.4732180     0.0219040
  C        1.1440790     1.9331410     0.0175110
  C        1.3002790    -1.5787310     0.0070160
  C       -2.6563940    -0.0670400    -0.0135030
  H       -0.8330430    -2.2689870     0.0348200
  H        1.1952250     2.2834660     1.0517640
  H        2.0986020     2.1064990    -0.4777900
  H        0.3432740     2.4564130    -0.5057130
  H        1.9052260    -2.4764620     0.0069120
  H       -3.4562640     0.6719480    -0.0131020
  H       -2.7349570    -0.7043590     0.8727740
  H       -2.7131850    -0.6822330    -0.9168940
units angstrom
no_reorient  #important for SAPT in psi4, default
symmetry c1  #important for SAPT in psi4, default
}

set PROPERTIES_ORIGIN ["COM"]
properties('MP2/aug-cc-pvtz', properties = ['dipole'])
--------------------------------------------------------------------------

    Molecular point group: c1
  Charge       = 0
  Multiplicity = 1
  Basis Set: AUG-CC-PVTZ
    Blend: AUG-CC-PVTZ
  Basis Set: (AUG-CC-PVTZ AUX)
    Blend: AUG-CC-PVTZ-JKFIT

    Orbital Energies [Eh]
    ---------------------

    Doubly Occupied:

       1A    -20.602641     2A    -15.636522     3A    -15.577839
       4A    -11.341932     5A    -11.284669     6A    -11.268643
       7A    -11.254599     8A    -11.215420     9A     -1.468090
      10A     -1.366497    11A     -1.119155    12A     -1.062396
      13A     -0.965436    14A     -0.936676    15A     -0.810649
      16A     -0.780031    17A     -0.733819    18A     -0.700476
      19A     -0.669817    20A     -0.641871    21A     -0.626504
      22A     -0.598440    23A     -0.582085    24A     -0.549136
      25A     -0.546611    26A     -0.499444    27A     -0.484106
      28A     -0.453058    29A     -0.352619    30A     -0.323629

  @DF-RHF Final Energy:  -377.83324900752251

   => Energetics <=

    Nuclear Repulsion Energy =            378.8790988813461240
    One-Electron Energy =               -1264.5190732452076645
    Two-Electron Energy =                 507.8067253563389727
    Total Energy =                       -377.8332490075225110
  Basis Set: (AUG-CC-PVTZ AUX)
    Blend: AUG-CC-PVTZ-RI
    Molecular point group: c1

    Geometry (in Angstrom), charge = 0, multiplicity = 1:

       Center              X                  Y                   Z               Mass
    ------------   -----------------  -----------------  -----------------  -----------------
         O           -1.539786491442     0.590502590594     0.014923535150    15.994914619570
         N            0.857574508558     0.538301690594    -0.032707064850    14.003074004430
         N            1.883040508558    -0.350204309406    -0.018771064850    14.003074004430
         C           -0.354558491442    -0.074798309406     0.003127935150    12.000000000000
         C           -0.129687491442    -1.443757309406     0.021837935150    12.000000000000
         C            1.117640508558     1.962601690594     0.017444935150    12.000000000000
         C            1.273840508558    -1.549270309406     0.006949935150    12.000000000000
         C           -2.682832491442    -0.037579309406    -0.013569064850    12.000000000000
         H           -0.859481491442    -2.239526309406     0.034753935150     1.007825032230
         H            1.168786508558     2.312926690594     1.051697935150     1.007825032230
         H            2.072163508558     2.135959690594    -0.477856064850     1.007825032230
         H            0.316835508558     2.485873690594    -0.505779064850     1.007825032230
         H            1.878787508558    -2.447001309406     0.006845935150     1.007825032230
         H           -3.482702491442     0.701408690594    -0.013168064850     1.007825032230
         H           -2.761395491442    -0.674898309406     0.872707935150     1.007825032230
         H           -2.739623491442    -0.652772309406    -0.916960064850     1.007825032230

  Basis Set: AUG-CC-PVTZ
    Blend: AUG-CC-PVTZ
  Basis Set: (AUG-CC-PVTZ AUX)
    Blend: AUG-CC-PVTZ-JKFIT
	 Reference Energy          =    -377.8332490075225110 [Eh]
	 Singles Energy            =      -0.0000000000000000 [Eh]
	 Same-Spin Energy          =      -0.3959787035978107 [Eh]
	 Opposite-Spin Energy      =      -1.2367065226600358 [Eh]
	 Correlation Energy        =      -1.6326852262578466 [Eh]
	 Total Energy              =    -379.4659342337803309 [Eh]

	 ================> DF-SCS-MP2 Energies <==================
	-----------------------------------------------------------
	 SCS Same-Spin Scale       =       0.3333333333333333 [-]
	 SCS Opposite-Spin Scale   =       1.2000000000000000 [-]
	 SCS Same-Spin Energy      =      -0.1319929011992702 [Eh]
	 SCS Opposite-Spin Energy  =      -1.4840478271920430 [Eh]
	 SCS Correlation Energy    =      -1.6160407283913132 [Eh]
	 SCS Total Energy          =    -379.4492897359138510 [Eh]
	-----------------------------------------------------------

  Dipole Moment: [D]
     X:    -2.4784      Y:     0.9205      Z:     0.0026     Total:     2.6438

*** Psi4 exiting successfully. Buy a developer a beer!
