                               Psi4 1.3.2 release

  ==> Input File <==

--------------------------------------------------------------------------
#psi4
#
memory 32 gb

molecule  {
0 1
  O       -1.4373610     0.6812660     0.0112400
  N        0.8840130     0.5088410    -0.0326410
  N        1.9689542    -0.3060230    -0.0218331
  C       -0.3281200    -0.1042590     0.0031940
  C       -0.1032490    -1.4732180     0.0219040
  C        1.1440790     1.9331410     0.0175110
  C        1.3002790    -1.5787310     0.0070160
  C       -2.6563940    -0.0670400    -0.0135030
  H       -0.8330430    -2.2689870     0.0348200
  H        1.1952250     2.2834660     1.0517640
  H        2.0986020     2.1064990    -0.4777900
  H        0.3432740     2.4564130    -0.5057130
  H        1.9052260    -2.4764620     0.0069120
  H       -3.4562640     0.6719480    -0.0131020
  H       -2.7349570    -0.7043590     0.8727740
  H       -2.7131850    -0.6822330    -0.9168940
units angstrom
no_reorient  #important for SAPT in psi4, default
symmetry c1  #important for SAPT in psi4, default
}

set PROPERTIES_ORIGIN ["COM"]
properties('MP2/aug-cc-pvtz', properties = ['dipole'])
--------------------------------------------------------------------------

    Molecular point group: c1
  Charge       = 0
  Multiplicity = 1
  Basis Set: AUG-CC-PVTZ
    Blend: AUG-CC-PVTZ
  Basis Set: (AUG-CC-PVTZ AUX)
    Blend: AUG-CC-PVTZ-JKFIT

    Orbital Energies [Eh]
    ---------------------

    Doubly Occupied:

       1A    -20.610902     2A    -15.633098     3A    -15.582962
       4A    -11.338138     5A    -11.300105     6A    -11.263023
       7A    -11.261496     8A    -11.223464     9A     -1.438073
      10A     -1.349288    11A     -1.096048    12A     -1.055909
      13A     -0.965968    14A     -0.929485    15A     -0.807230
      16A     -0.767757    17A     -0.725886    18A     -0.683023
      19A     -0.647547    20A     -0.632144    21A     -0.616922
      22A     -0.594111    23A     -0.573599    24A     -0.543444
      25A     -0.536712    26A     -0.523993    27A     -0.498560
      28A     -0.457877    29A     -0.351486    30A     -0.312376

  @DF-RHF Final Energy:  -377.82603835266121

   => Energetics <=

    Nuclear Repulsion Energy =            375.8577037760551889
    One-Electron Energy =               -1258.7262313371556957
    Two-Electron Energy =                 505.0424892084393491
    Total Energy =                       -377.8260383526612145
  Basis Set: (AUG-CC-PVTZ AUX)
    Blend: AUG-CC-PVTZ-RI
    Molecular point group: c1

    Geometry (in Angstrom), charge = 0, multiplicity = 1:

       Center              X                  Y                   Z               Mass
    ------------   -----------------  -----------------  -----------------  -----------------
         O           -1.482076970078     0.684364991231     0.012099994007    15.994914619570
         N            0.839297029922     0.511939991231    -0.031781005993    14.003074004430
         N            1.924238229922    -0.302924008769    -0.020973105993    14.003074004430
         C           -0.372835970078    -0.101160008769     0.004053994007    12.000000000000
         C           -0.147964970078    -1.470119008769     0.022763994007    12.000000000000
         C            1.099363029922     1.936239991231     0.018370994007    12.000000000000
         C            1.255563029922    -1.575632008769     0.007875994007    12.000000000000
         C           -2.701109970078    -0.063941008769    -0.012643005993    12.000000000000
         H           -0.877758970078    -2.265888008769     0.035679994007     1.007825032230
         H            1.150509029922     2.286564991231     1.052623994007     1.007825032230
         H            2.053886029922     2.109597991231    -0.476930005993     1.007825032230
         H            0.298558029922     2.459511991231    -0.504853005993     1.007825032230
         H            1.860510029922    -2.473363008769     0.007771994007     1.007825032230
         H           -3.500979970078     0.675046991231    -0.012242005993     1.007825032230
         H           -2.779672970078    -0.701260008769     0.873633994007     1.007825032230
         H           -2.757900970078    -0.679134008769    -0.916034005993     1.007825032230

  Basis Set: AUG-CC-PVTZ
    Blend: AUG-CC-PVTZ
  Basis Set: (AUG-CC-PVTZ AUX)
    Blend: AUG-CC-PVTZ-JKFIT
	 Reference Energy          =    -377.8260383526612145 [Eh]
	 Singles Energy            =      -0.0000000000000000 [Eh]
	 Same-Spin Energy          =      -0.3992723500161192 [Eh]
	 Opposite-Spin Energy      =      -1.2457164245129551 [Eh]
	 Correlation Energy        =      -1.6449887745290743 [Eh]
	 Total Energy              =    -379.4710271271902684 [Eh]

	 ================> DF-SCS-MP2 Energies <==================
	-----------------------------------------------------------
	 SCS Same-Spin Scale       =       0.3333333333333333 [-]
	 SCS Opposite-Spin Scale   =       1.2000000000000000 [-]
	 SCS Same-Spin Energy      =      -0.1330907833387064 [Eh]
	 SCS Opposite-Spin Energy  =      -1.4948597094155460 [Eh]
	 SCS Correlation Energy    =      -1.6279504927542523 [Eh]
	 SCS Total Energy          =    -379.4539888454154948 [Eh]
	-----------------------------------------------------------

  Dipole Moment: [D]
     X:    -3.1866      Y:     0.5793      Z:     0.0077     Total:     3.2389

*** Psi4 exiting successfully. Buy a developer a beer!
