                               Psi4 1.3.2 release

  ==> Input File <==

--------------------------------------------------------------------------
#psi4
#
memory 32 gb

molecule  {
0 1
  O       -1.4373610     0.6812660     0.0112400
  N        0.8840130     0.5088410    -0.0326410
  N        1.9094790    -0.3796650    -0.0187050
  C       -0.3281200    -0.1042590     0.0031940
  C       -0.1032490    -1.4732180     0.0219040
  C        1.1620305     2.0314556     0.0209728
  C        1.3002790    -1.5787310     0.0070160
  C       -2.6563940    -0.0670400    -0.0135030
  H       -0.8330430    -2.2689870     0.0348200
  H        1.1952250     2.2834660     1.0517640
  H        2.0986020     2.1064990    -0.4777900
  H        0.3432740     2.4564130    -0.5057130
  H        1.9052260    -2.4764620     0.0069120
  H       -3.4562640     0.6719480    -0.0131020
  H       -2.7349570    -0.7043590     0.8727740
  H       -2.7131850    -0.6822330    -0.9168940
units angstrom
no_reorient  #important for SAPT in psi4, default
symmetry c1  #important for SAPT in psi4, default
}

set PROPERTIES_ORIGIN ["COM"]
properties('MP2/aug-cc-pvtz', properties = ['dipole'])
--------------------------------------------------------------------------

    Molecular point group: c1
  Charge       = 0
  Multiplicity = 1
  Basis Set: AUG-CC-PVTZ
    Blend: AUG-CC-PVTZ
  Basis Set: (AUG-CC-PVTZ AUX)
    Blend: AUG-CC-PVTZ-JKFIT

    Orbital Energies [Eh]
    ---------------------

    Doubly Occupied:

       1A    -20.606711     2A    -15.624968     3A    -15.570765
       4A    -11.331158     5A    -11.296460     6A    -11.269153
       7A    -11.248196     8A    -11.212260     9A     -1.433278
      10A     -1.346510    11A     -1.097916    12A     -1.044488
      13A     -0.963411    14A     -0.939059    15A     -0.798686
      16A     -0.767675    17A     -0.718202    18A     -0.678717
      19A     -0.641510    20A     -0.634164    21A     -0.617382
      22A     -0.597648    23A     -0.565588    24A     -0.559211
      25A     -0.549681    26A     -0.521251    27A     -0.499807
      28A     -0.443897    29A     -0.347829    30A     -0.317316

  @DF-RHF Final Energy:  -377.83548889361231

   => Energetics <=

    Nuclear Repulsion Energy =            375.5667457665249458
    One-Electron Energy =               -1258.3186791651662588
    Two-Electron Energy =                 504.9164445050290055
    Total Energy =                       -377.8354888936123075
  Basis Set: (AUG-CC-PVTZ AUX)
    Blend: AUG-CC-PVTZ-RI
    Molecular point group: c1

    Geometry (in Angstrom), charge = 0, multiplicity = 1:

       Center              X                  Y                   Z               Mass
    ------------   -----------------  -----------------  -----------------  -----------------
         O           -1.476567444411     0.683039308843     0.011338421401    15.994914619570
         N            0.844806555589     0.510614308843    -0.032542578599    14.003074004430
         N            1.870272555589    -0.377891691157    -0.018606578599    14.003074004430
         C           -0.367326444411    -0.102485691157     0.003292421401    12.000000000000
         C           -0.142455444411    -1.471444691157     0.022002421401    12.000000000000
         C            1.122824055589     2.033228908843     0.021071221401    12.000000000000
         C            1.261072555589    -1.576957691157     0.007114421401    12.000000000000
         C           -2.695600444411    -0.065266691157    -0.013404578599    12.000000000000
         H           -0.872249444411    -2.267213691157     0.034918421401     1.007825032230
         H            1.156018555589     2.285239308843     1.051862421401     1.007825032230
         H            2.059395555589     2.108272308843    -0.477691578599     1.007825032230
         H            0.304067555589     2.458186308843    -0.505614578599     1.007825032230
         H            1.866019555589    -2.474688691157     0.007010421401     1.007825032230
         H           -3.495470444411     0.673721308843    -0.013003578599     1.007825032230
         H           -2.774163444411    -0.702585691157     0.872872421401     1.007825032230
         H           -2.752391444411    -0.680459691157    -0.916795578599     1.007825032230

  Basis Set: AUG-CC-PVTZ
    Blend: AUG-CC-PVTZ
  Basis Set: (AUG-CC-PVTZ AUX)
    Blend: AUG-CC-PVTZ-JKFIT
	 Reference Energy          =    -377.8354888936123075 [Eh]
	 Singles Energy            =      -0.0000000000000000 [Eh]
	 Same-Spin Energy          =      -0.3962842586691243 [Eh]
	 Opposite-Spin Energy      =      -1.2402558730555597 [Eh]
	 Correlation Energy        =      -1.6365401317246842 [Eh]
	 Total Energy              =    -379.4720290253370081 [Eh]

	 ================> DF-SCS-MP2 Energies <==================
	-----------------------------------------------------------
	 SCS Same-Spin Scale       =       0.3333333333333333 [-]
	 SCS Opposite-Spin Scale   =       1.2000000000000000 [-]
	 SCS Same-Spin Energy      =      -0.1320947528897081 [Eh]
	 SCS Opposite-Spin Energy  =      -1.4883070476666715 [Eh]
	 SCS Correlation Energy    =      -1.6204018005563796 [Eh]
	 SCS Total Energy          =    -379.4558906941687155 [Eh]
	-----------------------------------------------------------

  Dipole Moment: [D]
     X:    -2.9190      Y:     0.9346      Z:     0.0304     Total:     3.0651

*** Psi4 exiting successfully. Buy a developer a beer!
