                               Psi4 1.3.2 release

  ==> Input File <==

--------------------------------------------------------------------------
#psi4
#
memory 32 gb

molecule  {
0 1
  O       -1.4373610     0.6812660     0.0112400
  N        0.8840130     0.5088410    -0.0326410
  N        1.8339056    -0.3141851    -0.0197320
  C       -0.3281200    -0.1042590     0.0031940
  C       -0.1032490    -1.4732180     0.0219040
  C        1.1440790     1.9331410     0.0175110
  C        1.3002790    -1.5787310     0.0070160
  C       -2.6563940    -0.0670400    -0.0135030
  H       -0.8330430    -2.2689870     0.0348200
  H        1.1952250     2.2834660     1.0517640
  H        2.0986020     2.1064990    -0.4777900
  H        0.3432740     2.4564130    -0.5057130
  H        1.9052260    -2.4764620     0.0069120
  H       -3.4562640     0.6719480    -0.0131020
  H       -2.7349570    -0.7043590     0.8727740
  H       -2.7131850    -0.6822330    -0.9168940
units angstrom
no_reorient  #important for SAPT in psi4, default
symmetry c1  #important for SAPT in psi4, default
}

set PROPERTIES_ORIGIN ["COM"]
properties('MP2/aug-cc-pvtz', properties = ['dipole'])
--------------------------------------------------------------------------

    Molecular point group: c1
  Charge       = 0
  Multiplicity = 1
  Basis Set: AUG-CC-PVTZ
    Blend: AUG-CC-PVTZ
  Basis Set: (AUG-CC-PVTZ AUX)
    Blend: AUG-CC-PVTZ-JKFIT

    Orbital Energies [Eh]
    ---------------------

    Doubly Occupied:

       1A    -20.602543     2A    -15.637910     3A    -15.568985
       4A    -11.323502     5A    -11.295068     6A    -11.267342
       7A    -11.246616     8A    -11.217535     9A     -1.439662
      10A     -1.391662    11A     -1.108856    12A     -1.054670
      13A     -0.964119    14A     -0.936367    15A     -0.817769
      16A     -0.766147    17A     -0.730651    18A     -0.685123
      19A     -0.642049    20A     -0.640990    21A     -0.623928
      22A     -0.595979    23A     -0.581901    24A     -0.553714
      25A     -0.550544    26A     -0.520775    27A     -0.501477
      28A     -0.436606    29A     -0.354478    30A     -0.305810

  @DF-RHF Final Energy:  -377.83531148370128

   => Energetics <=

    Nuclear Repulsion Energy =            379.9253791722177311
    One-Electron Energy =               -1266.7958217489276649
    Two-Electron Energy =                 509.0351310930086584
    Total Energy =                       -377.8353114837012754
  Basis Set: (AUG-CC-PVTZ AUX)
    Blend: AUG-CC-PVTZ-RI
    Molecular point group: c1

    Geometry (in Angstrom), charge = 0, multiplicity = 1:

       Center              X                  Y                   Z               Mass
    ------------   -----------------  -----------------  -----------------  -----------------
         O           -1.465201780643     0.685384898017     0.011837448076    15.994914619570
         N            0.856172219357     0.512959898017    -0.032043551924    14.003074004430
         N            1.806064819357    -0.310066201983    -0.019134551924    14.003074004430
         C           -0.355960780643    -0.100140101983     0.003791448076    12.000000000000
         C           -0.131089780643    -1.469099101983     0.022501448076    12.000000000000
         C            1.116238219357     1.937259898017     0.018108448076    12.000000000000
         C            1.272438219357    -1.574612101983     0.007613448076    12.000000000000
         C           -2.684234780643    -0.062921101983    -0.012905551924    12.000000000000
         H           -0.860883780643    -2.264868101983     0.035417448076     1.007825032230
         H            1.167384219357     2.287584898017     1.052361448076     1.007825032230
         H            2.070761219357     2.110617898017    -0.477192551924     1.007825032230
         H            0.315433219357     2.460531898017    -0.505115551924     1.007825032230
         H            1.877385219357    -2.472343101983     0.007509448076     1.007825032230
         H           -3.484104780643     0.676066898017    -0.012504551924     1.007825032230
         H           -2.762797780643    -0.700240101983     0.873371448076     1.007825032230
         H           -2.741025780643    -0.678114101983    -0.916296551924     1.007825032230

  Basis Set: AUG-CC-PVTZ
    Blend: AUG-CC-PVTZ
  Basis Set: (AUG-CC-PVTZ AUX)
    Blend: AUG-CC-PVTZ-JKFIT
	 Reference Energy          =    -377.8353114837012754 [Eh]
	 Singles Energy            =      -0.0000000000000000 [Eh]
	 Same-Spin Energy          =      -0.3976463053639032 [Eh]
	 Opposite-Spin Energy      =      -1.2392772171927389 [Eh]
	 Correlation Energy        =      -1.6369235225566421 [Eh]
	 Total Energy              =    -379.4722350062579039 [Eh]

	 ================> DF-SCS-MP2 Energies <==================
	-----------------------------------------------------------
	 SCS Same-Spin Scale       =       0.3333333333333333 [-]
	 SCS Opposite-Spin Scale   =       1.2000000000000000 [-]
	 SCS Same-Spin Energy      =      -0.1325487684546344 [Eh]
	 SCS Opposite-Spin Energy  =      -1.4871326606312867 [Eh]
	 SCS Correlation Energy    =      -1.6196814290859209 [Eh]
	 SCS Total Energy          =    -379.4549929127871906 [Eh]
	-----------------------------------------------------------

  Dipole Moment: [D]
     X:    -2.8379      Y:     0.7037      Z:    -0.0003     Total:     2.9239

*** Psi4 exiting successfully. Buy a developer a beer!
