                               Psi4 1.3.2 release

  ==> Input File <==

--------------------------------------------------------------------------
#psi4
#
memory 32 gb

molecule  {
0 1
  O       -1.4373610     0.6812660     0.0112400
  N        0.8840130     0.5088410    -0.0326410
  N        1.9094790    -0.3796650    -0.0187050
  C       -0.3013822    -0.0650801     0.0042111
  C       -0.1032490    -1.4732180     0.0219040
  C        1.1440790     1.9331410     0.0175110
  C        1.3002790    -1.5787310     0.0070160
  C       -2.6563940    -0.0670400    -0.0135030
  H       -0.8330430    -2.2689870     0.0348200
  H        1.1952250     2.2834660     1.0517640
  H        2.0986020     2.1064990    -0.4777900
  H        0.3432740     2.4564130    -0.5057130
  H        1.9052260    -2.4764620     0.0069120
  H       -3.4562640     0.6719480    -0.0131020
  H       -2.7349570    -0.7043590     0.8727740
  H       -2.7131850    -0.6822330    -0.9168940
units angstrom
no_reorient  #important for SAPT in psi4, default
symmetry c1  #important for SAPT in psi4, default
}

set PROPERTIES_ORIGIN ["COM"]
properties('MP2/aug-cc-pvtz', properties = ['dipole'])
--------------------------------------------------------------------------

    Molecular point group: c1
  Charge       = 0
  Multiplicity = 1
  Basis Set: AUG-CC-PVTZ
    Blend: AUG-CC-PVTZ
  Basis Set: (AUG-CC-PVTZ AUX)
    Blend: AUG-CC-PVTZ-JKFIT

    Orbital Energies [Eh]
    ---------------------

    Doubly Occupied:

       1A    -20.607840     2A    -15.632932     3A    -15.569314
       4A    -11.336549     5A    -11.298474     6A    -11.266579
       7A    -11.252499     8A    -11.214949     9A     -1.437249
      10A     -1.363286    11A     -1.119857    12A     -1.046417
      13A     -0.962656    14A     -0.939984    15A     -0.808389
      16A     -0.769578    17A     -0.727522    18A     -0.683827
      19A     -0.644927    20A     -0.635866    21A     -0.619812
      22A     -0.591711    23A     -0.582235    24A     -0.548635
      25A     -0.547111    26A     -0.516564    27A     -0.500873
      28A     -0.447351    29A     -0.352296    30A     -0.317255

  @DF-RHF Final Energy:  -377.84327155641745

   => Energetics <=

    Nuclear Repulsion Energy =            377.7710991512304872
    One-Electron Energy =               -1262.5436647171823097
    Two-Electron Energy =                 506.9292940095343738
    Total Energy =                       -377.8432715564174487
  Basis Set: (AUG-CC-PVTZ AUX)
    Blend: AUG-CC-PVTZ-RI
    Molecular point group: c1

    Geometry (in Angstrom), charge = 0, multiplicity = 1:

       Center              X                  Y                   Z               Mass
    ------------   -----------------  -----------------  -----------------  -----------------
         O           -1.477508298897     0.689371677264     0.011600204742    15.994914619570
         N            0.843865701103     0.516946677264    -0.032280795258    14.003074004430
         N            1.869331701103    -0.371559322736    -0.018344795258    14.003074004430
         C           -0.341529498897    -0.056974422736     0.004571304742    12.000000000000
         C           -0.143396298897    -1.465112322736     0.022264204742    12.000000000000
         C            1.103931701103     1.941246677264     0.017871204742    12.000000000000
         C            1.260131701103    -1.570625322736     0.007376204742    12.000000000000
         C           -2.696541298897    -0.058934322736    -0.013142795258    12.000000000000
         H           -0.873190298897    -2.260881322736     0.035180204742     1.007825032230
         H            1.155077701103     2.291571677264     1.052124204742     1.007825032230
         H            2.058454701103     2.114604677264    -0.477429795258     1.007825032230
         H            0.303126701103     2.464518677264    -0.505352795258     1.007825032230
         H            1.865078701103    -2.468356322736     0.007272204742     1.007825032230
         H           -3.496411298897     0.680053677264    -0.012741795258     1.007825032230
         H           -2.775104298897    -0.696253322736     0.873134204742     1.007825032230
         H           -2.753332298897    -0.674127322736    -0.916533795258     1.007825032230

  Basis Set: AUG-CC-PVTZ
    Blend: AUG-CC-PVTZ
  Basis Set: (AUG-CC-PVTZ AUX)
    Blend: AUG-CC-PVTZ-JKFIT
	 Reference Energy          =    -377.8432715564174487 [Eh]
	 Singles Energy            =      -0.0000000000000000 [Eh]
	 Same-Spin Energy          =      -0.3959603734514040 [Eh]
	 Opposite-Spin Energy      =      -1.2383961931032750 [Eh]
	 Correlation Energy        =      -1.6343565665546791 [Eh]
	 Total Energy              =    -379.4776281229721349 [Eh]

	 ================> DF-SCS-MP2 Energies <==================
	-----------------------------------------------------------
	 SCS Same-Spin Scale       =       0.3333333333333333 [-]
	 SCS Opposite-Spin Scale   =       1.2000000000000000 [-]
	 SCS Same-Spin Energy      =      -0.1319867911504680 [Eh]
	 SCS Opposite-Spin Energy  =      -1.4860754317239300 [Eh]
	 SCS Correlation Energy    =      -1.6180622228743979 [Eh]
	 SCS Total Energy          =    -379.4613337792918628 [Eh]
	-----------------------------------------------------------

  Dipole Moment: [D]
     X:    -2.9524      Y:     0.7687      Z:     0.0006     Total:     3.0509

*** Psi4 exiting successfully. Buy a developer a beer!
