                               Psi4 1.4a3.dev225

  ==> Input File <==

--------------------------------------------------------------------------
#psi4
#
memory 32 gb

molecule  {
0 1
  O       -1.4373610     0.6812660     0.0112400
  N        0.8840130     0.5088410    -0.0326410
  N        1.9094790    -0.3796650    -0.0187050
  C       -0.3117985    -0.1158173     0.0030756
  C       -0.1032490    -1.4732180     0.0219040
  C        1.1440790     1.9331410     0.0175110
  C        1.3002790    -1.5787310     0.0070160
  C       -2.6563940    -0.0670400    -0.0135030
  H       -0.8330430    -2.2689870     0.0348200
  H        1.1952250     2.2834660     1.0517640
  H        2.0986020     2.1064990    -0.4777900
  H        0.3432740     2.4564130    -0.5057130
  H        1.9052260    -2.4764620     0.0069120
  H       -3.4562640     0.6719480    -0.0131020
  H       -2.7349570    -0.7043590     0.8727740
  H       -2.7131850    -0.6822330    -0.9168940
units angstrom
no_reorient  #important for SAPT in psi4, default
symmetry c1  #important for SAPT in psi4, default
}

set PROPERTIES_ORIGIN ["COM"]
properties('MP2/aug-cc-pvtz', properties = ['dipole'])
--------------------------------------------------------------------------

    Molecular point group: c1
  Charge       = 0
  Multiplicity = 1
  Basis Set: AUG-CC-PVTZ
    Blend: AUG-CC-PVTZ
  Basis Set: (AUG-CC-PVTZ AUX)
    Blend: AUG-CC-PVTZ-JKFIT

    Orbital Energies [Eh]
    ---------------------

    Doubly Occupied:

       1A    -20.605878     2A    -15.629233     3A    -15.574582
       4A    -11.333675     5A    -11.295781     6A    -11.265173
       7A    -11.253042     8A    -11.215393     9A     -1.428842
      10A     -1.358173    11A     -1.115608    12A     -1.052681
      13A     -0.961862    14A     -0.934830    15A     -0.806863
      16A     -0.768511    17A     -0.726047    18A     -0.679298
      19A     -0.641717    20A     -0.633259    21A     -0.619714
      22A     -0.594756    23A     -0.579969    24A     -0.546688
      25A     -0.545859    26A     -0.521602    27A     -0.497796
      28A     -0.449294    29A     -0.351258    30A     -0.324193

  @DF-RHF Final Energy:  -377.84345584838707

   => Energetics <=

    Nuclear Repulsion Energy =            377.5621976038631828
    One-Electron Energy =               -1262.1881513096063827
    Two-Electron Energy =                 506.7824978573561339
    Total Energy =                       -377.8434558483870660
  Basis Set: (AUG-CC-PVTZ AUX)
    Blend: AUG-CC-PVTZ-RI
    Molecular point group: c1

    Geometry (in Angstrom), charge = 0, multiplicity = 1:

       Center              X                  Y                   Z               Mass
    ------------   -----------------  -----------------  -----------------  -----------------
         O           -1.476392900768     0.694804717594     0.011721796341    15.994914619570
         N            0.844981099232     0.522379717594    -0.032159203659    14.003074004430
         N            1.870447099232    -0.366126282406    -0.018223203659    14.003074004430
         C           -0.350830400768    -0.102278582406     0.003557396341    12.000000000000
         C           -0.142280900768    -1.459679282406     0.022385796341    12.000000000000
         C            1.105047099232     1.946679717594     0.017992796341    12.000000000000
         C            1.261247099232    -1.565192282406     0.007497796341    12.000000000000
         C           -2.695425900768    -0.053501282406    -0.013021203659    12.000000000000
         H           -0.872074900768    -2.255448282406     0.035301796341     1.007825032230
         H            1.156193099232     2.297004717594     1.052245796341     1.007825032230
         H            2.059570099232     2.120037717594    -0.477308203659     1.007825032230
         H            0.304242099232     2.469951717594    -0.505231203659     1.007825032230
         H            1.866194099232    -2.462923282406     0.007393796341     1.007825032230
         H           -3.495295900768     0.685486717594    -0.012620203659     1.007825032230
         H           -2.773988900768    -0.690820282406     0.873255796341     1.007825032230
         H           -2.752216900768    -0.668694282406    -0.916412203659     1.007825032230

  Basis Set: AUG-CC-PVTZ
    Blend: AUG-CC-PVTZ
  Basis Set: (AUG-CC-PVTZ AUX)
    Blend: AUG-CC-PVTZ-JKFIT
	 Reference Energy          =    -377.8434558483870660 [Eh]
	 Singles Energy            =      -0.0000000000000000 [Eh]
	 Same-Spin Energy          =      -0.3962981433150824 [Eh]
	 Opposite-Spin Energy      =      -1.2395919042490697 [Eh]
	 Correlation Energy        =      -1.6358900475641520 [Eh]
	 Total Energy              =    -379.4793458959512122 [Eh]

	 ================> DF-SCS-MP2 Energies <==================
	-----------------------------------------------------------
	 SCS Same-Spin Scale       =       0.3333333333333333 [-]
	 SCS Opposite-Spin Scale   =       1.2000000000000000 [-]
	 SCS Same-Spin Energy      =      -0.1320993811050274 [Eh]
	 SCS Opposite-Spin Energy  =      -1.4875102850988837 [Eh]
	 SCS Correlation Energy    =      -1.6196096662039112 [Eh]
	 SCS Total Energy          =    -379.4630655145909941 [Eh]
	-----------------------------------------------------------

  Dipole Moment: [D]
     X:    -2.8813      Y:     0.5991      Z:     0.0030     Total:     2.9429

*** Psi4 exiting successfully. Buy a developer a beer!
