                               Psi4 1.3.2 release

  ==> Input File <==

--------------------------------------------------------------------------
#psi4
#
memory 32 gb

molecule  {
0 1
  O       -1.4640861     0.6420827     0.0124109
  N        0.8840130     0.5088410    -0.0326410
  N        1.9094790    -0.3796650    -0.0187050
  C       -0.3281200    -0.1042590     0.0031940
  C       -0.1032490    -1.4732180     0.0219040
  C        1.1440790     1.9331410     0.0175110
  C        1.3002790    -1.5787310     0.0070160
  C       -2.6563940    -0.0670400    -0.0135030
  H       -0.8330430    -2.2689870     0.0348200
  H        1.1952250     2.2834660     1.0517640
  H        2.0986020     2.1064990    -0.4777900
  H        0.3432740     2.4564130    -0.5057130
  H        1.9052260    -2.4764620     0.0069120
  H       -3.4562640     0.6719480    -0.0131020
  H       -2.7349570    -0.7043590     0.8727740
  H       -2.7131850    -0.6822330    -0.9168940
units angstrom
no_reorient  #important for SAPT in psi4, default
symmetry c1  #important for SAPT in psi4, default
}

set PROPERTIES_ORIGIN ["COM"]
properties('MP2/aug-cc-pvtz', properties = ['dipole'])
--------------------------------------------------------------------------

    Molecular point group: c1
  Charge       = 0
  Multiplicity = 1
  Basis Set: AUG-CC-PVTZ
    Blend: AUG-CC-PVTZ
  Basis Set: (AUG-CC-PVTZ AUX)
    Blend: AUG-CC-PVTZ-JKFIT

    Orbital Energies [Eh]
    ---------------------

    Doubly Occupied:

       1A    -20.607320     2A    -15.631102     3A    -15.575040
       4A    -11.337364     5A    -11.293346     6A    -11.265614
       7A    -11.252938     8A    -11.215528     9A     -1.445769
      10A     -1.359967    11A     -1.115716    12A     -1.053386
      13A     -0.964439    14A     -0.934573    15A     -0.806325
      16A     -0.774420    17A     -0.728976    18A     -0.687240
      19A     -0.652350    20A     -0.635922    21A     -0.623017
      22A     -0.595637    23A     -0.579032    24A     -0.546631
      25A     -0.545558    26A     -0.516682    27A     -0.496132
      28A     -0.449904    29A     -0.350597    30A     -0.321821

  @DF-RHF Final Energy:  -377.84432594181698

   => Energetics <=

    Nuclear Repulsion Energy =            377.9089147012665535
    One-Electron Energy =               -1262.7817899958838552
    Two-Electron Energy =                 507.0285493528003258
    Total Energy =                       -377.8443259418169760
  Basis Set: (AUG-CC-PVTZ AUX)
    Blend: AUG-CC-PVTZ-RI
    Molecular point group: c1

    Geometry (in Angstrom), charge = 0, multiplicity = 1:

       Center              X                  Y                   Z               Mass
    ------------   -----------------  -----------------  -----------------  -----------------
         O           -1.497555772328     0.659976388023     0.012712894566    15.994914619570
         N            0.850543327672     0.526734688023    -0.032339005434    14.003074004430
         N            1.876009327672    -0.361771311977    -0.018403005434    14.003074004430
         C           -0.361589672328    -0.086365311977     0.003495994566    12.000000000000
         C           -0.136718672328    -1.455324311977     0.022205994566    12.000000000000
         C            1.110609327672     1.951034688023     0.017812994566    12.000000000000
         C            1.266809327672    -1.560837311977     0.007317994566    12.000000000000
         C           -2.689863672328    -0.049146311977    -0.013201005434    12.000000000000
         H           -0.866512672328    -2.251093311977     0.035121994566     1.007825032230
         H            1.161755327672     2.301359688023     1.052065994566     1.007825032230
         H            2.065132327672     2.124392688023    -0.477488005434     1.007825032230
         H            0.309804327672     2.474306688023    -0.505411005434     1.007825032230
         H            1.871756327672    -2.458568311977     0.007213994566     1.007825032230
         H           -3.489733672328     0.689841688023    -0.012800005434     1.007825032230
         H           -2.768426672328    -0.686465311977     0.873075994566     1.007825032230
         H           -2.746654672328    -0.664339311977    -0.916592005434     1.007825032230

  Basis Set: AUG-CC-PVTZ
    Blend: AUG-CC-PVTZ
  Basis Set: (AUG-CC-PVTZ AUX)
    Blend: AUG-CC-PVTZ-JKFIT
	 Reference Energy          =    -377.8443259418169760 [Eh]
	 Singles Energy            =      -0.0000000000000000 [Eh]
	 Same-Spin Energy          =      -0.3961546749924888 [Eh]
	 Opposite-Spin Energy      =      -1.2383962458327755 [Eh]
	 Correlation Energy        =      -1.6345509208252644 [Eh]
	 Total Energy              =    -379.4788768626422666 [Eh]

	 ================> DF-SCS-MP2 Energies <==================
	-----------------------------------------------------------
	 SCS Same-Spin Scale       =       0.3333333333333333 [-]
	 SCS Opposite-Spin Scale   =       1.2000000000000000 [-]
	 SCS Same-Spin Energy      =      -0.1320515583308296 [Eh]
	 SCS Opposite-Spin Energy  =      -1.4860754949993307 [Eh]
	 SCS Correlation Energy    =      -1.6181270533301602 [Eh]
	 SCS Total Energy          =    -379.4624529951471459 [Eh]
	-----------------------------------------------------------

  Dipole Moment: [D]
     X:    -2.8370      Y:     0.7312      Z:     0.0029     Total:     2.9297

*** Psi4 exiting successfully. Buy a developer a beer!
