                               Psi4 1.3.2 release

  ==> Input File <==

--------------------------------------------------------------------------
#psi4
#
memory 32 gb

molecule  {
0 1
  O       -1.4373610     0.6812660     0.0112400
  N        0.8840130     0.5088410    -0.0326410
  N        1.9850524    -0.4451449    -0.0176780
  C       -0.3281200    -0.1042590     0.0031940
  C       -0.1032490    -1.4732180     0.0219040
  C        1.1440790     1.9331410     0.0175110
  C        1.3002790    -1.5787310     0.0070160
  C       -2.6563940    -0.0670400    -0.0135030
  H       -0.8330430    -2.2689870     0.0348200
  H        1.1952250     2.2834660     1.0517640
  H        2.0986020     2.1064990    -0.4777900
  H        0.3432740     2.4564130    -0.5057130
  H        1.9052260    -2.4764620     0.0069120
  H       -3.4562640     0.6719480    -0.0131020
  H       -2.7349570    -0.7043590     0.8727740
  H       -2.7131850    -0.6822330    -0.9168940
units angstrom
no_reorient  #important for SAPT in psi4, default
symmetry c1  #important for SAPT in psi4, default
}

set PROPERTIES_ORIGIN ["COM"]
properties('MP2/aug-cc-pvtz', properties = ['dipole'])
--------------------------------------------------------------------------

    Molecular point group: c1
  Charge       = 0
  Multiplicity = 1
  Basis Set: AUG-CC-PVTZ
    Blend: AUG-CC-PVTZ
  Basis Set: (AUG-CC-PVTZ AUX)
    Blend: AUG-CC-PVTZ-JKFIT

    Orbital Energies [Eh]
    ---------------------

    Doubly Occupied:

       1A    -20.614319     2A    -15.619570     3A    -15.581038
       4A    -11.344702     5A    -11.300270     6A    -11.260924
       7A    -11.257389     8A    -11.214614     9A     -1.438989
      10A     -1.326959    11A     -1.121170    12A     -1.046853
      13A     -0.967126    14A     -0.928121    15A     -0.793367
      16A     -0.774664    17A     -0.721186    18A     -0.681621
      19A     -0.647316    20A     -0.625514    21A     -0.620962
      22A     -0.592753    23A     -0.571353    24A     -0.543122
      25A     -0.535054    26A     -0.525321    27A     -0.500182
      28A     -0.456991    29A     -0.352940    30A     -0.326948

  @DF-RHF Final Energy:  -377.83522144983345

   => Energetics <=

    Nuclear Repulsion Energy =            375.2337255490599546
    One-Electron Energy =               -1257.5552193504997831
    Two-Electron Energy =                 504.4862723516063738
    Total Energy =                       -377.8352214498334547
  Basis Set: (AUG-CC-PVTZ AUX)
    Blend: AUG-CC-PVTZ-RI
    Molecular point group: c1

    Geometry (in Angstrom), charge = 0, multiplicity = 1:

       Center              X                  Y                   Z               Mass
    ------------   -----------------  -----------------  -----------------  -----------------
         O           -1.484088543501     0.701749165647     0.011580787591    15.994914619570
         N            0.837285456499     0.529324165647    -0.032300212409    14.003074004430
         N            1.938324856499    -0.424661734353    -0.017337212409    14.003074004430
         C           -0.374847543501    -0.083775834353     0.003534787591    12.000000000000
         C           -0.149976543501    -1.452734834353     0.022244787591    12.000000000000
         C            1.097351456499     1.953624165647     0.017851787591    12.000000000000
         C            1.253551456499    -1.558247834353     0.007356787591    12.000000000000
         C           -2.703121543501    -0.046556834353    -0.013162212409    12.000000000000
         H           -0.879770543501    -2.248503834353     0.035160787591     1.007825032230
         H            1.148497456499     2.303949165647     1.052104787591     1.007825032230
         H            2.051874456499     2.126982165647    -0.477449212409     1.007825032230
         H            0.296546456499     2.476896165647    -0.505372212409     1.007825032230
         H            1.858498456499    -2.455978834353     0.007252787591     1.007825032230
         H           -3.502991543501     0.692431165647    -0.012761212409     1.007825032230
         H           -2.781684543501    -0.683875834353     0.873114787591     1.007825032230
         H           -2.759912543501    -0.661749834353    -0.916553212409     1.007825032230

  Basis Set: AUG-CC-PVTZ
    Blend: AUG-CC-PVTZ
  Basis Set: (AUG-CC-PVTZ AUX)
    Blend: AUG-CC-PVTZ-JKFIT
	 Reference Energy          =    -377.8352214498334547 [Eh]
	 Singles Energy            =      -0.0000000000000000 [Eh]
	 Same-Spin Energy          =      -0.3955275621912142 [Eh]
	 Opposite-Spin Energy      =      -1.2406024390518273 [Eh]
	 Correlation Energy        =      -1.6361300012430415 [Eh]
	 Total Energy              =    -379.4713514510764867 [Eh]

	 ================> DF-SCS-MP2 Energies <==================
	-----------------------------------------------------------
	 SCS Same-Spin Scale       =       0.3333333333333333 [-]
	 SCS Opposite-Spin Scale   =       1.2000000000000000 [-]
	 SCS Same-Spin Energy      =      -0.1318425207304047 [Eh]
	 SCS Opposite-Spin Energy  =      -1.4887229268621927 [Eh]
	 SCS Correlation Energy    =      -1.6205654475925975 [Eh]
	 SCS Total Energy          =    -379.4557868974260373 [Eh]
	-----------------------------------------------------------

  Dipole Moment: [D]
     X:    -3.1140      Y:     0.5836      Z:     0.0061     Total:     3.1682

*** Psi4 exiting successfully. Buy a developer a beer!
