                               Psi4 1.4a3.dev225

  ==> Input File <==

--------------------------------------------------------------------------
#psi4
#
memory 32 gb

molecule  {
0 1
  O       -1.4373610     0.6812660     0.0112400
  N        0.8840130     0.5088410    -0.0326410
  N        1.8943643    -0.3665690    -0.0189104
  C       -0.3281200    -0.1042590     0.0031940
  C       -0.1032490    -1.4732180     0.0219040
  C        1.1440790     1.9331410     0.0175110
  C        1.3002790    -1.5787310     0.0070160
  C       -2.6563940    -0.0670400    -0.0135030
  H       -0.8330430    -2.2689870     0.0348200
  H        1.1952250     2.2834660     1.0517640
  H        2.0986020     2.1064990    -0.4777900
  H        0.3432740     2.4564130    -0.5057130
  H        1.9052260    -2.4764620     0.0069120
  H       -3.4562640     0.6719480    -0.0131020
  H       -2.7349570    -0.7043590     0.8727740
  H       -2.7131850    -0.6822330    -0.9168940
units angstrom
no_reorient  #important for SAPT in psi4, default
symmetry c1  #important for SAPT in psi4, default
}

set PROPERTIES_ORIGIN ["COM"]
properties('MP2/aug-cc-pvtz', properties = ['dipole'])
--------------------------------------------------------------------------

    Molecular point group: c1
  Charge       = 0
  Multiplicity = 1
  Basis Set: AUG-CC-PVTZ
    Blend: AUG-CC-PVTZ
  Basis Set: (AUG-CC-PVTZ AUX)
    Blend: AUG-CC-PVTZ-JKFIT

    Orbital Energies [Eh]
    ---------------------

    Doubly Occupied:

       1A    -20.607965     2A    -15.630287     3A    -15.572593
       4A    -11.333356     5A    -11.297493     6A    -11.264775
       7A    -11.251096     8A    -11.215994     9A     -1.436577
      10A     -1.363200    11A     -1.112825    12A     -1.050380
      13A     -0.964005    14A     -0.934792    15A     -0.807367
      16A     -0.770163    17A     -0.727272    18A     -0.682237
      19A     -0.644255    20A     -0.634584    21A     -0.621224
      22A     -0.594145    23A     -0.578680    24A     -0.547306
      25A     -0.546408    26A     -0.523253    27A     -0.501139
      28A     -0.446077    29A     -0.350156    30A     -0.318335

  @DF-RHF Final Energy:  -377.84384190641089

   => Energetics <=

    Nuclear Repulsion Energy =            377.9615241104877441
    One-Electron Energy =               -1262.9548580490368295
    Two-Electron Energy =                 507.1494920321381983
    Total Energy =                       -377.8438419064108871
  Basis Set: (AUG-CC-PVTZ AUX)
    Blend: AUG-CC-PVTZ-RI
    Molecular point group: c1

    Geometry (in Angstrom), charge = 0, multiplicity = 1:

       Center              X                  Y                   Z               Mass
    ------------   -----------------  -----------------  -----------------  -----------------
         O           -1.472756483287     0.691930602570     0.011734783882    15.994914619570
         N            0.848617516713     0.519505602570    -0.032146216118    14.003074004430
         N            1.858968816713    -0.355904397430    -0.018415616118    14.003074004430
         C           -0.363515483287    -0.093594397430     0.003688783882    12.000000000000
         C           -0.138644483287    -1.462553397430     0.022398783882    12.000000000000
         C            1.108683516713     1.943805602570     0.018005783882    12.000000000000
         C            1.264883516713    -1.568066397430     0.007510783882    12.000000000000
         C           -2.691789483287    -0.056375397430    -0.013008216118    12.000000000000
         H           -0.868438483287    -2.258322397430     0.035314783882     1.007825032230
         H            1.159829516713     2.294130602570     1.052258783882     1.007825032230
         H            2.063206516713     2.117163602570    -0.477295216118     1.007825032230
         H            0.307878516713     2.467077602570    -0.505218216118     1.007825032230
         H            1.869830516713    -2.465797397430     0.007406783882     1.007825032230
         H           -3.491659483287     0.682612602570    -0.012607216118     1.007825032230
         H           -2.770352483287    -0.693694397430     0.873268783882     1.007825032230
         H           -2.748580483287    -0.671568397430    -0.916399216118     1.007825032230

  Basis Set: AUG-CC-PVTZ
    Blend: AUG-CC-PVTZ
  Basis Set: (AUG-CC-PVTZ AUX)
    Blend: AUG-CC-PVTZ-JKFIT
	 Reference Energy          =    -377.8438419064108871 [Eh]
	 Singles Energy            =      -0.0000000000000000 [Eh]
	 Same-Spin Energy          =      -0.3966654035796110 [Eh]
	 Opposite-Spin Energy      =      -1.2395097525000744 [Eh]
	 Correlation Energy        =      -1.6361751560796853 [Eh]
	 Total Energy              =    -379.4800170624905604 [Eh]

	 ================> DF-SCS-MP2 Energies <==================
	-----------------------------------------------------------
	 SCS Same-Spin Scale       =       0.3333333333333333 [-]
	 SCS Opposite-Spin Scale   =       1.2000000000000000 [-]
	 SCS Same-Spin Energy      =      -0.1322218011932036 [Eh]
	 SCS Opposite-Spin Energy  =      -1.4874117030000893 [Eh]
	 SCS Correlation Energy    =      -1.6196335041932930 [Eh]
	 SCS Total Energy          =    -379.4634754106041896 [Eh]
	-----------------------------------------------------------

  Dipole Moment: [D]
     X:    -2.9706      Y:     0.6583      Z:     0.0024     Total:     3.0427

*** Psi4 exiting successfully. Buy a developer a beer!
