                               Psi4 1.4a3.dev225

  ==> Input File <==

--------------------------------------------------------------------------
#psi4
#
memory 32 gb

molecule  {
0 1
  O       -1.4373610     0.6812660     0.0112400
  N        0.8840130     0.5088410    -0.0326410
  N        1.9094790    -0.3796650    -0.0187050
  C       -0.3689238    -0.0753632     0.0034900
  C       -0.1032490    -1.4732180     0.0219040
  C        1.1440790     1.9331410     0.0175110
  C        1.3002790    -1.5787310     0.0070160
  C       -2.6563940    -0.0670400    -0.0135030
  H       -0.8330430    -2.2689870     0.0348200
  H        1.1952250     2.2834660     1.0517640
  H        2.0986020     2.1064990    -0.4777900
  H        0.3432740     2.4564130    -0.5057130
  H        1.9052260    -2.4764620     0.0069120
  H       -3.4562640     0.6719480    -0.0131020
  H       -2.7349570    -0.7043590     0.8727740
  H       -2.7131850    -0.6822330    -0.9168940
units angstrom
no_reorient  #important for SAPT in psi4, default
symmetry c1  #important for SAPT in psi4, default
}

set PROPERTIES_ORIGIN ["COM"]
properties('MP2/aug-cc-pvtz', properties = ['dipole'])
--------------------------------------------------------------------------

    Molecular point group: c1
  Charge       = 0
  Multiplicity = 1
  Basis Set: AUG-CC-PVTZ
    Blend: AUG-CC-PVTZ
  Basis Set: (AUG-CC-PVTZ AUX)
    Blend: AUG-CC-PVTZ-JKFIT

    Orbital Energies [Eh]
    ---------------------

    Doubly Occupied:

       1A    -20.617746     2A    -15.626079     3A    -15.571383
       4A    -11.340562     5A    -11.303969     6A    -11.261453
       7A    -11.249961     8A    -11.216191     9A     -1.460640
      10A     -1.350239    11A     -1.110359    12A     -1.042388
      13A     -0.971819    14A     -0.930301    15A     -0.799955
      16A     -0.779684    17A     -0.725816    18A     -0.690649
      19A     -0.654084    20A     -0.631421    21A     -0.622827
      22A     -0.592679    23A     -0.571129    24A     -0.547034
      25A     -0.544321    26A     -0.524154    27A     -0.507839
      28A     -0.445068    29A     -0.345805    30A     -0.311948

  @DF-RHF Final Energy:  -377.83957982498629

   => Energetics <=

    Nuclear Repulsion Energy =            377.3604786953272310
    One-Electron Energy =               -1261.7051139043960575
    Two-Electron Energy =                 506.5050553840825955
    Total Energy =                       -377.8395798249862878
  Basis Set: (AUG-CC-PVTZ AUX)
    Blend: AUG-CC-PVTZ-RI
    Molecular point group: c1

    Geometry (in Angstrom), charge = 0, multiplicity = 1:

       Center              X                  Y                   Z               Mass
    ------------   -----------------  -----------------  -----------------  -----------------
         O           -1.470275809979     0.690472812073     0.011677421564    15.994914619570
         N            0.851098190021     0.518047812073    -0.032203578436    14.003074004430
         N            1.876564190021    -0.370458187927    -0.018267578436    14.003074004430
         C           -0.401838609979    -0.066156387927     0.003927421564    12.000000000000
         C           -0.136163809979    -1.464011187927     0.022341421564    12.000000000000
         C            1.111164190021     1.942347812073     0.017948421564    12.000000000000
         C            1.267364190021    -1.569524187927     0.007453421564    12.000000000000
         C           -2.689308809979    -0.057833187927    -0.013065578436    12.000000000000
         H           -0.865957809979    -2.259780187927     0.035257421564     1.007825032230
         H            1.162310190021     2.292672812073     1.052201421564     1.007825032230
         H            2.065687190021     2.115705812073    -0.477352578436     1.007825032230
         H            0.310359190021     2.465619812073    -0.505275578436     1.007825032230
         H            1.872311190021    -2.467255187927     0.007349421564     1.007825032230
         H           -3.489178809979     0.681154812073    -0.012664578436     1.007825032230
         H           -2.767871809979    -0.695152187927     0.873211421564     1.007825032230
         H           -2.746099809979    -0.673026187927    -0.916456578436     1.007825032230

  Basis Set: AUG-CC-PVTZ
    Blend: AUG-CC-PVTZ
  Basis Set: (AUG-CC-PVTZ AUX)
    Blend: AUG-CC-PVTZ-JKFIT
	 Reference Energy          =    -377.8395798249862878 [Eh]
	 Singles Energy            =      -0.0000000000000000 [Eh]
	 Same-Spin Energy          =      -0.3968998881679374 [Eh]
	 Opposite-Spin Energy      =      -1.2399074735849136 [Eh]
	 Correlation Energy        =      -1.6368073617528509 [Eh]
	 Total Energy              =    -379.4763871867391458 [Eh]

	 ================> DF-SCS-MP2 Energies <==================
	-----------------------------------------------------------
	 SCS Same-Spin Scale       =       0.3333333333333333 [-]
	 SCS Opposite-Spin Scale   =       1.2000000000000000 [-]
	 SCS Same-Spin Energy      =      -0.1322999627226458 [Eh]
	 SCS Opposite-Spin Energy  =      -1.4878889683018963 [Eh]
	 SCS Correlation Energy    =      -1.6201889310245421 [Eh]
	 SCS Total Energy          =    -379.4597687560108170 [Eh]
	-----------------------------------------------------------

  Dipole Moment: [D]
     X:    -3.3063      Y:     0.7677      Z:     0.0034     Total:     3.3943

*** Psi4 exiting successfully. Buy a developer a beer!
