                               Psi4 1.3.2 release

  ==> Input File <==

--------------------------------------------------------------------------
#psi4
#
memory 32 gb

molecule  {
0 1
  O       -1.4373610     0.6812660     0.0112400
  N        0.8840130     0.5088410    -0.0326410
  N        1.9094790    -0.3796650    -0.0187050
  C       -0.4173236    -0.1493784     0.0058312
  C       -0.1032490    -1.4732180     0.0219040
  C        1.1440790     1.9331410     0.0175110
  C        1.3002790    -1.5787310     0.0070160
  C       -2.6563940    -0.0670400    -0.0135030
  H       -0.8330430    -2.2689870     0.0348200
  H        1.1952250     2.2834660     1.0517640
  H        2.0986020     2.1064990    -0.4777900
  H        0.3432740     2.4564130    -0.5057130
  H        1.9052260    -2.4764620     0.0069120
  H       -3.4562640     0.6719480    -0.0131020
  H       -2.7349570    -0.7043590     0.8727740
  H       -2.7131850    -0.6822330    -0.9168940
units angstrom
no_reorient  #important for SAPT in psi4, default
symmetry c1  #important for SAPT in psi4, default
}

set PROPERTIES_ORIGIN ["COM"]
properties('MP2/aug-cc-pvtz', properties = ['dipole'])
--------------------------------------------------------------------------

    Molecular point group: c1
  Charge       = 0
  Multiplicity = 1
  Basis Set: AUG-CC-PVTZ
    Blend: AUG-CC-PVTZ
  Basis Set: (AUG-CC-PVTZ AUX)
    Blend: AUG-CC-PVTZ-JKFIT

    Orbital Energies [Eh]
    ---------------------

    Doubly Occupied:

       1A    -20.619671     2A    -15.617139     3A    -15.579568
       4A    -11.338790     5A    -11.302984     6A    -11.257425
       7A    -11.249098     8A    -11.218101     9A     -1.459534
      10A     -1.339497    11A     -1.102296    12A     -1.049362
      13A     -0.973919    14A     -0.920612    15A     -0.793553
      16A     -0.780906    17A     -0.724562    18A     -0.689381
      19A     -0.652137    20A     -0.628724    21A     -0.624965
      22A     -0.593753    23A     -0.561995    24A     -0.545866
      25A     -0.541813    26A     -0.529908    27A     -0.506772
      28A     -0.445661    29A     -0.348789    30A     -0.313083

  @DF-RHF Final Energy:  -377.82804526013092

   => Energetics <=

    Nuclear Repulsion Energy =            376.8839299785344679
    One-Electron Energy =               -1260.8042202391106912
    Two-Electron Energy =                 506.0922450004452458
    Total Energy =                       -377.8280452601309207
  Basis Set: (AUG-CC-PVTZ AUX)
    Blend: AUG-CC-PVTZ-RI
    Molecular point group: c1

    Geometry (in Angstrom), charge = 0, multiplicity = 1:

       Center              X                  Y                   Z               Mass
    ------------   -----------------  -----------------  -----------------  -----------------
         O           -1.465093063091     0.698398506960     0.011426721210    15.994914619570
         N            0.856280936909     0.525973506960    -0.032454278790    14.003074004430
         N            1.881746936909    -0.362532493040    -0.018518278790    14.003074004430
         C           -0.445055663091    -0.132245893040     0.006017921210    12.000000000000
         C           -0.130981063091    -1.456085493040     0.022090721210    12.000000000000
         C            1.116346936909     1.950273506960     0.017697721210    12.000000000000
         C            1.272546936909    -1.561598493040     0.007202721210    12.000000000000
         C           -2.684126063091    -0.049907493040    -0.013316278790    12.000000000000
         H           -0.860775063091    -2.251854493040     0.035006721210     1.007825032230
         H            1.167492936909     2.300598506960     1.051950721210     1.007825032230
         H            2.070869936909     2.123631506960    -0.477603278790     1.007825032230
         H            0.315541936909     2.473545506960    -0.505526278790     1.007825032230
         H            1.877493936909    -2.459329493040     0.007098721210     1.007825032230
         H           -3.483996063091     0.689080506960    -0.012915278790     1.007825032230
         H           -2.762689063091    -0.687226493040     0.872960721210     1.007825032230
         H           -2.740917063091    -0.665100493040    -0.916707278790     1.007825032230

  Basis Set: AUG-CC-PVTZ
    Blend: AUG-CC-PVTZ
  Basis Set: (AUG-CC-PVTZ AUX)
    Blend: AUG-CC-PVTZ-JKFIT
	 Reference Energy          =    -377.8280452601309207 [Eh]
	 Singles Energy            =      -0.0000000000000000 [Eh]
	 Same-Spin Energy          =      -0.3978059030636144 [Eh]
	 Opposite-Spin Energy      =      -1.2425111863125922 [Eh]
	 Correlation Energy        =      -1.6403170893762065 [Eh]
	 Total Energy              =    -379.4683623495071174 [Eh]

	 ================> DF-SCS-MP2 Energies <==================
	-----------------------------------------------------------
	 SCS Same-Spin Scale       =       0.3333333333333333 [-]
	 SCS Opposite-Spin Scale   =       1.2000000000000000 [-]
	 SCS Same-Spin Energy      =      -0.1326019676878715 [Eh]
	 SCS Opposite-Spin Energy  =      -1.4910134235751105 [Eh]
	 SCS Correlation Energy    =      -1.6236153912629820 [Eh]
	 SCS Total Energy          =    -379.4516606513939223 [Eh]
	-----------------------------------------------------------

  Dipole Moment: [D]
     X:    -3.3898      Y:     0.5500      Z:     0.0087     Total:     3.4342

*** Psi4 exiting successfully. Buy a developer a beer!
