                               Psi4 1.4a3.dev225

  ==> Input File <==

--------------------------------------------------------------------------
#psi4
#
memory 32 gb

molecule  {
0 1
  O       -1.4373610     0.6812660     0.0112400
  N        0.8840130     0.5088410    -0.0326410
  N        1.9094790    -0.3796650    -0.0187050
  C       -0.3281200    -0.1042590     0.0031940
  C       -0.1032490    -1.4732180     0.0219040
  C        1.1440790     1.9331410     0.0175110
  C        1.3002790    -1.5787310     0.0070160
  C       -2.6563940    -0.0670400    -0.0135030
  H       -0.7992507    -2.2321398     0.0342219
  H        1.1952250     2.2834660     1.0517640
  H        2.0986020     2.1064990    -0.4777900
  H        0.3432740     2.4564130    -0.5057130
  H        1.9052260    -2.4764620     0.0069120
  H       -3.4562640     0.6719480    -0.0131020
  H       -2.7349570    -0.7043590     0.8727740
  H       -2.7131850    -0.6822330    -0.9168940
units angstrom
no_reorient  #important for SAPT in psi4, default
symmetry c1  #important for SAPT in psi4, default
}

set PROPERTIES_ORIGIN ["COM"]
properties('MP2/aug-cc-pvtz', properties = ['dipole'])
--------------------------------------------------------------------------

    Molecular point group: c1
  Charge       = 0
  Multiplicity = 1
  Basis Set: AUG-CC-PVTZ
    Blend: AUG-CC-PVTZ
  Basis Set: (AUG-CC-PVTZ AUX)
    Blend: AUG-CC-PVTZ-JKFIT

    Orbital Energies [Eh]
    ---------------------

    Doubly Occupied:

       1A    -20.609180     2A    -15.628204     3A    -15.573455
       4A    -11.335179     5A    -11.298210     6A    -11.263992
       7A    -11.251757     8A    -11.209916     9A     -1.436774
      10A     -1.356094    11A     -1.113989    12A     -1.050361
      13A     -0.965289    14A     -0.934212    15A     -0.806988
      16A     -0.771810    17A     -0.728626    18A     -0.681933
      19A     -0.648528    20A     -0.632896    21A     -0.623703
      22A     -0.594519    23A     -0.579038    24A     -0.546244
      25A     -0.545170    26A     -0.524516    27A     -0.500990
      28A     -0.448212    29A     -0.349482    30A     -0.320616

  @DF-RHF Final Energy:  -377.84303421897062

   => Energetics <=

    Nuclear Repulsion Energy =            377.7517722490756569
    One-Electron Energy =               -1262.5298477858575552
    Two-Electron Energy =                 506.9350413178112831
    Total Energy =                       -377.8430342189706153
  Basis Set: (AUG-CC-PVTZ AUX)
    Blend: AUG-CC-PVTZ-RI
    Molecular point group: c1

    Geometry (in Angstrom), charge = 0, multiplicity = 1:

       Center              X                  Y                   Z               Mass
    ------------   -----------------  -----------------  -----------------  -----------------
         O           -1.474949067236     0.693235652957     0.011714496742    15.994914619570
         N            0.846424932764     0.520810652957    -0.032166503258    14.003074004430
         N            1.871890932764    -0.367695347043    -0.018230503258    14.003074004430
         C           -0.365708067236    -0.092289347043     0.003668496742    12.000000000000
         C           -0.140837067236    -1.461248347043     0.022378496742    12.000000000000
         C            1.106490932764     1.945110652957     0.017985496742    12.000000000000
         C            1.262690932764    -1.566761347043     0.007490496742    12.000000000000
         C           -2.693982067236    -0.055070347043    -0.013028503258    12.000000000000
         H           -0.836838767236    -2.220170147043     0.034696396742     1.007825032230
         H            1.157636932764     2.295435652957     1.052238496742     1.007825032230
         H            2.061013932764     2.118468652957    -0.477315503258     1.007825032230
         H            0.305685932764     2.468382652957    -0.505238503258     1.007825032230
         H            1.867637932764    -2.464492347043     0.007386496742     1.007825032230
         H           -3.493852067236     0.683917652957    -0.012627503258     1.007825032230
         H           -2.772545067236    -0.692389347043     0.873248496742     1.007825032230
         H           -2.750773067236    -0.670263347043    -0.916419503258     1.007825032230

  Basis Set: AUG-CC-PVTZ
    Blend: AUG-CC-PVTZ
  Basis Set: (AUG-CC-PVTZ AUX)
    Blend: AUG-CC-PVTZ-JKFIT
	 Reference Energy          =    -377.8430342189706153 [Eh]
	 Singles Energy            =      -0.0000000000000000 [Eh]
	 Same-Spin Energy          =      -0.3963410965880380 [Eh]
	 Opposite-Spin Energy      =      -1.2393592695380566 [Eh]
	 Correlation Energy        =      -1.6357003661260947 [Eh]
	 Total Energy              =    -379.4787345850967313 [Eh]

	 ================> DF-SCS-MP2 Energies <==================
	-----------------------------------------------------------
	 SCS Same-Spin Scale       =       0.3333333333333333 [-]
	 SCS Opposite-Spin Scale   =       1.2000000000000000 [-]
	 SCS Same-Spin Energy      =      -0.1321136988626793 [Eh]
	 SCS Opposite-Spin Energy  =      -1.4872311234456679 [Eh]
	 SCS Correlation Energy    =      -1.6193448223083471 [Eh]
	 SCS Total Energy          =    -379.4623790412789504 [Eh]
	-----------------------------------------------------------

  Dipole Moment: [D]
     X:    -3.0044      Y:     0.6465      Z:     0.0031     Total:     3.0732

*** Psi4 exiting successfully. Buy a developer a beer!
