                               Psi4 1.4a3.dev225

  ==> Input File <==

--------------------------------------------------------------------------
#psi4
#
memory 32 gb

molecule  {
0 1
  O       -1.4373610     0.6812660     0.0112400
  N        0.8840130     0.5088410    -0.0326410
  N        1.9094790    -0.3796650    -0.0187050
  C       -0.3281200    -0.1042590     0.0031940
  C       -0.1032490    -1.4732180     0.0219040
  C        1.1440790     1.9331410     0.0175110
  C        1.3002790    -1.5787310     0.0070160
  C       -2.6563940    -0.0670400    -0.0135030
  H       -0.8668353    -2.3058342     0.0354181
  H        1.1952250     2.2834660     1.0517640
  H        2.0986020     2.1064990    -0.4777900
  H        0.3432740     2.4564130    -0.5057130
  H        1.9052260    -2.4764620     0.0069120
  H       -3.4562640     0.6719480    -0.0131020
  H       -2.7349570    -0.7043590     0.8727740
  H       -2.7131850    -0.6822330    -0.9168940
units angstrom
no_reorient  #important for SAPT in psi4, default
symmetry c1  #important for SAPT in psi4, default
}

set PROPERTIES_ORIGIN ["COM"]
properties('MP2/aug-cc-pvtz', properties = ['dipole'])
--------------------------------------------------------------------------

    Molecular point group: c1
  Charge       = 0
  Multiplicity = 1
  Basis Set: AUG-CC-PVTZ
    Blend: AUG-CC-PVTZ
  Basis Set: (AUG-CC-PVTZ AUX)
    Blend: AUG-CC-PVTZ-JKFIT

    Orbital Energies [Eh]
    ---------------------

    Doubly Occupied:

       1A    -20.609177     2A    -15.628767     3A    -15.574086
       4A    -11.335932     5A    -11.297830     6A    -11.264308
       7A    -11.252604     8A    -11.221269     9A     -1.436824
      10A     -1.356652    11A     -1.114198    12A     -1.049025
      13A     -0.963563    14A     -0.933684    15A     -0.803170
      16A     -0.770558    17A     -0.724367    18A     -0.681985
      19A     -0.642146    20A     -0.633074    21A     -0.617821
      22A     -0.593199    23A     -0.575326    24A     -0.546023
      25A     -0.544568    26A     -0.522717    27A     -0.501014
      28A     -0.448264    29A     -0.349915    30A     -0.321069

  @DF-RHF Final Energy:  -377.84134339439214

   => Energetics <=

    Nuclear Repulsion Energy =            377.2448871155712595
    One-Electron Energy =               -1261.5461916283868504
    Two-Electron Energy =                 506.4599611184234504
    Total Energy =                       -377.8413433943921405
  Basis Set: (AUG-CC-PVTZ AUX)
    Blend: AUG-CC-PVTZ-RI
    Molecular point group: c1

    Geometry (in Angstrom), charge = 0, multiplicity = 1:

       Center              X                  Y                   Z               Mass
    ------------   -----------------  -----------------  -----------------  -----------------
         O           -1.474341256908     0.693898410707     0.011703738925    15.994914619570
         N            0.847032743092     0.521473410707    -0.032177261075    14.003074004430
         N            1.872498743092    -0.367032589293    -0.018241261075    14.003074004430
         C           -0.365100256908    -0.091626589293     0.003657738925    12.000000000000
         C           -0.140229256908    -1.460585589293     0.022367738925    12.000000000000
         C            1.107098743092     1.945773410707     0.017974738925    12.000000000000
         C            1.263298743092    -1.566098589293     0.007479738925    12.000000000000
         C           -2.693374256908    -0.054407589293    -0.013039261075    12.000000000000
         H           -0.903815556908    -2.293201789293     0.035881838925     1.007825032230
         H            1.158244743092     2.296098410707     1.052227738925     1.007825032230
         H            2.061621743092     2.119131410707    -0.477326261075     1.007825032230
         H            0.306293743092     2.469045410707    -0.505249261075     1.007825032230
         H            1.868245743092    -2.463829589293     0.007375738925     1.007825032230
         H           -3.493244256908     0.684580410707    -0.012638261075     1.007825032230
         H           -2.771937256908    -0.691726589293     0.873237738925     1.007825032230
         H           -2.750165256908    -0.669600589293    -0.916430261075     1.007825032230

  Basis Set: AUG-CC-PVTZ
    Blend: AUG-CC-PVTZ
  Basis Set: (AUG-CC-PVTZ AUX)
    Blend: AUG-CC-PVTZ-JKFIT
	 Reference Energy          =    -377.8413433943921405 [Eh]
	 Singles Energy            =      -0.0000000000000000 [Eh]
	 Same-Spin Energy          =      -0.3965432151672147 [Eh]
	 Opposite-Spin Energy      =      -1.2399743144229436 [Eh]
	 Correlation Energy        =      -1.6365175295901584 [Eh]
	 Total Energy              =    -379.4778609239822913 [Eh]

	 ================> DF-SCS-MP2 Energies <==================
	-----------------------------------------------------------
	 SCS Same-Spin Scale       =       0.3333333333333333 [-]
	 SCS Opposite-Spin Scale   =       1.2000000000000000 [-]
	 SCS Same-Spin Energy      =      -0.1321810717224049 [Eh]
	 SCS Opposite-Spin Energy  =      -1.4879691773075323 [Eh]
	 SCS Correlation Energy    =      -1.6201502490299371 [Eh]
	 SCS Total Energy          =    -379.4614936434221022 [Eh]
	-----------------------------------------------------------

  Dipole Moment: [D]
     X:    -2.9912      Y:     0.6475      Z:     0.0029     Total:     3.0604

*** Psi4 exiting successfully. Buy a developer a beer!
