                               Psi4 1.3.2 release

  ==> Input File <==

--------------------------------------------------------------------------
#psi4
#
memory 32 gb

molecule  {
0 1
  O       -1.4373610     0.6812660     0.0112400
  N        0.8996774     0.5265981    -0.0330449
  N        1.9094790    -0.3796650    -0.0187050
  C       -0.3281200    -0.1042590     0.0031940
  C       -0.1032490    -1.4732180     0.0219040
  C        1.1440790     1.9331410     0.0175110
  C        1.3002790    -1.5787310     0.0070160
  C       -2.6563940    -0.0670400    -0.0135030
  H       -0.8330430    -2.2689870     0.0348200
  H        1.1952250     2.2834660     1.0517640
  H        2.0986020     2.1064990    -0.4777900
  H        0.3432740     2.4564130    -0.5057130
  H        1.9052260    -2.4764620     0.0069120
  H       -3.4562640     0.6719480    -0.0131020
  H       -2.7349570    -0.7043590     0.8727740
  H       -2.7131850    -0.6822330    -0.9168940
units angstrom
no_reorient  #important for SAPT in psi4, default
symmetry c1  #important for SAPT in psi4, default
}

set PROPERTIES_ORIGIN ["COM"]
properties('MP2/aug-cc-pvtz', properties = ['dipole'])
--------------------------------------------------------------------------

    Molecular point group: c1
  Charge       = 0
  Multiplicity = 1
  Basis Set: AUG-CC-PVTZ
    Blend: AUG-CC-PVTZ
  Basis Set: (AUG-CC-PVTZ AUX)
    Blend: AUG-CC-PVTZ-JKFIT

    Orbital Energies [Eh]
    ---------------------

    Doubly Occupied:

       1A    -20.609401     2A    -15.628221     3A    -15.574841
       4A    -11.337612     5A    -11.298184     6A    -11.262074
       7A    -11.252681     8A    -11.217536     9A     -1.435981
      10A     -1.354207    11A     -1.117238    12A     -1.047344
      13A     -0.965402    14A     -0.932434    15A     -0.802901
      16A     -0.771960    17A     -0.726323    18A     -0.681334
      19A     -0.645915    20A     -0.633904    21A     -0.622509
      22A     -0.595061    23A     -0.580012    24A     -0.544406
      25A     -0.543878    26A     -0.524154    27A     -0.500866
      28A     -0.445872    29A     -0.350037    30A     -0.319294

  @DF-RHF Final Energy:  -377.84208221398438

   => Energetics <=

    Nuclear Repulsion Energy =            377.1849815595001019
    One-Electron Energy =               -1261.4109592520535443
    Two-Electron Energy =                 506.3838954785690589
    Total Energy =                       -377.8420822139843835
  Basis Set: (AUG-CC-PVTZ AUX)
    Blend: AUG-CC-PVTZ-RI
    Molecular point group: c1

    Geometry (in Angstrom), charge = 0, multiplicity = 1:

       Center              X                  Y                   Z               Mass
    ------------   -----------------  -----------------  -----------------  -----------------
         O           -1.476602529400     0.691348168206     0.011759587731    15.994914619570
         N            0.860435870600     0.536680268206    -0.032525312269    14.003074004430
         N            1.870237470600    -0.369582831794    -0.018185412269    14.003074004430
         C           -0.367361529400    -0.094176831794     0.003713587731    12.000000000000
         C           -0.142490529400    -1.463135831794     0.022423587731    12.000000000000
         C            1.104837470600     1.943223168206     0.018030587731    12.000000000000
         C            1.261037470600    -1.568648831794     0.007535587731    12.000000000000
         C           -2.695635529400    -0.056957831794    -0.012983412269    12.000000000000
         H           -0.872284529400    -2.258904831794     0.035339587731     1.007825032230
         H            1.155983470600     2.293548168206     1.052283587731     1.007825032230
         H            2.059360470600     2.116581168206    -0.477270412269     1.007825032230
         H            0.304032470600     2.466495168206    -0.505193412269     1.007825032230
         H            1.865984470600    -2.466379831794     0.007431587731     1.007825032230
         H           -3.495505529400     0.682030168206    -0.012582412269     1.007825032230
         H           -2.774198529400    -0.694276831794     0.873293587731     1.007825032230
         H           -2.752426529400    -0.672150831794    -0.916374412269     1.007825032230

  Basis Set: AUG-CC-PVTZ
    Blend: AUG-CC-PVTZ
  Basis Set: (AUG-CC-PVTZ AUX)
    Blend: AUG-CC-PVTZ-JKFIT
	 Reference Energy          =    -377.8420822139843835 [Eh]
	 Singles Energy            =      -0.0000000000000000 [Eh]
	 Same-Spin Energy          =      -0.3967331927294044 [Eh]
	 Opposite-Spin Energy      =      -1.2401674954962090 [Eh]
	 Correlation Energy        =      -1.6369006882256134 [Eh]
	 Total Energy              =    -379.4789829022100207 [Eh]

	 ================> DF-SCS-MP2 Energies <==================
	-----------------------------------------------------------
	 SCS Same-Spin Scale       =       0.3333333333333333 [-]
	 SCS Opposite-Spin Scale   =       1.2000000000000000 [-]
	 SCS Same-Spin Energy      =      -0.1322443975764681 [Eh]
	 SCS Opposite-Spin Energy  =      -1.4882009945954506 [Eh]
	 SCS Correlation Energy    =      -1.6204453921719186 [Eh]
	 SCS Total Energy          =    -379.4625276061563000 [Eh]
	-----------------------------------------------------------

  Dipole Moment: [D]
     X:    -3.0265      Y:     0.5925      Z:     0.0010     Total:     3.0840

*** Psi4 exiting successfully. Buy a developer a beer!
