                               Psi4 1.4a3.dev225

  ==> Input File <==

--------------------------------------------------------------------------
#psi4
#
memory 32 gb

molecule  {
0 1
  O       -1.4373610     0.6812660     0.0112400
  N        0.8840130     0.5088410    -0.0326410
  N        1.9094790    -0.3796650    -0.0187050
  C       -0.3281200    -0.1042590     0.0031940
  C       -0.0951451    -1.5225523     0.0225783
  C        1.1440790     1.9331410     0.0175110
  C        1.3002790    -1.5787310     0.0070160
  C       -2.6563940    -0.0670400    -0.0135030
  H       -0.8330430    -2.2689870     0.0348200
  H        1.1952250     2.2834660     1.0517640
  H        2.0986020     2.1064990    -0.4777900
  H        0.3432740     2.4564130    -0.5057130
  H        1.9052260    -2.4764620     0.0069120
  H       -3.4562640     0.6719480    -0.0131020
  H       -2.7349570    -0.7043590     0.8727740
  H       -2.7131850    -0.6822330    -0.9168940
units angstrom
no_reorient  #important for SAPT in psi4, default
symmetry c1  #important for SAPT in psi4, default
}

set PROPERTIES_ORIGIN ["COM"]
properties('MP2/aug-cc-pvtz', properties = ['dipole'])
--------------------------------------------------------------------------

    Molecular point group: c1
  Charge       = 0
  Multiplicity = 1
  Basis Set: AUG-CC-PVTZ
    Blend: AUG-CC-PVTZ
  Basis Set: (AUG-CC-PVTZ AUX)
    Blend: AUG-CC-PVTZ-JKFIT

    Orbital Energies [Eh]
    ---------------------

    Doubly Occupied:

       1A    -20.611124     2A    -15.632049     3A    -15.570505
       4A    -11.341936     5A    -11.299054     6A    -11.265406
       7A    -11.251797     8A    -11.217759     9A     -1.437765
      10A     -1.355614    11A     -1.114760    12A     -1.043399
      13A     -0.965490    14A     -0.935847    15A     -0.803805
      16A     -0.772359    17A     -0.726169    18A     -0.682031
      19A     -0.648499    20A     -0.633563    21A     -0.626353
      22A     -0.590071    23A     -0.580977    24A     -0.546465
      25A     -0.544565    26A     -0.519666    27A     -0.501986
      28A     -0.448284    29A     -0.351966    30A     -0.315038

  @DF-RHF Final Energy:  -377.83975332542786

   => Energetics <=

    Nuclear Repulsion Energy =            376.6115356828759673
    One-Electron Energy =               -1260.2339708353945298
    Two-Electron Energy =                 505.7826818270907552
    Total Energy =                       -377.8397533254278642
  Basis Set: (AUG-CC-PVTZ AUX)
    Blend: AUG-CC-PVTZ-RI
    Molecular point group: c1

    Geometry (in Angstrom), charge = 0, multiplicity = 1:

       Center              X                  Y                   Z               Mass
    ------------   -----------------  -----------------  -----------------  -----------------
         O           -1.475512943809     0.698849846839     0.011636912448    15.994914619570
         N            0.845861056191     0.526424846839    -0.032244087552    14.003074004430
         N            1.871327056191    -0.362081153161    -0.018308087552    14.003074004430
         C           -0.366271943809    -0.086675153161     0.003590912448    12.000000000000
         C           -0.133297043809    -1.504968453161     0.022975212448    12.000000000000
         C            1.105927056191     1.950724846839     0.017907912448    12.000000000000
         C            1.262127056191    -1.561147153161     0.007412912448    12.000000000000
         C           -2.694545943809    -0.049456153161    -0.013106087552    12.000000000000
         H           -0.871194943809    -2.251403153161     0.035216912448     1.007825032230
         H            1.157073056191     2.301049846839     1.052160912448     1.007825032230
         H            2.060450056191     2.124082846839    -0.477393087552     1.007825032230
         H            0.305122056191     2.473996846839    -0.505316087552     1.007825032230
         H            1.867074056191    -2.458878153161     0.007308912448     1.007825032230
         H           -3.494415943809     0.689531846839    -0.012705087552     1.007825032230
         H           -2.773108943809    -0.686775153161     0.873170912448     1.007825032230
         H           -2.751336943809    -0.664649153161    -0.916497087552     1.007825032230

  Basis Set: AUG-CC-PVTZ
    Blend: AUG-CC-PVTZ
  Basis Set: (AUG-CC-PVTZ AUX)
    Blend: AUG-CC-PVTZ-JKFIT
	 Reference Energy          =    -377.8397533254278642 [Eh]
	 Singles Energy            =      -0.0000000000000000 [Eh]
	 Same-Spin Energy          =      -0.3967351751222615 [Eh]
	 Opposite-Spin Energy      =      -1.2402565501359564 [Eh]
	 Correlation Energy        =      -1.6369917252582178 [Eh]
	 Total Energy              =    -379.4767450506860769 [Eh]

	 ================> DF-SCS-MP2 Energies <==================
	-----------------------------------------------------------
	 SCS Same-Spin Scale       =       0.3333333333333333 [-]
	 SCS Opposite-Spin Scale   =       1.2000000000000000 [-]
	 SCS Same-Spin Energy      =      -0.1322450583740871 [Eh]
	 SCS Opposite-Spin Energy  =      -1.4883078601631476 [Eh]
	 SCS Correlation Energy    =      -1.6205529185372347 [Eh]
	 SCS Total Energy          =    -379.4603062439650785 [Eh]
	-----------------------------------------------------------

  Dipole Moment: [D]
     X:    -3.0329      Y:     0.7300      Z:     0.0046     Total:     3.1195

*** Psi4 exiting successfully. Buy a developer a beer!
