                               Psi4 1.4a3.dev225

  ==> Input File <==

--------------------------------------------------------------------------
#psi4
#
memory 32 gb

molecule  {
0 1
  O       -1.4373610     0.6812660     0.0112400
  N        0.8840130     0.5088410    -0.0326410
  N        1.9094790    -0.3796650    -0.0187050
  C       -0.3281200    -0.1042590     0.0031940
  C       -0.1032490    -1.4732180     0.0219040
  C        1.1351033     1.8839837     0.0157801
  C        1.3002790    -1.5787310     0.0070160
  C       -2.6563940    -0.0670400    -0.0135030
  H       -0.8330430    -2.2689870     0.0348200
  H        1.1952250     2.2834660     1.0517640
  H        2.0986020     2.1064990    -0.4777900
  H        0.3432740     2.4564130    -0.5057130
  H        1.9052260    -2.4764620     0.0069120
  H       -3.4562640     0.6719480    -0.0131020
  H       -2.7349570    -0.7043590     0.8727740
  H       -2.7131850    -0.6822330    -0.9168940
units angstrom
no_reorient  #important for SAPT in psi4, default
symmetry c1  #important for SAPT in psi4, default
}

set PROPERTIES_ORIGIN ["COM"]
properties('MP2/aug-cc-pvtz', properties = ['dipole'])
--------------------------------------------------------------------------

    Molecular point group: c1
  Charge       = 0
  Multiplicity = 1
  Basis Set: AUG-CC-PVTZ
    Blend: AUG-CC-PVTZ
  Basis Set: (AUG-CC-PVTZ AUX)
    Blend: AUG-CC-PVTZ-JKFIT

    Orbital Energies [Eh]
    ---------------------

    Doubly Occupied:

       1A    -20.610433     2A    -15.629433     3A    -15.575155
       4A    -11.337680     5A    -11.298815     6A    -11.262973
       7A    -11.254213     8A    -11.217454     9A     -1.438788
      10A     -1.362218    11A     -1.123825    12A     -1.052252
      13A     -0.965293    14A     -0.931388    15A     -0.808150
      16A     -0.772794    17A     -0.730598    18A     -0.683946
      19A     -0.647110    20A     -0.634266    21A     -0.624100
      22A     -0.594076    23A     -0.584928    24A     -0.538437
      25A     -0.535513    26A     -0.524706    27A     -0.500960
      28A     -0.450270    29A     -0.349746    30A     -0.322575

  @DF-RHF Final Energy:  -377.84142607490594

   => Energetics <=

    Nuclear Repulsion Energy =            378.5067135395348146
    One-Electron Energy =               -1263.9720900950073883
    Two-Electron Energy =                 507.6239504805666911
    Total Energy =                       -377.8414260749059395
  Basis Set: (AUG-CC-PVTZ AUX)
    Blend: AUG-CC-PVTZ-RI
    Molecular point group: c1

    Geometry (in Angstrom), charge = 0, multiplicity = 1:

       Center              X                  Y                   Z               Mass
    ------------   -----------------  -----------------  -----------------  -----------------
         O           -1.473684026257     0.698830893327     0.011894466049    15.994914619570
         N            0.847689973743     0.526405893327    -0.031986533951    14.003074004430
         N            1.873155973743    -0.362100106673    -0.018050533951    14.003074004430
         C           -0.364443026257    -0.086694106673     0.003848466049    12.000000000000
         C           -0.139572026257    -1.455653106673     0.022558466049    12.000000000000
         C            1.098780273743     1.901548593327     0.016434566049    12.000000000000
         C            1.263955973743    -1.561166106673     0.007670466049    12.000000000000
         C           -2.692717026257    -0.049475106673    -0.012848533951    12.000000000000
         H           -0.869366026257    -2.251422106673     0.035474466049     1.007825032230
         H            1.158901973743     2.301030893327     1.052418466049     1.007825032230
         H            2.062278973743     2.124063893327    -0.477135533951     1.007825032230
         H            0.306950973743     2.473977893327    -0.505058533951     1.007825032230
         H            1.868902973743    -2.458897106673     0.007566466049     1.007825032230
         H           -3.492587026257     0.689512893327    -0.012447533951     1.007825032230
         H           -2.771280026257    -0.686794106673     0.873428466049     1.007825032230
         H           -2.749508026257    -0.664668106673    -0.916239533951     1.007825032230

  Basis Set: AUG-CC-PVTZ
    Blend: AUG-CC-PVTZ
  Basis Set: (AUG-CC-PVTZ AUX)
    Blend: AUG-CC-PVTZ-JKFIT
	 Reference Energy          =    -377.8414260749059395 [Eh]
	 Singles Energy            =      -0.0000000000000000 [Eh]
	 Same-Spin Energy          =      -0.3967650479052655 [Eh]
	 Opposite-Spin Energy      =      -1.2397065006323618 [Eh]
	 Correlation Energy        =      -1.6364715485376273 [Eh]
	 Total Energy              =    -379.4778976234435390 [Eh]

	 ================> DF-SCS-MP2 Energies <==================
	-----------------------------------------------------------
	 SCS Same-Spin Scale       =       0.3333333333333333 [-]
	 SCS Opposite-Spin Scale   =       1.2000000000000000 [-]
	 SCS Same-Spin Energy      =      -0.1322550159684218 [Eh]
	 SCS Opposite-Spin Energy  =      -1.4876478007588341 [Eh]
	 SCS Correlation Energy    =      -1.6199028167272560 [Eh]
	 SCS Total Energy          =    -379.4613288916331726 [Eh]
	-----------------------------------------------------------

  Dipole Moment: [D]
     X:    -3.0408      Y:     0.4941      Z:    -0.0148     Total:     3.0807

*** Psi4 exiting successfully. Buy a developer a beer!
