                               Psi4 1.3.2 release

  ==> Input File <==

--------------------------------------------------------------------------
#psi4
#
memory 32 gb

molecule  {
0 1
  O       -1.4373610     0.6812660     0.0112400
  N        0.8840130     0.5088410    -0.0326410
  N        1.8938177    -0.3974127    -0.0179330
  C       -0.3281200    -0.1042590     0.0031940
  C       -0.1032490    -1.4732180     0.0219040
  C        1.1440790     1.9331410     0.0175110
  C        1.3002790    -1.5787310     0.0070160
  C       -2.6563940    -0.0670400    -0.0135030
  H       -0.8330430    -2.2689870     0.0348200
  H        1.1952250     2.2834660     1.0517640
  H        2.0986020     2.1064990    -0.4777900
  H        0.3432740     2.4564130    -0.5057130
  H        1.9052260    -2.4764620     0.0069120
  H       -3.4562640     0.6719480    -0.0131020
  H       -2.7349570    -0.7043590     0.8727740
  H       -2.7131850    -0.6822330    -0.9168940
units angstrom
no_reorient  #important for SAPT in psi4, default
symmetry c1  #important for SAPT in psi4, default
}

set PROPERTIES_ORIGIN ["COM"]
properties('MP2/aug-cc-pvtz', properties = ['dipole'])
--------------------------------------------------------------------------

    Molecular point group: c1
  Charge       = 0
  Multiplicity = 1
  Basis Set: AUG-CC-PVTZ
    Blend: AUG-CC-PVTZ
  Basis Set: (AUG-CC-PVTZ AUX)
    Blend: AUG-CC-PVTZ-JKFIT

    Orbital Energies [Eh]
    ---------------------

    Doubly Occupied:

       1A    -20.608714     2A    -15.627369     3A    -15.571109
       4A    -11.334847     5A    -11.297487     6A    -11.264823
       7A    -11.249175     8A    -11.213739     9A     -1.436503
      10A     -1.358551    11A     -1.119278    12A     -1.047826
      13A     -0.963855    14A     -0.935239    15A     -0.804446
      16A     -0.771536    17A     -0.726535    18A     -0.681729
      19A     -0.644167    20A     -0.633254    21A     -0.622016
      22A     -0.593917    23A     -0.578978    24A     -0.547136
      25A     -0.546669    26A     -0.523536    27A     -0.501623
      28A     -0.444653    29A     -0.350247    30A     -0.322138

  @DF-RHF Final Energy:  -377.84576500290598

   => Energetics <=

    Nuclear Repulsion Energy =            377.9352982749978764
    One-Electron Energy =               -1262.9199421139494461
    Two-Electron Energy =                 507.1388788360455919
    Total Energy =                       -377.8457650029059778
  Basis Set: (AUG-CC-PVTZ AUX)
    Blend: AUG-CC-PVTZ-RI
    Molecular point group: c1

    Geometry (in Angstrom), charge = 0, multiplicity = 1:

       Center              X                  Y                   Z               Mass
    ------------   -----------------  -----------------  -----------------  -----------------
         O           -1.472688182108     0.695784720868     0.011612651478    15.994914619570
         N            0.848685817892     0.523359720868    -0.032268348522    14.003074004430
         N            1.858490517892    -0.382893979132    -0.017560348522    14.003074004430
         C           -0.363447182108    -0.089740279132     0.003566651478    12.000000000000
         C           -0.138576182108    -1.458699279132     0.022276651478    12.000000000000
         C            1.108751817892     1.947659720868     0.017883651478    12.000000000000
         C            1.264951817892    -1.564212279132     0.007388651478    12.000000000000
         C           -2.691721182108    -0.052521279132    -0.013130348522    12.000000000000
         H           -0.868370182108    -2.254468279132     0.035192651478     1.007825032230
         H            1.159897817892     2.297984720868     1.052136651478     1.007825032230
         H            2.063274817892     2.121017720868    -0.477417348522     1.007825032230
         H            0.307946817892     2.470931720868    -0.505340348522     1.007825032230
         H            1.869898817892    -2.461943279132     0.007284651478     1.007825032230
         H           -3.491591182108     0.686466720868    -0.012729348522     1.007825032230
         H           -2.770284182108    -0.689840279132     0.873146651478     1.007825032230
         H           -2.748512182108    -0.667714279132    -0.916521348522     1.007825032230

  Basis Set: AUG-CC-PVTZ
    Blend: AUG-CC-PVTZ
  Basis Set: (AUG-CC-PVTZ AUX)
    Blend: AUG-CC-PVTZ-JKFIT
	 Reference Energy          =    -377.8457650029059778 [Eh]
	 Singles Energy            =      -0.0000000000000000 [Eh]
	 Same-Spin Energy          =      -0.3957848667268524 [Eh]
	 Opposite-Spin Energy      =      -1.2382519068149893 [Eh]
	 Correlation Energy        =      -1.6340367735418417 [Eh]
	 Total Energy              =    -379.4798017764478004 [Eh]

	 ================> DF-SCS-MP2 Energies <==================
	-----------------------------------------------------------
	 SCS Same-Spin Scale       =       0.3333333333333333 [-]
	 SCS Opposite-Spin Scale   =       1.2000000000000000 [-]
	 SCS Same-Spin Energy      =      -0.1319282889089508 [Eh]
	 SCS Opposite-Spin Energy  =      -1.4859022881779871 [Eh]
	 SCS Correlation Energy    =      -1.6178305770869379 [Eh]
	 SCS Total Energy          =    -379.4635955799928979 [Eh]
	-----------------------------------------------------------

  Dipole Moment: [D]
     X:    -2.9433      Y:     0.6636      Z:     0.0018     Total:     3.0172

*** Psi4 exiting successfully. Buy a developer a beer!
