                               Psi4 1.3.2 release

  ==> Input File <==

--------------------------------------------------------------------------
#psi4
#
memory 32 gb

molecule  {
0 1
  O       -1.4373610     0.6812660     0.0112400
  N        0.8840130     0.5088410    -0.0326410
  N        1.9094790    -0.3796650    -0.0187050
  C       -0.3281200    -0.1042590     0.0031940
  C       -0.1194567    -1.3745494     0.0205555
  C        1.1440790     1.9331410     0.0175110
  C        1.3002790    -1.5787310     0.0070160
  C       -2.6563940    -0.0670400    -0.0135030
  H       -0.8330430    -2.2689870     0.0348200
  H        1.1952250     2.2834660     1.0517640
  H        2.0986020     2.1064990    -0.4777900
  H        0.3432740     2.4564130    -0.5057130
  H        1.9052260    -2.4764620     0.0069120
  H       -3.4562640     0.6719480    -0.0131020
  H       -2.7349570    -0.7043590     0.8727740
  H       -2.7131850    -0.6822330    -0.9168940
units angstrom
no_reorient  #important for SAPT in psi4, default
symmetry c1  #important for SAPT in psi4, default
}

set PROPERTIES_ORIGIN ["COM"]
properties('MP2/aug-cc-pvtz', properties = ['dipole'])
--------------------------------------------------------------------------

    Molecular point group: c1
  Charge       = 0
  Multiplicity = 1
  Basis Set: AUG-CC-PVTZ
    Blend: AUG-CC-PVTZ
  Basis Set: (AUG-CC-PVTZ AUX)
    Blend: AUG-CC-PVTZ-JKFIT

    Orbital Energies [Eh]
    ---------------------

    Doubly Occupied:

       1A    -20.604794     2A    -15.620937     3A    -15.580736
       4A    -11.320251     5A    -11.295705     6A    -11.261513
       7A    -11.254024     8A    -11.211763     9A     -1.434894
      10A     -1.358241    11A     -1.112367    12A     -1.065927
      13A     -0.962365    14A     -0.929256    15A     -0.810218
      16A     -0.766685    17A     -0.725656    18A     -0.682219
      19A     -0.643107    20A     -0.631813    21A     -0.614707
      22A     -0.598093    23A     -0.566639    24A     -0.547179
      25A     -0.541585    26A     -0.527014    27A     -0.498818
      28A     -0.447453    29A     -0.348561    30A     -0.331770

  @DF-RHF Final Energy:  -377.83161235903879

   => Energetics <=

    Nuclear Repulsion Energy =            379.3513344365026683
    One-Electron Energy =               -1265.7773203503320474
    Two-Electron Energy =                 508.5943735547906499
    Total Energy =                       -377.8316123590387861
  Basis Set: (AUG-CC-PVTZ AUX)
    Blend: AUG-CC-PVTZ-RI
    Molecular point group: c1

    Geometry (in Angstrom), charge = 0, multiplicity = 1:

       Center              X                  Y                   Z               Mass
    ------------   -----------------  -----------------  -----------------  -----------------
         O           -1.472909609307     0.683001401819     0.011853517897    15.994914619570
         N            0.848464390693     0.510576401819    -0.032027482103    14.003074004430
         N            1.873930390693    -0.377929598181    -0.018091482103    14.003074004430
         C           -0.363668609307    -0.102523598181     0.003807517897    12.000000000000
         C           -0.155005309307    -1.372813998181     0.021169017897    12.000000000000
         C            1.108530390693     1.934876401819     0.018124517897    12.000000000000
         C            1.264730390693    -1.576995598181     0.007629517897    12.000000000000
         C           -2.691942609307    -0.065304598181    -0.012889482103    12.000000000000
         H           -0.868591609307    -2.267251598181     0.035433517897     1.007825032230
         H            1.159676390693     2.285201401819     1.052377517897     1.007825032230
         H            2.063053390693     2.108234401819    -0.477176482103     1.007825032230
         H            0.307725390693     2.458148401819    -0.505099482103     1.007825032230
         H            1.869677390693    -2.474726598181     0.007525517897     1.007825032230
         H           -3.491812609307     0.673683401819    -0.012488482103     1.007825032230
         H           -2.770505609307    -0.702623598181     0.873387517897     1.007825032230
         H           -2.748733609307    -0.680497598181    -0.916280482103     1.007825032230

  Basis Set: AUG-CC-PVTZ
    Blend: AUG-CC-PVTZ
  Basis Set: (AUG-CC-PVTZ AUX)
    Blend: AUG-CC-PVTZ-JKFIT
	 Reference Energy          =    -377.8316123590387861 [Eh]
	 Singles Energy            =      -0.0000000000000000 [Eh]
	 Same-Spin Energy          =      -0.3958710378693815 [Eh]
	 Opposite-Spin Energy      =      -1.2388706392279685 [Eh]
	 Correlation Energy        =      -1.6347416770973500 [Eh]
	 Total Energy              =    -379.4663540361361243 [Eh]

	 ================> DF-SCS-MP2 Energies <==================
	-----------------------------------------------------------
	 SCS Same-Spin Scale       =       0.3333333333333333 [-]
	 SCS Opposite-Spin Scale   =       1.2000000000000000 [-]
	 SCS Same-Spin Energy      =      -0.1319570126231271 [Eh]
	 SCS Opposite-Spin Energy  =      -1.4866447670735621 [Eh]
	 SCS Correlation Energy    =      -1.6186017796966892 [Eh]
	 SCS Total Energy          =    -379.4502141387354754 [Eh]
	-----------------------------------------------------------

  Dipole Moment: [D]
     X:    -2.9088      Y:     0.4651      Z:    -0.0004     Total:     2.9457

*** Psi4 exiting successfully. Buy a developer a beer!
