                               Psi4 1.3.2 release

  ==> Input File <==

--------------------------------------------------------------------------
#psi4
#
memory 32 gb

molecule  {
0 1
  O       -1.4373610     0.6812660     0.0112400
  N        0.9156495     0.5440792    -0.0334445
  N        1.9094790    -0.3796650    -0.0187050
  C       -0.3281200    -0.1042590     0.0031940
  C       -0.1032490    -1.4732180     0.0219040
  C        1.1440790     1.9331410     0.0175110
  C        1.3002790    -1.5787310     0.0070160
  C       -2.6563940    -0.0670400    -0.0135030
  H       -0.8330430    -2.2689870     0.0348200
  H        1.1952250     2.2834660     1.0517640
  H        2.0986020     2.1064990    -0.4777900
  H        0.3432740     2.4564130    -0.5057130
  H        1.9052260    -2.4764620     0.0069120
  H       -3.4562640     0.6719480    -0.0131020
  H       -2.7349570    -0.7043590     0.8727740
  H       -2.7131850    -0.6822330    -0.9168940
units angstrom
no_reorient  #important for SAPT in psi4, default
symmetry c1  #important for SAPT in psi4, default
}

set PROPERTIES_ORIGIN ["COM"]
properties('MP2/aug-cc-pvtz', properties = ['dipole'])
--------------------------------------------------------------------------

    Molecular point group: c1
  Charge       = 0
  Multiplicity = 1
  Basis Set: AUG-CC-PVTZ
    Blend: AUG-CC-PVTZ
  Basis Set: (AUG-CC-PVTZ AUX)
    Blend: AUG-CC-PVTZ-JKFIT

    Orbital Energies [Eh]
    ---------------------

    Doubly Occupied:

       1A    -20.609652     2A    -15.627922     3A    -15.575960
       4A    -11.339588     5A    -11.298348     6A    -11.260052
       7A    -11.253235     8A    -11.219363     9A     -1.435280
      10A     -1.352315    11A     -1.121014    12A     -1.045112
      13A     -0.966489    14A     -0.930871    15A     -0.800892
      16A     -0.772789    17A     -0.726328    18A     -0.680824
      19A     -0.647210    20A     -0.635005    21A     -0.624241
      22A     -0.596448    23A     -0.582258    24A     -0.543079
      25A     -0.542054    26A     -0.524503    27A     -0.500707
      28A     -0.443334    29A     -0.350599    30A     -0.317555

  @DF-RHF Final Energy:  -377.83860288680393

   => Energetics <=

    Nuclear Repulsion Energy =            376.8903018458843235
    One-Electron Energy =               -1260.8117628529503236
    Two-Electron Energy =                 506.0828581202620740
    Total Energy =                       -377.8386028868039261
  Basis Set: (AUG-CC-PVTZ AUX)
    Blend: AUG-CC-PVTZ-RI
    Molecular point group: c1

    Geometry (in Angstrom), charge = 0, multiplicity = 1:

       Center              X                  Y                   Z               Mass
    ------------   -----------------  -----------------  -----------------  -----------------
         O           -1.478598345819     0.689163792551     0.011809520316    15.994914619570
         N            0.874412154181     0.551976992551    -0.032874979684    14.003074004430
         N            1.868241654181    -0.371767207449    -0.018135479684    14.003074004430
         C           -0.369357345819    -0.096361207449     0.003763520316    12.000000000000
         C           -0.144486345819    -1.465320207449     0.022473520316    12.000000000000
         C            1.102841654181     1.941038792551     0.018080520316    12.000000000000
         C            1.259041654181    -1.570833207449     0.007585520316    12.000000000000
         C           -2.697631345819    -0.059142207449    -0.012933479684    12.000000000000
         H           -0.874280345819    -2.261089207449     0.035389520316     1.007825032230
         H            1.153987654181     2.291363792551     1.052333520316     1.007825032230
         H            2.057364654181     2.114396792551    -0.477220479684     1.007825032230
         H            0.302036654181     2.464310792551    -0.505143479684     1.007825032230
         H            1.863988654181    -2.468564207449     0.007481520316     1.007825032230
         H           -3.497501345819     0.679845792551    -0.012532479684     1.007825032230
         H           -2.776194345819    -0.696461207449     0.873343520316     1.007825032230
         H           -2.754422345819    -0.674335207449    -0.916324479684     1.007825032230

  Basis Set: AUG-CC-PVTZ
    Blend: AUG-CC-PVTZ
  Basis Set: (AUG-CC-PVTZ AUX)
    Blend: AUG-CC-PVTZ-JKFIT
	 Reference Energy          =    -377.8386028868039261 [Eh]
	 Singles Energy            =      -0.0000000000000000 [Eh]
	 Same-Spin Energy          =      -0.3970666249029526 [Eh]
	 Opposite-Spin Energy      =      -1.2408104862232991 [Eh]
	 Correlation Energy        =      -1.6378771111262518 [Eh]
	 Total Energy              =    -379.4764799979301984 [Eh]

	 ================> DF-SCS-MP2 Energies <==================
	-----------------------------------------------------------
	 SCS Same-Spin Scale       =       0.3333333333333333 [-]
	 SCS Opposite-Spin Scale   =       1.2000000000000000 [-]
	 SCS Same-Spin Energy      =      -0.1323555416343175 [Eh]
	 SCS Opposite-Spin Energy  =      -1.4889725834679590 [Eh]
	 SCS Correlation Energy    =      -1.6213281251022766 [Eh]
	 SCS Total Energy          =    -379.4599310119061784 [Eh]
	-----------------------------------------------------------

  Dipole Moment: [D]
     X:    -3.0551      Y:     0.5401      Z:    -0.0014     Total:     3.1025

*** Psi4 exiting successfully. Buy a developer a beer!
