                               Psi4 1.3.2 release

  ==> Input File <==

--------------------------------------------------------------------------
#psi4
#
memory 32 gb

molecule  {
0 1
  O       -1.3798907     0.7567149     0.0088701
  N        0.8840130     0.5088410    -0.0326410
  N        1.9094790    -0.3796650    -0.0187050
  C       -0.3281200    -0.1042590     0.0031940
  C       -0.1032490    -1.4732180     0.0219040
  C        1.1440790     1.9331410     0.0175110
  C        1.3002790    -1.5787310     0.0070160
  C       -2.6563940    -0.0670400    -0.0135030
  H       -0.8330430    -2.2689870     0.0348200
  H        1.1952250     2.2834660     1.0517640
  H        2.0986020     2.1064990    -0.4777900
  H        0.3432740     2.4564130    -0.5057130
  H        1.9052260    -2.4764620     0.0069120
  H       -3.4562640     0.6719480    -0.0131020
  H       -2.7349570    -0.7043590     0.8727740
  H       -2.7131850    -0.6822330    -0.9168940
units angstrom
no_reorient  #important for SAPT in psi4, default
symmetry c1  #important for SAPT in psi4, default
}

set PROPERTIES_ORIGIN ["COM"]
properties('MP2/aug-cc-pvtz', properties = ['dipole'])
--------------------------------------------------------------------------

    Molecular point group: c1
  Charge       = 0
  Multiplicity = 1
  Basis Set: AUG-CC-PVTZ
    Blend: AUG-CC-PVTZ
  Basis Set: (AUG-CC-PVTZ AUX)
    Blend: AUG-CC-PVTZ-JKFIT

    Orbital Energies [Eh]
    ---------------------

    Doubly Occupied:

       1A    -20.611645     2A    -15.623307     3A    -15.571329
       4A    -11.332521     5A    -11.307778     6A    -11.261204
       7A    -11.250606     8A    -11.216115     9A     -1.422935
      10A     -1.348456    11A     -1.110804    12A     -1.043184
      13A     -0.965101    14A     -0.932992    15A     -0.802563
      16A     -0.764435    17A     -0.720681    18A     -0.673640
      19A     -0.633777    20A     -0.627538    21A     -0.615652
      22A     -0.589971    23A     -0.573994    24A     -0.547608
      25A     -0.543074    26A     -0.532978    27A     -0.507941
      28A     -0.444699    29A     -0.347932    30A     -0.318651

  @DF-RHF Final Energy:  -377.83358376553713

   => Energetics <=

    Nuclear Repulsion Energy =            376.7976264488208926
    One-Electron Energy =               -1260.7761965963952662
    Two-Electron Energy =                 506.1449863820372457
    Total Energy =                       -377.8335837655371279
  Basis Set: (AUG-CC-PVTZ AUX)
    Blend: AUG-CC-PVTZ-RI
    Molecular point group: c1

    Geometry (in Angstrom), charge = 0, multiplicity = 1:

       Center              X                  Y                   Z               Mass
    ------------   -----------------  -----------------  -----------------  -----------------
         O           -1.425377632872     0.758247064542     0.009677475099    15.994914619570
         N            0.838526067128     0.510373164542    -0.031833624901    14.003074004430
         N            1.863992067128    -0.378132835458    -0.017897624901    14.003074004430
         C           -0.373606932872    -0.102726835458     0.004001375099    12.000000000000
         C           -0.148735932872    -1.471685835458     0.022711375099    12.000000000000
         C            1.098592067128     1.934673164542     0.018318375099    12.000000000000
         C            1.254792067128    -1.577198835458     0.007823375099    12.000000000000
         C           -2.701880932872    -0.065507835458    -0.012695624901    12.000000000000
         H           -0.878529932872    -2.267454835458     0.035627375099     1.007825032230
         H            1.149738067128     2.284998164542     1.052571375099     1.007825032230
         H            2.053115067128     2.108031164542    -0.476982624901     1.007825032230
         H            0.297787067128     2.457945164542    -0.504905624901     1.007825032230
         H            1.859739067128    -2.474929835458     0.007719375099     1.007825032230
         H           -3.501750932872     0.673480164542    -0.012294624901     1.007825032230
         H           -2.780443932872    -0.702826835458     0.873581375099     1.007825032230
         H           -2.758671932872    -0.680700835458    -0.916086624901     1.007825032230

  Basis Set: AUG-CC-PVTZ
    Blend: AUG-CC-PVTZ
  Basis Set: (AUG-CC-PVTZ AUX)
    Blend: AUG-CC-PVTZ-JKFIT
	 Reference Energy          =    -377.8335837655371279 [Eh]
	 Singles Energy            =      -0.0000000000000000 [Eh]
	 Same-Spin Energy          =      -0.3973471191558141 [Eh]
	 Opposite-Spin Energy      =      -1.2427205848311633 [Eh]
	 Correlation Energy        =      -1.6400677039869773 [Eh]
	 Total Energy              =    -379.4736514695240999 [Eh]

	 ================> DF-SCS-MP2 Energies <==================
	-----------------------------------------------------------
	 SCS Same-Spin Scale       =       0.3333333333333333 [-]
	 SCS Opposite-Spin Scale   =       1.2000000000000000 [-]
	 SCS Same-Spin Energy      =      -0.1324490397186047 [Eh]
	 SCS Opposite-Spin Energy  =      -1.4912647017973959 [Eh]
	 SCS Correlation Energy    =      -1.6237137415160006 [Eh]
	 SCS Total Energy          =    -379.4572975070531129 [Eh]
	-----------------------------------------------------------

  Dipole Moment: [D]
     X:    -3.2918      Y:     0.4946      Z:     0.0036     Total:     3.3288

*** Psi4 exiting successfully. Buy a developer a beer!
