                               Psi4 1.3.2 release

  ==> Input File <==

--------------------------------------------------------------------------
#psi4
#
memory 32 gb

molecule  {
0 1
  O       -1.4373610     0.6812660     0.0112400
  N        0.8840130     0.5088410    -0.0326410
  N        1.9094790    -0.3796650    -0.0187050
  C       -0.3281200    -0.1042590     0.0031940
  C       -0.1032490    -1.4732180     0.0219040
  C        1.1440790     1.9331410     0.0175110
  C        1.1008529    -1.5637387     0.0091314
  C       -2.6563940    -0.0670400    -0.0135030
  H       -0.8330430    -2.2689870     0.0348200
  H        1.1952250     2.2834660     1.0517640
  H        2.0986020     2.1064990    -0.4777900
  H        0.3432740     2.4564130    -0.5057130
  H        1.9052260    -2.4764620     0.0069120
  H       -3.4562640     0.6719480    -0.0131020
  H       -2.7349570    -0.7043590     0.8727740
  H       -2.7131850    -0.6822330    -0.9168940
units angstrom
no_reorient  #important for SAPT in psi4, default
symmetry c1  #important for SAPT in psi4, default
}

set PROPERTIES_ORIGIN ["COM"]
properties('MP2/aug-cc-pvtz', properties = ['dipole'])
--------------------------------------------------------------------------

    Molecular point group: c1
  Charge       = 0
  Multiplicity = 1
  Basis Set: AUG-CC-PVTZ
    Blend: AUG-CC-PVTZ
  Basis Set: (AUG-CC-PVTZ AUX)
    Blend: AUG-CC-PVTZ-JKFIT

    Orbital Energies [Eh]
    ---------------------

    Doubly Occupied:

       1A    -20.610842     2A    -15.638037     3A    -15.561138
       4A    -11.338021     5A    -11.301662     6A    -11.264943
       7A    -11.242992     8A    -11.205137     9A     -1.439817
      10A     -1.356352    11A     -1.128121    12A     -1.056847
      13A     -0.977985    14A     -0.933952    15A     -0.796609
      16A     -0.776159    17A     -0.729448    18A     -0.685849
      19A     -0.643430    20A     -0.636177    21A     -0.634247
      22A     -0.594675    23A     -0.572749    24A     -0.552362
      25A     -0.534503    26A     -0.502781    27A     -0.487236
      28A     -0.454565    29A     -0.385587    30A     -0.298810

  @DF-RHF Final Energy:  -377.77080144332359

   => Energetics <=

    Nuclear Repulsion Energy =            380.0719410652620809
    One-Electron Energy =               -1267.0034149604371123
    Two-Electron Energy =                 509.1606724518514397
    Total Energy =                       -377.7708014433235917
  Basis Set: (AUG-CC-PVTZ AUX)
    Blend: AUG-CC-PVTZ-RI
    Molecular point group: c1

    Geometry (in Angstrom), charge = 0, multiplicity = 1:

       Center              X                  Y                   Z               Mass
    ------------   -----------------  -----------------  -----------------  -----------------
         O           -1.453290218477     0.691961626517     0.011482596592    15.994914619570
         N            0.868083781523     0.519536626517    -0.032398403408    14.003074004430
         N            1.893549781523    -0.368969373483    -0.018462403408    14.003074004430
         C           -0.344049218477    -0.093563373483     0.003436596592    12.000000000000
         C           -0.119178218477    -1.462522373483     0.022146596592    12.000000000000
         C            1.128149781523     1.943836626517     0.017753596592    12.000000000000
         C            1.084923681523    -1.553043073483     0.009373996592    12.000000000000
         C           -2.672323218477    -0.056344373483    -0.013260403408    12.000000000000
         H           -0.848972218477    -2.258291373483     0.035062596592     1.007825032230
         H            1.179295781523     2.294161626517     1.052006596592     1.007825032230
         H            2.082672781523     2.117194626517    -0.477547403408     1.007825032230
         H            0.327344781523     2.467108626517    -0.505470403408     1.007825032230
         H            1.889296781523    -2.465766373483     0.007154596592     1.007825032230
         H           -3.472193218477     0.682643626517    -0.012859403408     1.007825032230
         H           -2.750886218477    -0.693663373483     0.873016596592     1.007825032230
         H           -2.729114218477    -0.671537373483    -0.916651403408     1.007825032230

  Basis Set: AUG-CC-PVTZ
    Blend: AUG-CC-PVTZ
  Basis Set: (AUG-CC-PVTZ AUX)
    Blend: AUG-CC-PVTZ-JKFIT
	 Reference Energy          =    -377.7708014433235917 [Eh]
	 Singles Energy            =      -0.0000000000000000 [Eh]
	 Same-Spin Energy          =      -0.4007243614318791 [Eh]
	 Opposite-Spin Energy      =      -1.2470765825260981 [Eh]
	 Correlation Energy        =      -1.6478009439579773 [Eh]
	 Total Energy              =    -379.4186023872815667 [Eh]

	 ================> DF-SCS-MP2 Energies <==================
	-----------------------------------------------------------
	 SCS Same-Spin Scale       =       0.3333333333333333 [-]
	 SCS Opposite-Spin Scale   =       1.2000000000000000 [-]
	 SCS Same-Spin Energy      =      -0.1335747871439597 [Eh]
	 SCS Opposite-Spin Energy  =      -1.4964918990313176 [Eh]
	 SCS Correlation Energy    =      -1.6300666861752773 [Eh]
	 SCS Total Energy          =    -379.4008681294988605 [Eh]
	-----------------------------------------------------------

  Dipole Moment: [D]
     X:    -3.3160      Y:     0.7542      Z:     0.0177     Total:     3.4007

*** Psi4 exiting successfully. Buy a developer a beer!
