                               Psi4 1.3.2 release

  ==> Input File <==

--------------------------------------------------------------------------
#psi4
#
memory 32 gb

molecule  {
0 1
  O       -1.4373610     0.6812660     0.0112400
  N        0.8840130     0.5088410    -0.0326410
  N        1.9094790    -0.3796650    -0.0187050
  C       -0.5065272    -0.1944978     0.0084684
  C       -0.1032490    -1.4732180     0.0219040
  C        1.1440790     1.9331410     0.0175110
  C        1.3002790    -1.5787310     0.0070160
  C       -2.6563940    -0.0670400    -0.0135030
  H       -0.8330430    -2.2689870     0.0348200
  H        1.1952250     2.2834660     1.0517640
  H        2.0986020     2.1064990    -0.4777900
  H        0.3432740     2.4564130    -0.5057130
  H        1.9052260    -2.4764620     0.0069120
  H       -3.4562640     0.6719480    -0.0131020
  H       -2.7349570    -0.7043590     0.8727740
  H       -2.7131850    -0.6822330    -0.9168940
units angstrom
no_reorient  #important for SAPT in psi4, default
symmetry c1  #important for SAPT in psi4, default
}

set PROPERTIES_ORIGIN ["COM"]
properties('MP2/aug-cc-pvtz', properties = ['dipole'])
--------------------------------------------------------------------------

    Molecular point group: c1
  Charge       = 0
  Multiplicity = 1
  Basis Set: AUG-CC-PVTZ
    Blend: AUG-CC-PVTZ
  Basis Set: (AUG-CC-PVTZ AUX)
    Blend: AUG-CC-PVTZ-JKFIT

    Orbital Energies [Eh]
    ---------------------

    Doubly Occupied:

       1A    -20.630318     2A    -15.604317     3A    -15.584468
       4A    -11.344197     5A    -11.308705     6A    -11.251085
       7A    -11.245603     8A    -11.221927     9A     -1.485242
      10A     -1.325175    11A     -1.093546    12A     -1.049301
      13A     -0.983539    14A     -0.909970    15A     -0.793195
      16A     -0.782528    17A     -0.722564    18A     -0.700972
      19A     -0.658283    20A     -0.637230    21A     -0.616757
      22A     -0.592211    23A     -0.557651    24A     -0.550877
      25A     -0.543588    26A     -0.516078    27A     -0.507692
      28A     -0.438594    29A     -0.352386    30A     -0.302063

  @DF-RHF Final Energy:  -377.79409043046400

   => Energetics <=

    Nuclear Repulsion Energy =            376.3585913429384959
    One-Electron Energy =               -1259.6852361117373675
    Two-Electron Energy =                 505.5325543383348190
    Total Energy =                       -377.7940904304639957
  Basis Set: (AUG-CC-PVTZ AUX)
    Blend: AUG-CC-PVTZ-RI
    Molecular point group: c1

    Geometry (in Angstrom), charge = 0, multiplicity = 1:

       Center              X                  Y                   Z               Mass
    ------------   -----------------  -----------------  -----------------  -----------------
         O           -1.455540964111     0.703229982088     0.011144324587    15.994914619570
         N            0.865833035889     0.530804982088    -0.032736675413    14.003074004430
         N            1.891299035889    -0.357701017912    -0.018800675413    14.003074004430
         C           -0.524707164111    -0.172533817912     0.008372724587    12.000000000000
         C           -0.121428964111    -1.451254017912     0.021808324587    12.000000000000
         C            1.125899035889     1.955104982088     0.017415324587    12.000000000000
         C            1.282099035889    -1.556767017912     0.006920324587    12.000000000000
         C           -2.674573964111    -0.045076017912    -0.013598675413    12.000000000000
         H           -0.851222964111    -2.247023017912     0.034724324587     1.007825032230
         H            1.177045035889     2.305429982088     1.051668324587     1.007825032230
         H            2.080422035889     2.128462982088    -0.477885675413     1.007825032230
         H            0.325094035889     2.478376982088    -0.505808675413     1.007825032230
         H            1.887046035889    -2.454498017912     0.006816324587     1.007825032230
         H           -3.474443964111     0.693911982088    -0.013197675413     1.007825032230
         H           -2.753136964111    -0.682395017912     0.872678324587     1.007825032230
         H           -2.731364964111    -0.660269017912    -0.916989675413     1.007825032230

  Basis Set: AUG-CC-PVTZ
    Blend: AUG-CC-PVTZ
  Basis Set: (AUG-CC-PVTZ AUX)
    Blend: AUG-CC-PVTZ-JKFIT
	 Reference Energy          =    -377.7940904304639957 [Eh]
	 Singles Energy            =      -0.0000000000000000 [Eh]
	 Same-Spin Energy          =      -0.3996570220252262 [Eh]
	 Opposite-Spin Energy      =      -1.2463085194944301 [Eh]
	 Correlation Energy        =      -1.6459655415196563 [Eh]
	 Total Energy              =    -379.4400559719836679 [Eh]

	 ================> DF-SCS-MP2 Energies <==================
	-----------------------------------------------------------
	 SCS Same-Spin Scale       =       0.3333333333333333 [-]
	 SCS Opposite-Spin Scale   =       1.2000000000000000 [-]
	 SCS Same-Spin Energy      =      -0.1332190073417421 [Eh]
	 SCS Opposite-Spin Energy  =      -1.4955702233933161 [Eh]
	 SCS Correlation Energy    =      -1.6287892307350582 [Eh]
	 SCS Total Energy          =    -379.4228796611990333 [Eh]
	-----------------------------------------------------------

  Dipole Moment: [D]
     X:    -3.8037      Y:     0.4772      Z:     0.0145     Total:     3.8335

*** Psi4 exiting successfully. Buy a developer a beer!
