                               Psi4 1.4a3.dev225

  ==> Input File <==

--------------------------------------------------------------------------
#psi4
#
memory 32 gb

molecule  {
0 1
  O       -1.4373610     0.6812660     0.0112400
  N        0.8840130     0.5088410    -0.0326410
  N        1.9094790    -0.3796650    -0.0187050
  C       -0.3281200    -0.1042590     0.0031940
  C       -0.1032490    -1.4732180     0.0219040
  C        1.1404887     1.9134781     0.0168186
  C        1.3002790    -1.5787310     0.0070160
  C       -2.6563940    -0.0670400    -0.0135030
  H       -0.8330430    -2.2689870     0.0348200
  H        1.1952250     2.2834660     1.0517640
  H        2.0986020     2.1064990    -0.4777900
  H        0.3432740     2.4564130    -0.5057130
  H        1.9052260    -2.4764620     0.0069120
  H       -3.4562640     0.6719480    -0.0131020
  H       -2.7349570    -0.7043590     0.8727740
  H       -2.7131850    -0.6822330    -0.9168940
units angstrom
no_reorient  #important for SAPT in psi4, default
symmetry c1  #important for SAPT in psi4, default
}

set PROPERTIES_ORIGIN ["COM"]
properties('MP2/aug-cc-pvtz', properties = ['dipole'])
--------------------------------------------------------------------------

    Molecular point group: c1
  Charge       = 0
  Multiplicity = 1
  Basis Set: AUG-CC-PVTZ
    Blend: AUG-CC-PVTZ
  Basis Set: (AUG-CC-PVTZ AUX)
    Blend: AUG-CC-PVTZ-JKFIT

    Orbital Energies [Eh]
    ---------------------

    Doubly Occupied:

       1A    -20.609670     2A    -15.628915     3A    -15.574317
       4A    -11.336383     5A    -11.298338     6A    -11.263569
       7A    -11.252965     8A    -11.216384     9A     -1.437560
      10A     -1.358609    11A     -1.117820    12A     -1.050635
      13A     -0.964689    14A     -0.932871    15A     -0.806106
      16A     -0.771795    17A     -0.728036    18A     -0.682711
      19A     -0.645669    20A     -0.633352    21A     -0.622123
      22A     -0.593742    23A     -0.580660    24A     -0.542939
      25A     -0.541553    26A     -0.524165    27A     -0.501057
      28A     -0.449058    29A     -0.349781    30A     -0.321518

  @DF-RHF Final Energy:  -377.84353711368482

   => Energetics <=

    Nuclear Repulsion Energy =            377.8922386427160518
    One-Electron Energy =               -1262.7975723685667617
    Two-Electron Energy =                 507.0617966121658924
    Total Energy =                       -377.8435371136848175
  Basis Set: (AUG-CC-PVTZ AUX)
    Blend: AUG-CC-PVTZ-RI
    Molecular point group: c1

    Geometry (in Angstrom), charge = 0, multiplicity = 1:

       Center              X                  Y                   Z               Mass
    ------------   -----------------  -----------------  -----------------  -----------------
         O           -1.474260705604     0.695672574288     0.011783261403    15.994914619570
         N            0.847113294396     0.523247574288    -0.032097738597    14.003074004430
         N            1.872579294396    -0.365258425712    -0.018161738597    14.003074004430
         C           -0.365019705604    -0.089852425712     0.003737261403    12.000000000000
         C           -0.140148705604    -1.458811425712     0.022447261403    12.000000000000
         C            1.103588994396     1.927884674288     0.017361861403    12.000000000000
         C            1.263379294396    -1.564324425712     0.007559261403    12.000000000000
         C           -2.693293705604    -0.052633425712    -0.012959738597    12.000000000000
         H           -0.869942705604    -2.254580425712     0.035363261403     1.007825032230
         H            1.158325294396     2.297872574288     1.052307261403     1.007825032230
         H            2.061702294396     2.120905574288    -0.477246738597     1.007825032230
         H            0.306374294396     2.470819574288    -0.505169738597     1.007825032230
         H            1.868326294396    -2.462055425712     0.007455261403     1.007825032230
         H           -3.493163705604     0.686354574288    -0.012558738597     1.007825032230
         H           -2.771856705604    -0.689952425712     0.873317261403     1.007825032230
         H           -2.750084705604    -0.667826425712    -0.916350738597     1.007825032230

  Basis Set: AUG-CC-PVTZ
    Blend: AUG-CC-PVTZ
  Basis Set: (AUG-CC-PVTZ AUX)
    Blend: AUG-CC-PVTZ-JKFIT
	 Reference Energy          =    -377.8435371136848175 [Eh]
	 Singles Energy            =      -0.0000000000000000 [Eh]
	 Same-Spin Energy          =      -0.3965446244047736 [Eh]
	 Opposite-Spin Energy      =      -1.2396142987813199 [Eh]
	 Correlation Energy        =      -1.6361589231860934 [Eh]
	 Total Energy              =    -379.4796960368709051 [Eh]

	 ================> DF-SCS-MP2 Energies <==================
	-----------------------------------------------------------
	 SCS Same-Spin Scale       =       0.3333333333333333 [-]
	 SCS Opposite-Spin Scale   =       1.2000000000000000 [-]
	 SCS Same-Spin Energy      =      -0.1321815414682578 [Eh]
	 SCS Opposite-Spin Energy  =      -1.4875371585375838 [Eh]
	 SCS Correlation Energy    =      -1.6197187000058417 [Eh]
	 SCS Total Energy          =    -379.4632558136906368 [Eh]
	-----------------------------------------------------------

  Dipole Moment: [D]
     X:    -3.0152      Y:     0.5860      Z:    -0.0037     Total:     3.0716

*** Psi4 exiting successfully. Buy a developer a beer!
