                               Psi4 1.3.2 release

  ==> Input File <==

--------------------------------------------------------------------------
#psi4
#
memory 32 gb

molecule  {
0 1
  O       -1.4373610     0.6812660     0.0112400
  N        0.9045653     0.4661992    -0.0356216
  N        1.9094790    -0.3796650    -0.0187050
  C       -0.3281200    -0.1042590     0.0031940
  C       -0.1032490    -1.4732180     0.0219040
  C        1.1440790     1.9331410     0.0175110
  C        1.3002790    -1.5787310     0.0070160
  C       -2.6563940    -0.0670400    -0.0135030
  H       -0.8330430    -2.2689870     0.0348200
  H        1.1952250     2.2834660     1.0517640
  H        2.0986020     2.1064990    -0.4777900
  H        0.3432740     2.4564130    -0.5057130
  H        1.9052260    -2.4764620     0.0069120
  H       -3.4562640     0.6719480    -0.0131020
  H       -2.7349570    -0.7043590     0.8727740
  H       -2.7131850    -0.6822330    -0.9168940
units angstrom
no_reorient  #important for SAPT in psi4, default
symmetry c1  #important for SAPT in psi4, default
}

set PROPERTIES_ORIGIN ["COM"]
properties('MP2/aug-cc-pvtz', properties = ['dipole'])
--------------------------------------------------------------------------

    Molecular point group: c1
  Charge       = 0
  Multiplicity = 1
  Basis Set: AUG-CC-PVTZ
    Blend: AUG-CC-PVTZ
  Basis Set: (AUG-CC-PVTZ AUX)
    Blend: AUG-CC-PVTZ-JKFIT

    Orbital Energies [Eh]
    ---------------------

    Doubly Occupied:

       1A    -20.608885     2A    -15.632067     3A    -15.573060
       4A    -11.331175     5A    -11.298119     6A    -11.267660
       7A    -11.247127     8A    -11.215009     9A     -1.436827
      10A     -1.371886    11A     -1.105175    12A     -1.054466
      13A     -0.963246    14A     -0.933932    15A     -0.808782
      16A     -0.769948    17A     -0.726395    18A     -0.682132
      19A     -0.643958    20A     -0.633845    21A     -0.621668
      22A     -0.594033    23A     -0.567121    24A     -0.550548
      25A     -0.549141    26A     -0.522871    27A     -0.503622
      28A     -0.450443    29A     -0.349011    30A     -0.318443

  @DF-RHF Final Energy:  -377.84130393391052

   => Energetics <=

    Nuclear Repulsion Energy =            377.8637219293766520
    One-Electron Energy =               -1262.7488679680784571
    Two-Electron Energy =                 507.0438421047912811
    Total Energy =                       -377.8413039339105239
  Basis Set: (AUG-CC-PVTZ AUX)
    Blend: AUG-CC-PVTZ-RI
    Molecular point group: c1

    Geometry (in Angstrom), charge = 0, multiplicity = 1:

       Center              X                  Y                   Z               Mass
    ------------   -----------------  -----------------  -----------------  -----------------
         O           -1.477213303880     0.698895398456     0.012081562936    15.994914619570
         N            0.864712996120     0.483828598456    -0.034780037064    14.003074004430
         N            1.869626696120    -0.362035601544    -0.017863437064    14.003074004430
         C           -0.367972303880    -0.086629601544     0.004035562936    12.000000000000
         C           -0.143101303880    -1.455588601544     0.022745562936    12.000000000000
         C            1.104226696120     1.950770398456     0.018352562936    12.000000000000
         C            1.260426696120    -1.561101601544     0.007857562936    12.000000000000
         C           -2.696246303880    -0.049410601544    -0.012661437064    12.000000000000
         H           -0.872895303880    -2.251357601544     0.035661562936     1.007825032230
         H            1.155372696120     2.301095398456     1.052605562936     1.007825032230
         H            2.058749696120     2.124128398456    -0.476948437064     1.007825032230
         H            0.303421696120     2.474042398456    -0.504871437064     1.007825032230
         H            1.865373696120    -2.458832601544     0.007753562936     1.007825032230
         H           -3.496116303880     0.689577398456    -0.012260437064     1.007825032230
         H           -2.774809303880    -0.686729601544     0.873615562936     1.007825032230
         H           -2.753037303880    -0.664603601544    -0.916052437064     1.007825032230

  Basis Set: AUG-CC-PVTZ
    Blend: AUG-CC-PVTZ
  Basis Set: (AUG-CC-PVTZ AUX)
    Blend: AUG-CC-PVTZ-JKFIT
	 Reference Energy          =    -377.8413039339105239 [Eh]
	 Singles Energy            =      -0.0000000000000000 [Eh]
	 Same-Spin Energy          =      -0.3967237412891862 [Eh]
	 Opposite-Spin Energy      =      -1.2393819392814160 [Eh]
	 Correlation Energy        =      -1.6361056805706022 [Eh]
	 Total Energy              =    -379.4774096144811324 [Eh]

	 ================> DF-SCS-MP2 Energies <==================
	-----------------------------------------------------------
	 SCS Same-Spin Scale       =       0.3333333333333333 [-]
	 SCS Opposite-Spin Scale   =       1.2000000000000000 [-]
	 SCS Same-Spin Energy      =      -0.1322412470963954 [Eh]
	 SCS Opposite-Spin Energy  =      -1.4872583271376991 [Eh]
	 SCS Correlation Energy    =      -1.6194995742340945 [Eh]
	 SCS Total Energy          =    -379.4608035081446360 [Eh]
	-----------------------------------------------------------

  Dipole Moment: [D]
     X:    -2.9938      Y:     0.7600      Z:     0.0051     Total:     3.0888

*** Psi4 exiting successfully. Buy a developer a beer!
