                               Psi4 1.3.2 release

  ==> Input File <==

--------------------------------------------------------------------------
#psi4
#
memory 32 gb

molecule  {
0 1
  O       -1.3492155     0.7928885     0.0076741
  N        0.8840130     0.5088410    -0.0326410
  N        1.9094790    -0.3796650    -0.0187050
  C       -0.3281200    -0.1042590     0.0031940
  C       -0.1032490    -1.4732180     0.0219040
  C        1.1440790     1.9331410     0.0175110
  C        1.3002790    -1.5787310     0.0070160
  C       -2.6563940    -0.0670400    -0.0135030
  H       -0.8330430    -2.2689870     0.0348200
  H        1.1952250     2.2834660     1.0517640
  H        2.0986020     2.1064990    -0.4777900
  H        0.3432740     2.4564130    -0.5057130
  H        1.9052260    -2.4764620     0.0069120
  H       -3.4562640     0.6719480    -0.0131020
  H       -2.7349570    -0.7043590     0.8727740
  H       -2.7131850    -0.6822330    -0.9168940
units angstrom
no_reorient  #important for SAPT in psi4, default
symmetry c1  #important for SAPT in psi4, default
}

set PROPERTIES_ORIGIN ["COM"]
properties('MP2/aug-cc-pvtz', properties = ['dipole'])
--------------------------------------------------------------------------

    Molecular point group: c1
  Charge       = 0
  Multiplicity = 1
  Basis Set: AUG-CC-PVTZ
    Blend: AUG-CC-PVTZ
  Basis Set: (AUG-CC-PVTZ AUX)
    Blend: AUG-CC-PVTZ-JKFIT

    Orbital Energies [Eh]
    ---------------------

    Doubly Occupied:

       1A    -20.612233     2A    -15.620770     3A    -15.570177
       4A    -11.331287     5A    -11.312766     6A    -11.259728
       7A    -11.249831     8A    -11.216364     9A     -1.417835
      10A     -1.344244    11A     -1.109184    12A     -1.040500
      13A     -0.965997    14A     -0.932611    15A     -0.801699
      16A     -0.761323    17A     -0.717759    18A     -0.670429
      19A     -0.630459    20A     -0.625265    21A     -0.612775
      22A     -0.588380    23A     -0.571996    24A     -0.548985
      25A     -0.542289    26A     -0.534293    27A     -0.510006
      28A     -0.442784    29A     -0.347109    30A     -0.317495

  @DF-RHF Final Energy:  -377.82459857513362

   => Energetics <=

    Nuclear Repulsion Energy =            376.5248342332937455
    One-Electron Energy =               -1260.2857181124677481
    Two-Electron Energy =                 505.9362853040403820
    Total Energy =                       -377.8245985751336207
  Basis Set: (AUG-CC-PVTZ AUX)
    Blend: AUG-CC-PVTZ-RI
    Molecular point group: c1

    Geometry (in Angstrom), charge = 0, multiplicity = 1:

       Center              X                  Y                   Z               Mass
    ------------   -----------------  -----------------  -----------------  -----------------
         O           -1.399080722786     0.789257584659     0.008652180905    15.994914619570
         N            0.834147777214     0.505210084659    -0.031662919095    14.003074004430
         N            1.859613777214    -0.383295915341    -0.017726919095    14.003074004430
         C           -0.377985222786    -0.107889915341     0.004172080905    12.000000000000
         C           -0.153114222786    -1.476848915341     0.022882080905    12.000000000000
         C            1.094213777214     1.929510084659     0.018489080905    12.000000000000
         C            1.250413777214    -1.582361915341     0.007994080905    12.000000000000
         C           -2.706259222786    -0.070670915341    -0.012524919095    12.000000000000
         H           -0.882908222786    -2.272617915341     0.035798080905     1.007825032230
         H            1.145359777214     2.279835084659     1.052742080905     1.007825032230
         H            2.048736777214     2.102868084659    -0.476811919095     1.007825032230
         H            0.293408777214     2.452782084659    -0.504734919095     1.007825032230
         H            1.855360777214    -2.480092915341     0.007890080905     1.007825032230
         H           -3.506129222786     0.668317084659    -0.012123919095     1.007825032230
         H           -2.784822222786    -0.707989915341     0.873752080905     1.007825032230
         H           -2.763050222786    -0.685863915341    -0.915915919095     1.007825032230

  Basis Set: AUG-CC-PVTZ
    Blend: AUG-CC-PVTZ
  Basis Set: (AUG-CC-PVTZ AUX)
    Blend: AUG-CC-PVTZ-JKFIT
	 Reference Energy          =    -377.8245985751336207 [Eh]
	 Singles Energy            =      -0.0000000000000000 [Eh]
	 Same-Spin Energy          =      -0.3979629180202827 [Eh]
	 Opposite-Spin Energy      =      -1.2445749910685333 [Eh]
	 Correlation Energy        =      -1.6425379090888161 [Eh]
	 Total Energy              =    -379.4671364842224648 [Eh]

	 ================> DF-SCS-MP2 Energies <==================
	-----------------------------------------------------------
	 SCS Same-Spin Scale       =       0.3333333333333333 [-]
	 SCS Opposite-Spin Scale   =       1.2000000000000000 [-]
	 SCS Same-Spin Energy      =      -0.1326543060067609 [Eh]
	 SCS Opposite-Spin Energy  =      -1.4934899892822400 [Eh]
	 SCS Correlation Energy    =      -1.6261442952890008 [Eh]
	 SCS Total Energy          =    -379.4507428704226299 [Eh]
	-----------------------------------------------------------

  Dipole Moment: [D]
     X:    -3.4245      Y:     0.4280      Z:     0.0039     Total:     3.4511

*** Psi4 exiting successfully. Buy a developer a beer!
