                               Psi4 1.3.2 release

  ==> Input File <==

--------------------------------------------------------------------------
#psi4
#
memory 32 gb

molecule  {
0 1
  O       -1.4373610     0.6812660     0.0112400
  N        0.8840130     0.5088410    -0.0326410
  N        1.9094790    -0.3796650    -0.0187050
  C       -0.1497128    -0.0140202    -0.0020804
  C       -0.1032490    -1.4732180     0.0219040
  C        1.1440790     1.9331410     0.0175110
  C        1.3002790    -1.5787310     0.0070160
  C       -2.6563940    -0.0670400    -0.0135030
  H       -0.8330430    -2.2689870     0.0348200
  H        1.1952250     2.2834660     1.0517640
  H        2.0986020     2.1064990    -0.4777900
  H        0.3432740     2.4564130    -0.5057130
  H        1.9052260    -2.4764620     0.0069120
  H       -3.4562640     0.6719480    -0.0131020
  H       -2.7349570    -0.7043590     0.8727740
  H       -2.7131850    -0.6822330    -0.9168940
units angstrom
no_reorient  #important for SAPT in psi4, default
symmetry c1  #important for SAPT in psi4, default
}

set PROPERTIES_ORIGIN ["COM"]
properties('MP2/aug-cc-pvtz', properties = ['dipole'])
--------------------------------------------------------------------------

    Molecular point group: c1
  Charge       = 0
  Multiplicity = 1
  Basis Set: AUG-CC-PVTZ
    Blend: AUG-CC-PVTZ
  Basis Set: (AUG-CC-PVTZ AUX)
    Blend: AUG-CC-PVTZ-JKFIT

    Orbital Energies [Eh]
    ---------------------

    Doubly Occupied:

       1A    -20.587701     2A    -15.645237     3A    -15.561118
       4A    -11.331606     5A    -11.288874     6A    -11.279840
       7A    -11.257520     8A    -11.213154     9A     -1.444769
      10A     -1.363694    11A     -1.147950    12A     -1.055224
      13A     -0.965900    14A     -0.939593    15A     -0.826302
      16A     -0.758182    17A     -0.726136    18A     -0.696850
      19A     -0.634438    20A     -0.633609    21A     -0.615280
      22A     -0.603908    23A     -0.581390    24A     -0.562351
      25A     -0.555908    26A     -0.483144    27A     -0.481336
      28A     -0.448008    29A     -0.377821    30A     -0.315102

  @DF-RHF Final Energy:  -377.78702182703148

   => Energetics <=

    Nuclear Repulsion Energy =            379.2184628343148916
    One-Electron Energy =               -1265.2470809404364900
    Two-Electron Energy =                 508.2415962790901176
    Total Energy =                       -377.7870218270314808
  Basis Set: (AUG-CC-PVTZ AUX)
    Blend: AUG-CC-PVTZ-RI
    Molecular point group: c1

    Geometry (in Angstrom), charge = 0, multiplicity = 1:

       Center              X                  Y                   Z               Mass
    ------------   -----------------  -----------------  -----------------  -----------------
         O           -1.493749360033     0.683904081576     0.012273911080    15.994914619570
         N            0.827624639967     0.511479081576    -0.031607088920    14.003074004430
         N            1.853090639967    -0.377026918424    -0.017671088920    14.003074004430
         C           -0.206101160033    -0.011382118424    -0.001046488920    12.000000000000
         C           -0.159637360033    -1.470579918424     0.022937911080    12.000000000000
         C            1.087690639967     1.935779081576     0.018544911080    12.000000000000
         C            1.243890639967    -1.576092918424     0.008049911080    12.000000000000
         C           -2.712782360033    -0.064401918424    -0.012469088920    12.000000000000
         H           -0.889431360033    -2.266348918424     0.035853911080     1.007825032230
         H            1.138836639967     2.286104081576     1.052797911080     1.007825032230
         H            2.042213639967     2.109137081576    -0.476756088920     1.007825032230
         H            0.286885639967     2.459051081576    -0.504679088920     1.007825032230
         H            1.848837639967    -2.473823918424     0.007945911080     1.007825032230
         H           -3.512652360033     0.674586081576    -0.012068088920     1.007825032230
         H           -2.791345360033    -0.701720918424     0.873807911080     1.007825032230
         H           -2.769573360033    -0.679594918424    -0.915860088920     1.007825032230

  Basis Set: AUG-CC-PVTZ
    Blend: AUG-CC-PVTZ
  Basis Set: (AUG-CC-PVTZ AUX)
    Blend: AUG-CC-PVTZ-JKFIT
	 Reference Energy          =    -377.7870218270314808 [Eh]
	 Singles Energy            =      -0.0000000000000000 [Eh]
	 Same-Spin Energy          =      -0.3943433816734838 [Eh]
	 Opposite-Spin Energy      =      -1.2360436322897768 [Eh]
	 Correlation Energy        =      -1.6303870139632606 [Eh]
	 Total Energy              =    -379.4174088409947672 [Eh]

	 ================> DF-SCS-MP2 Energies <==================
	-----------------------------------------------------------
	 SCS Same-Spin Scale       =       0.3333333333333333 [-]
	 SCS Opposite-Spin Scale   =       1.2000000000000000 [-]
	 SCS Same-Spin Energy      =      -0.1314477938911613 [Eh]
	 SCS Opposite-Spin Energy  =      -1.4832523587477320 [Eh]
	 SCS Correlation Energy    =      -1.6147001526388933 [Eh]
	 SCS Total Energy          =    -379.4017219796703557 [Eh]
	-----------------------------------------------------------

  Dipole Moment: [D]
     X:    -2.2745      Y:     0.9615      Z:    -0.0073     Total:     2.4694

*** Psi4 exiting successfully. Buy a developer a beer!
