                               Psi4 1.3.2 release

  ==> Input File <==

--------------------------------------------------------------------------
#psi4
#
memory 32 gb

molecule  {
0 1
  O       -1.4373610     0.6812660     0.0112400
  N        0.8840130     0.5088410    -0.0326410
  N        1.9094790    -0.3796650    -0.0187050
  C       -0.3562093    -0.1424808     0.0021867
  C       -0.1032490    -1.4732180     0.0219040
  C        1.1440790     1.9331410     0.0175110
  C        1.3002790    -1.5787310     0.0070160
  C       -2.6563940    -0.0670400    -0.0135030
  H       -0.8330430    -2.2689870     0.0348200
  H        1.1952250     2.2834660     1.0517640
  H        2.0986020     2.1064990    -0.4777900
  H        0.3432740     2.4564130    -0.5057130
  H        1.9052260    -2.4764620     0.0069120
  H       -3.4562640     0.6719480    -0.0131020
  H       -2.7349570    -0.7043590     0.8727740
  H       -2.7131850    -0.6822330    -0.9168940
units angstrom
no_reorient  #important for SAPT in psi4, default
symmetry c1  #important for SAPT in psi4, default
}

set PROPERTIES_ORIGIN ["COM"]
properties('MP2/aug-cc-pvtz', properties = ['dipole'])
--------------------------------------------------------------------------

    Molecular point group: c1
  Charge       = 0
  Multiplicity = 1
  Basis Set: AUG-CC-PVTZ
    Blend: AUG-CC-PVTZ
  Basis Set: (AUG-CC-PVTZ AUX)
    Blend: AUG-CC-PVTZ-JKFIT

    Orbital Energies [Eh]
    ---------------------

    Doubly Occupied:

       1A    -20.610756     2A    -15.623698     3A    -15.578081
       4A    -11.334527     5A    -11.297820     6A    -11.261682
       7A    -11.251603     8A    -11.216343     9A     -1.436988
      10A     -1.349877    11A     -1.109276    12A     -1.053350
      13A     -0.965630    14A     -0.928035    15A     -0.800973
      16A     -0.772569    17A     -0.725451    18A     -0.680980
      19A     -0.644748    20A     -0.629932    21A     -0.623553
      22A     -0.594756    23A     -0.571803    24A     -0.544075
      25A     -0.542039    26A     -0.529816    27A     -0.501191
      28A     -0.448793    29A     -0.350589    30A     -0.321365

  @DF-RHF Final Energy:  -377.83899665556692

   => Energetics <=

    Nuclear Repulsion Energy =            377.2194922272014992
    One-Electron Energy =               -1261.5163768870343119
    Two-Electron Energy =                 506.4578880042658966
    Total Energy =                       -377.8389966555669162
  Basis Set: (AUG-CC-PVTZ AUX)
    Blend: AUG-CC-PVTZ-RI
    Molecular point group: c1

    Geometry (in Angstrom), charge = 0, multiplicity = 1:

       Center              X                  Y                   Z               Mass
    ------------   -----------------  -----------------  -----------------  -----------------
         O           -1.471637303937     0.697659898228     0.011816981522    15.994914619570
         N            0.849736696063     0.525234898228    -0.032064018478    14.003074004430
         N            1.875202696063    -0.363271101772    -0.018128018478    14.003074004430
         C           -0.390485603937    -0.126086901772     0.002763681522    12.000000000000
         C           -0.137525303937    -1.456824101772     0.022480981522    12.000000000000
         C            1.109802696063     1.949534898228     0.018087981522    12.000000000000
         C            1.266002696063    -1.562337101772     0.007592981522    12.000000000000
         C           -2.690670303937    -0.050646101772    -0.012926018478    12.000000000000
         H           -0.867319303937    -2.252593101772     0.035396981522     1.007825032230
         H            1.160948696063     2.299859898228     1.052340981522     1.007825032230
         H            2.064325696063     2.122892898228    -0.477213018478     1.007825032230
         H            0.308997696063     2.472806898228    -0.505136018478     1.007825032230
         H            1.870949696063    -2.460068101772     0.007488981522     1.007825032230
         H           -3.490540303937     0.688341898228    -0.012525018478     1.007825032230
         H           -2.769233303937    -0.687965101772     0.873350981522     1.007825032230
         H           -2.747461303937    -0.665839101772    -0.916317018478     1.007825032230

  Basis Set: AUG-CC-PVTZ
    Blend: AUG-CC-PVTZ
  Basis Set: (AUG-CC-PVTZ AUX)
    Blend: AUG-CC-PVTZ-JKFIT
	 Reference Energy          =    -377.8389966555669162 [Eh]
	 Singles Energy            =      -0.0000000000000000 [Eh]
	 Same-Spin Energy          =      -0.3968811300138994 [Eh]
	 Opposite-Spin Energy      =      -1.2409268243957494 [Eh]
	 Correlation Energy        =      -1.6378079544096489 [Eh]
	 Total Energy              =    -379.4768046099765684 [Eh]

	 ================> DF-SCS-MP2 Energies <==================
	-----------------------------------------------------------
	 SCS Same-Spin Scale       =       0.3333333333333333 [-]
	 SCS Opposite-Spin Scale   =       1.2000000000000000 [-]
	 SCS Same-Spin Energy      =      -0.1322937100046331 [Eh]
	 SCS Opposite-Spin Energy  =      -1.4891121892748993 [Eh]
	 SCS Correlation Energy    =      -1.6214058992795324 [Eh]
	 SCS Total Energy          =    -379.4604025548464392 [Eh]
	-----------------------------------------------------------

  Dipole Moment: [D]
     X:    -3.0614      Y:     0.5307      Z:     0.0055     Total:     3.1071

*** Psi4 exiting successfully. Buy a developer a beer!
