                               Psi4 1.3.2 release

  ==> Input File <==

--------------------------------------------------------------------------
#psi4
#
memory 32 gb

molecule  {
0 1
  O       -1.4373610     0.6812660     0.0112400
  N        0.9236157     0.4228623    -0.0385549
  N        1.9094790    -0.3796650    -0.0187050
  C       -0.3281200    -0.1042590     0.0031940
  C       -0.1032490    -1.4732180     0.0219040
  C        1.1440790     1.9331410     0.0175110
  C        1.3002790    -1.5787310     0.0070160
  C       -2.6563940    -0.0670400    -0.0135030
  H       -0.8330430    -2.2689870     0.0348200
  H        1.1952250     2.2834660     1.0517640
  H        2.0986020     2.1064990    -0.4777900
  H        0.3432740     2.4564130    -0.5057130
  H        1.9052260    -2.4764620     0.0069120
  H       -3.4562640     0.6719480    -0.0131020
  H       -2.7349570    -0.7043590     0.8727740
  H       -2.7131850    -0.6822330    -0.9168940
units angstrom
no_reorient  #important for SAPT in psi4, default
symmetry c1  #important for SAPT in psi4, default
}

set PROPERTIES_ORIGIN ["COM"]
properties('MP2/aug-cc-pvtz', properties = ['dipole'])
--------------------------------------------------------------------------

    Molecular point group: c1
  Charge       = 0
  Multiplicity = 1
  Basis Set: AUG-CC-PVTZ
    Blend: AUG-CC-PVTZ
  Basis Set: (AUG-CC-PVTZ AUX)
    Blend: AUG-CC-PVTZ-JKFIT

    Orbital Energies [Eh]
    ---------------------

    Doubly Occupied:

       1A    -20.608485     2A    -15.635886     3A    -15.572723
       4A    -11.326946     5A    -11.298161     6A    -11.270832
       7A    -11.242112     8A    -11.214545     9A     -1.438189
      10A     -1.388954    11A     -1.096929    12A     -1.060205
      13A     -0.962272    14A     -0.933734    15A     -0.813223
      16A     -0.768558    17A     -0.726288    18A     -0.682786
      19A     -0.643292    20A     -0.635677    21A     -0.623178
      22A     -0.594214    23A     -0.559703    24A     -0.554421
      25A     -0.550108    26A     -0.522230    27A     -0.505893
      28A     -0.451177    29A     -0.349152    30A     -0.315092

  @DF-RHF Final Energy:  -377.83190695807156

   => Energetics <=

    Nuclear Repulsion Energy =            378.2984821862045806
    One-Electron Energy =               -1263.5708481444553399
    Two-Electron Energy =                 507.4404590001791462
    Total Energy =                       -377.8319069580715563
  Basis Set: (AUG-CC-PVTZ AUX)
    Blend: AUG-CC-PVTZ-RI
    Molecular point group: c1

    Geometry (in Angstrom), charge = 0, multiplicity = 1:

       Center              X                  Y                   Z               Mass
    ------------   -----------------  -----------------  -----------------  -----------------
         O           -1.479593773643     0.704310622287     0.012448097599    15.994914619570
         N            0.881382926357     0.445906922287    -0.037346802401    14.003074004430
         N            1.867246226357    -0.356620377713    -0.017496902401    14.003074004430
         C           -0.370352773643    -0.081214377713     0.004402097599    12.000000000000
         C           -0.145481773643    -1.450173377713     0.023112097599    12.000000000000
         C            1.101846226357     1.956185622287     0.018719097599    12.000000000000
         C            1.258046226357    -1.555686377713     0.008224097599    12.000000000000
         C           -2.698626773643    -0.043995377713    -0.012294902401    12.000000000000
         H           -0.875275773643    -2.245942377713     0.036028097599     1.007825032230
         H            1.152992226357     2.306510622287     1.052972097599     1.007825032230
         H            2.056369226357     2.129543622287    -0.476581902401     1.007825032230
         H            0.301041226357     2.479457622287    -0.504504902401     1.007825032230
         H            1.862993226357    -2.453417377713     0.008120097599     1.007825032230
         H           -3.498496773643     0.694992622287    -0.011893902401     1.007825032230
         H           -2.777189773643    -0.681314377713     0.873982097599     1.007825032230
         H           -2.755417773643    -0.659188377713    -0.915685902401     1.007825032230

  Basis Set: AUG-CC-PVTZ
    Blend: AUG-CC-PVTZ
  Basis Set: (AUG-CC-PVTZ AUX)
    Blend: AUG-CC-PVTZ-JKFIT
	 Reference Energy          =    -377.8319069580715563 [Eh]
	 Singles Energy            =      -0.0000000000000000 [Eh]
	 Same-Spin Energy          =      -0.3972184156922863 [Eh]
	 Opposite-Spin Energy      =      -1.2395847675655025 [Eh]
	 Correlation Energy        =      -1.6368031832577890 [Eh]
	 Total Energy              =    -379.4687101413293249 [Eh]

	 ================> DF-SCS-MP2 Energies <==================
	-----------------------------------------------------------
	 SCS Same-Spin Scale       =       0.3333333333333333 [-]
	 SCS Opposite-Spin Scale   =       1.2000000000000000 [-]
	 SCS Same-Spin Energy      =      -0.1324061385640954 [Eh]
	 SCS Opposite-Spin Energy  =      -1.4875017210786030 [Eh]
	 SCS Correlation Energy    =      -1.6199078596426983 [Eh]
	 SCS Total Energy          =    -379.4518148177142507 [Eh]
	-----------------------------------------------------------

  Dipole Moment: [D]
     X:    -2.9816      Y:     0.8587      Z:     0.0057     Total:     3.1028

*** Psi4 exiting successfully. Buy a developer a beer!
