                               Psi4 1.3.2 release

  ==> Input File <==

--------------------------------------------------------------------------
#psi4
#
memory 32 gb

molecule  {
0 1
  O       -1.4373610     0.6812660     0.0112400
  N        0.8840130     0.5088410    -0.0326410
  N        1.9398142    -0.3433572    -0.0165239
  C       -0.3281200    -0.1042590     0.0031940
  C       -0.1032490    -1.4732180     0.0219040
  C        1.1440790     1.9331410     0.0175110
  C        1.3002790    -1.5787310     0.0070160
  C       -2.6563940    -0.0670400    -0.0135030
  H       -0.8330430    -2.2689870     0.0348200
  H        1.1952250     2.2834660     1.0517640
  H        2.0986020     2.1064990    -0.4777900
  H        0.3432740     2.4564130    -0.5057130
  H        1.9052260    -2.4764620     0.0069120
  H       -3.4562640     0.6719480    -0.0131020
  H       -2.7349570    -0.7043590     0.8727740
  H       -2.7131850    -0.6822330    -0.9168940
units angstrom
no_reorient  #important for SAPT in psi4, default
symmetry c1  #important for SAPT in psi4, default
}

set PROPERTIES_ORIGIN ["COM"]
properties('MP2/aug-cc-pvtz', properties = ['dipole'])
--------------------------------------------------------------------------

    Molecular point group: c1
  Charge       = 0
  Multiplicity = 1
  Basis Set: AUG-CC-PVTZ
    Blend: AUG-CC-PVTZ
  Basis Set: (AUG-CC-PVTZ AUX)
    Blend: AUG-CC-PVTZ-JKFIT

    Orbital Energies [Eh]
    ---------------------

    Doubly Occupied:

       1A    -20.610057     2A    -15.630740     3A    -15.578609
       4A    -11.336850     5A    -11.299079     6A    -11.262795
       7A    -11.257805     8A    -11.219576     9A     -1.437411
      10A     -1.352509    11A     -1.104424    12A     -1.052943
      13A     -0.965222    14A     -0.931502    15A     -0.805811
      16A     -0.769738    17A     -0.726049    18A     -0.682454
      19A     -0.646148    20A     -0.632519    21A     -0.618845
      22A     -0.593956    23A     -0.575158    24A     -0.544546
      25A     -0.540889    26A     -0.524020    27A     -0.499762
      28A     -0.454071    29A     -0.349940    30A     -0.317043

  @DF-RHF Final Energy:  -377.83681719807402

   => Energetics <=

    Nuclear Repulsion Energy =            376.6480282146411582
    One-Electron Energy =               -1260.3287461060974692
    Two-Electron Energy =                 505.8439006933822952
    Total Energy =                       -377.8368171980740158
  Basis Set: (AUG-CC-PVTZ AUX)
    Blend: AUG-CC-PVTZ-RI
    Molecular point group: c1

    Geometry (in Angstrom), charge = 0, multiplicity = 1:

       Center              X                  Y                   Z               Mass
    ------------   -----------------  -----------------  -----------------  -----------------
         O           -1.478435740031     0.689030139166     0.011436575388    15.994914619570
         N            0.842938259969     0.516605139166    -0.032444424612    14.003074004430
         N            1.898739459969    -0.335593060834    -0.016327324612    14.003074004430
         C           -0.369194740031    -0.096494860834     0.003390575388    12.000000000000
         C           -0.144323740031    -1.465453860834     0.022100575388    12.000000000000
         C            1.103004259969     1.940905139166     0.017707575388    12.000000000000
         C            1.259204259969    -1.570966860834     0.007212575388    12.000000000000
         C           -2.697468740031    -0.059275860834    -0.013306424612    12.000000000000
         H           -0.874117740031    -2.261222860834     0.035016575388     1.007825032230
         H            1.154150259969     2.291230139166     1.051960575388     1.007825032230
         H            2.057527259969     2.114263139166    -0.477593424612     1.007825032230
         H            0.302199259969     2.464177139166    -0.505516424612     1.007825032230
         H            1.864151259969    -2.468697860834     0.007108575388     1.007825032230
         H           -3.497338740031     0.679712139166    -0.012905424612     1.007825032230
         H           -2.776031740031    -0.696594860834     0.872970575388     1.007825032230
         H           -2.754259740031    -0.674468860834    -0.916697424612     1.007825032230

  Basis Set: AUG-CC-PVTZ
    Blend: AUG-CC-PVTZ
  Basis Set: (AUG-CC-PVTZ AUX)
    Blend: AUG-CC-PVTZ-JKFIT
	 Reference Energy          =    -377.8368171980740158 [Eh]
	 Singles Energy            =      -0.0000000000000000 [Eh]
	 Same-Spin Energy          =      -0.3978092833434667 [Eh]
	 Opposite-Spin Energy      =      -1.2425379823040099 [Eh]
	 Correlation Energy        =      -1.6403472656474767 [Eh]
	 Total Energy              =    -379.4771644637214649 [Eh]

	 ================> DF-SCS-MP2 Energies <==================
	-----------------------------------------------------------
	 SCS Same-Spin Scale       =       0.3333333333333333 [-]
	 SCS Opposite-Spin Scale   =       1.2000000000000000 [-]
	 SCS Same-Spin Energy      =      -0.1326030944478222 [Eh]
	 SCS Opposite-Spin Energy  =      -1.4910455787648118 [Eh]
	 SCS Correlation Energy    =      -1.6236486732126341 [Eh]
	 SCS Total Energy          =    -379.4604658712866581 [Eh]
	-----------------------------------------------------------

  Dipole Moment: [D]
     X:    -3.0994      Y:     0.6120      Z:     0.0014     Total:     3.1593

*** Psi4 exiting successfully. Buy a developer a beer!
