                               Psi4 1.3.2 release

  ==> Input File <==

--------------------------------------------------------------------------
#psi4
#
memory 32 gb

molecule  {
0 1
  O       -1.4373610     0.6812660     0.0112400
  N        0.8731814     0.5298850    -0.0311341
  N        1.9094790    -0.3796650    -0.0187050
  C       -0.3281200    -0.1042590     0.0031940
  C       -0.1032490    -1.4732180     0.0219040
  C        1.1440790     1.9331410     0.0175110
  C        1.3002790    -1.5787310     0.0070160
  C       -2.6563940    -0.0670400    -0.0135030
  H       -0.8330430    -2.2689870     0.0348200
  H        1.1952250     2.2834660     1.0517640
  H        2.0986020     2.1064990    -0.4777900
  H        0.3432740     2.4564130    -0.5057130
  H        1.9052260    -2.4764620     0.0069120
  H       -3.4562640     0.6719480    -0.0131020
  H       -2.7349570    -0.7043590     0.8727740
  H       -2.7131850    -0.6822330    -0.9168940
units angstrom
no_reorient  #important for SAPT in psi4, default
symmetry c1  #important for SAPT in psi4, default
}

set PROPERTIES_ORIGIN ["COM"]
properties('MP2/aug-cc-pvtz', properties = ['dipole'])
--------------------------------------------------------------------------

    Molecular point group: c1
  Charge       = 0
  Multiplicity = 1
  Basis Set: AUG-CC-PVTZ
    Blend: AUG-CC-PVTZ
  Basis Set: (AUG-CC-PVTZ AUX)
    Blend: AUG-CC-PVTZ-JKFIT

    Orbital Energies [Eh]
    ---------------------

    Doubly Occupied:

       1A    -20.609260     2A    -15.626729     3A    -15.574195
       4A    -11.337719     5A    -11.297953     6A    -11.262318
       7A    -11.254626     8A    -11.216085     9A     -1.436991
      10A     -1.349415    11A     -1.118613    12A     -1.047543
      13A     -0.964940    14A     -0.933808    15A     -0.803055
      16A     -0.771546    17A     -0.726229    18A     -0.681989
      19A     -0.645279    20A     -0.632860    21A     -0.620867
      22A     -0.593863    23A     -0.582581    24A     -0.544224
      25A     -0.542172    26A     -0.524219    27A     -0.499579
      28A     -0.446727    29A     -0.350258    30A     -0.321618

  @DF-RHF Final Energy:  -377.84279944916443

   => Energetics <=

    Nuclear Repulsion Energy =            377.3266495091325510
    One-Electron Energy =               -1261.7043796397097140
    Two-Electron Energy =                 506.5349306814127885
    Total Energy =                       -377.8427994491644313
  Basis Set: (AUG-CC-PVTZ AUX)
    Blend: AUG-CC-PVTZ-RI
    Molecular point group: c1

    Geometry (in Angstrom), charge = 0, multiplicity = 1:

       Center              X                  Y                   Z               Mass
    ------------   -----------------  -----------------  -----------------  -----------------
         O           -1.473291684125     0.690937448952     0.011520821006    15.994914619570
         N            0.837250715875     0.539556448952    -0.030853278994    14.003074004430
         N            1.873548315875    -0.369993551048    -0.018424178994    14.003074004430
         C           -0.364050684125    -0.094587551048     0.003474821006    12.000000000000
         C           -0.139179684125    -1.463546551048     0.022184821006    12.000000000000
         C            1.108148315875     1.942812448952     0.017791821006    12.000000000000
         C            1.264348315875    -1.569059551048     0.007296821006    12.000000000000
         C           -2.692324684125    -0.057368551048    -0.013222178994    12.000000000000
         H           -0.868973684125    -2.259315551048     0.035100821006     1.007825032230
         H            1.159294315875     2.293137448952     1.052044821006     1.007825032230
         H            2.062671315875     2.116170448952    -0.477509178994     1.007825032230
         H            0.307343315875     2.466084448952    -0.505432178994     1.007825032230
         H            1.869295315875    -2.466790551048     0.007192821006     1.007825032230
         H           -3.492194684125     0.681619448952    -0.012821178994     1.007825032230
         H           -2.770887684125    -0.694687551048     0.873054821006     1.007825032230
         H           -2.749115684125    -0.672561551048    -0.916613178994     1.007825032230

  Basis Set: AUG-CC-PVTZ
    Blend: AUG-CC-PVTZ
  Basis Set: (AUG-CC-PVTZ AUX)
    Blend: AUG-CC-PVTZ-JKFIT
	 Reference Energy          =    -377.8427994491644313 [Eh]
	 Singles Energy            =      -0.0000000000000000 [Eh]
	 Same-Spin Energy          =      -0.3963756675205542 [Eh]
	 Opposite-Spin Energy      =      -1.2399000385832051 [Eh]
	 Correlation Energy        =      -1.6362757061037594 [Eh]
	 Total Energy              =    -379.4790751552681627 [Eh]

	 ================> DF-SCS-MP2 Energies <==================
	-----------------------------------------------------------
	 SCS Same-Spin Scale       =       0.3333333333333333 [-]
	 SCS Opposite-Spin Scale   =       1.2000000000000000 [-]
	 SCS Same-Spin Energy      =      -0.1321252225068514 [Eh]
	 SCS Opposite-Spin Energy  =      -1.4878800462998460 [Eh]
	 SCS Correlation Energy    =      -1.6200052688066975 [Eh]
	 SCS Total Energy          =    -379.4628047179711530 [Eh]
	-----------------------------------------------------------

  Dipole Moment: [D]
     X:    -2.9981      Y:     0.5857      Z:     0.0015     Total:     3.0548

*** Psi4 exiting successfully. Buy a developer a beer!
