                               Psi4 1.4a3.dev225

  ==> Input File <==

--------------------------------------------------------------------------
#psi4
#
memory 32 gb

molecule  {
0 1
  O       -1.4373610     0.6812660     0.0112400
  N        0.8840130     0.5088410    -0.0326410
  N        1.9094790    -0.3796650    -0.0187050
  C       -0.3281200    -0.1042590     0.0031940
  C       -0.1032490    -1.4732180     0.0219040
  C        1.1440790     1.9331410     0.0175110
  C        1.2803364    -1.5772318     0.0072275
  C       -2.6563940    -0.0670400    -0.0135030
  H       -0.8330430    -2.2689870     0.0348200
  H        1.1952250     2.2834660     1.0517640
  H        2.0986020     2.1064990    -0.4777900
  H        0.3432740     2.4564130    -0.5057130
  H        1.9052260    -2.4764620     0.0069120
  H       -3.4562640     0.6719480    -0.0131020
  H       -2.7349570    -0.7043590     0.8727740
  H       -2.7131850    -0.6822330    -0.9168940
units angstrom
no_reorient  #important for SAPT in psi4, default
symmetry c1  #important for SAPT in psi4, default
}

set PROPERTIES_ORIGIN ["COM"]
properties('MP2/aug-cc-pvtz', properties = ['dipole'])
--------------------------------------------------------------------------

    Molecular point group: c1
  Charge       = 0
  Multiplicity = 1
  Basis Set: AUG-CC-PVTZ
    Blend: AUG-CC-PVTZ
  Basis Set: (AUG-CC-PVTZ AUX)
    Blend: AUG-CC-PVTZ-JKFIT

    Orbital Energies [Eh]
    ---------------------

    Doubly Occupied:

       1A    -20.609293     2A    -15.629242     3A    -15.572611
       4A    -11.335705     5A    -11.298357     6A    -11.264183
       7A    -11.251422     8A    -11.214950     9A     -1.437042
      10A     -1.356291    11A     -1.113436    12A     -1.051207
      13A     -0.965527    14A     -0.933946    15A     -0.803169
      16A     -0.772329    17A     -0.726201    18A     -0.682269
      19A     -0.644350    20A     -0.633049    21A     -0.622139
      22A     -0.593452    23A     -0.576938    24A     -0.546362
      25A     -0.542963    26A     -0.523124    27A     -0.501010
      28A     -0.449971    29A     -0.352246    30A     -0.318915

  @DF-RHF Final Energy:  -377.84244480027365

   => Energetics <=

    Nuclear Repulsion Energy =            377.7241746257548698
    One-Electron Energy =               -1262.4898394103756800
    Two-Electron Energy =                 506.9232199843472131
    Total Energy =                       -377.8424448002736540
  Basis Set: (AUG-CC-PVTZ AUX)
    Blend: AUG-CC-PVTZ-RI
    Molecular point group: c1

    Geometry (in Angstrom), charge = 0, multiplicity = 1:

       Center              X                  Y                   Z               Mass
    ------------   -----------------  -----------------  -----------------  -----------------
         O           -1.472509668783     0.693406494513     0.011686469993    15.994914619570
         N            0.848864331217     0.520981494513    -0.032194530007    14.003074004430
         N            1.874330331217    -0.367524505487    -0.018258530007    14.003074004430
         C           -0.363268668783    -0.092118505487     0.003640469993    12.000000000000
         C           -0.138397668783    -1.461077505487     0.022350469993    12.000000000000
         C            1.108930331217     1.945281494513     0.017957469993    12.000000000000
         C            1.245187731217    -1.565091305487     0.007673969993    12.000000000000
         C           -2.691542668783    -0.054899505487    -0.013056530007    12.000000000000
         H           -0.868191668783    -2.256846505487     0.035266469993     1.007825032230
         H            1.160076331217     2.295606494513     1.052210469993     1.007825032230
         H            2.063453331217     2.118639494513    -0.477343530007     1.007825032230
         H            0.308125331217     2.468553494513    -0.505266530007     1.007825032230
         H            1.870077331217    -2.464321505487     0.007358469993     1.007825032230
         H           -3.491412668783     0.684088494513    -0.012655530007     1.007825032230
         H           -2.770105668783    -0.692218505487     0.873220469993     1.007825032230
         H           -2.748333668783    -0.670092505487    -0.916447530007     1.007825032230

  Basis Set: AUG-CC-PVTZ
    Blend: AUG-CC-PVTZ
  Basis Set: (AUG-CC-PVTZ AUX)
    Blend: AUG-CC-PVTZ-JKFIT
	 Reference Energy          =    -377.8424448002736540 [Eh]
	 Singles Energy            =      -0.0000000000000000 [Eh]
	 Same-Spin Energy          =      -0.3968313580087980 [Eh]
	 Opposite-Spin Energy      =      -1.2401491119181494 [Eh]
	 Correlation Energy        =      -1.6369804699269475 [Eh]
	 Total Energy              =    -379.4794252702005792 [Eh]

	 ================> DF-SCS-MP2 Energies <==================
	-----------------------------------------------------------
	 SCS Same-Spin Scale       =       0.3333333333333333 [-]
	 SCS Opposite-Spin Scale   =       1.2000000000000000 [-]
	 SCS Same-Spin Energy      =      -0.1322771193362660 [Eh]
	 SCS Opposite-Spin Energy  =      -1.4881789343017793 [Eh]
	 SCS Correlation Energy    =      -1.6204560536380452 [Eh]
	 SCS Total Energy          =    -379.4629008539117194 [Eh]
	-----------------------------------------------------------

  Dipole Moment: [D]
     X:    -3.0339      Y:     0.6567      Z:     0.0046     Total:     3.1041

*** Psi4 exiting successfully. Buy a developer a beer!
