                               Psi4 1.4a3.dev225

  ==> Input File <==

--------------------------------------------------------------------------
#psi4
#
memory 32 gb

molecule  {
0 1
  O       -1.4373610     0.6812660     0.0112400
  N        0.8840130     0.5088410    -0.0326410
  N        1.9094790    -0.3796650    -0.0187050
  C       -0.3281200    -0.1042590     0.0031940
  C       -0.1032490    -1.4732180     0.0219040
  C        1.1440790     1.9331410     0.0175110
  C        1.3002790    -1.5787310     0.0070160
  C       -2.6563940    -0.0670400    -0.0135030
  H       -0.8195261    -2.2542481     0.0345808
  H        1.1952250     2.2834660     1.0517640
  H        2.0986020     2.1064990    -0.4777900
  H        0.3432740     2.4564130    -0.5057130
  H        1.9052260    -2.4764620     0.0069120
  H       -3.4562640     0.6719480    -0.0131020
  H       -2.7349570    -0.7043590     0.8727740
  H       -2.7131850    -0.6822330    -0.9168940
units angstrom
no_reorient  #important for SAPT in psi4, default
symmetry c1  #important for SAPT in psi4, default
}

set PROPERTIES_ORIGIN ["COM"]
properties('MP2/aug-cc-pvtz', properties = ['dipole'])
--------------------------------------------------------------------------

    Molecular point group: c1
  Charge       = 0
  Multiplicity = 1
  Basis Set: AUG-CC-PVTZ
    Blend: AUG-CC-PVTZ
  Basis Set: (AUG-CC-PVTZ AUX)
    Blend: AUG-CC-PVTZ-JKFIT

    Orbital Energies [Eh]
    ---------------------

    Doubly Occupied:

       1A    -20.609172     2A    -15.628357     3A    -15.573628
       4A    -11.335376     5A    -11.298100     6A    -11.264077
       7A    -11.251986     8A    -11.213396     9A     -1.436780
      10A     -1.356247    11A     -1.114023    12A     -1.049863
      13A     -0.964699    14A     -0.934017    15A     -0.805596
      16A     -0.771376    17A     -0.727211    18A     -0.681941
      19A     -0.646165    20A     -0.632941    21A     -0.622106
      22A     -0.594151    23A     -0.578163    24A     -0.546114
      25A     -0.545109    26A     -0.524078    27A     -0.500992
      28A     -0.448227    29A     -0.349587    30A     -0.320731

  @DF-RHF Final Energy:  -377.84401248981328

   => Energetics <=

    Nuclear Repulsion Energy =            377.5932431706769989
    One-Electron Energy =               -1262.2260904454240062
    Two-Electron Energy =                 506.7888347849337833
    Total Energy =                       -377.8440124898132808
  Basis Set: (AUG-CC-PVTZ AUX)
    Blend: AUG-CC-PVTZ-RI
    Molecular point group: c1

    Geometry (in Angstrom), charge = 0, multiplicity = 1:

       Center              X                  Y                   Z               Mass
    ------------   -----------------  -----------------  -----------------  -----------------
         O           -1.474766723958     0.693434480102     0.011711269037    15.994914619570
         N            0.846607276042     0.521009480102    -0.032169730963    14.003074004430
         N            1.872073276042    -0.367496519898    -0.018233730963    14.003074004430
         C           -0.365525723958    -0.092090519898     0.003665269037    12.000000000000
         C           -0.140654723958    -1.461049519898     0.022375269037    12.000000000000
         C            1.106673276042     1.945309480102     0.017982269037    12.000000000000
         C            1.262873276042    -1.566562519898     0.007487269037    12.000000000000
         C           -2.693799723958    -0.054871519898    -0.013031730963    12.000000000000
         H           -0.856931823958    -2.242079619898     0.035052069037     1.007825032230
         H            1.157819276042     2.295634480102     1.052235269037     1.007825032230
         H            2.061196276042     2.118667480102    -0.477318730963     1.007825032230
         H            0.305868276042     2.468581480102    -0.505241730963     1.007825032230
         H            1.867820276042    -2.464293519898     0.007383269037     1.007825032230
         H           -3.493669723958     0.684116480102    -0.012630730963     1.007825032230
         H           -2.772362723958    -0.692190519898     0.873245269037     1.007825032230
         H           -2.750590723958    -0.670064519898    -0.916422730963     1.007825032230

  Basis Set: AUG-CC-PVTZ
    Blend: AUG-CC-PVTZ
  Basis Set: (AUG-CC-PVTZ AUX)
    Blend: AUG-CC-PVTZ-JKFIT
	 Reference Energy          =    -377.8440124898132808 [Eh]
	 Singles Energy            =      -0.0000000000000000 [Eh]
	 Same-Spin Energy          =      -0.3963952588317405 [Eh]
	 Opposite-Spin Energy      =      -1.2394989067030950 [Eh]
	 Correlation Energy        =      -1.6358941655348356 [Eh]
	 Total Energy              =    -379.4799066553480884 [Eh]

	 ================> DF-SCS-MP2 Energies <==================
	-----------------------------------------------------------
	 SCS Same-Spin Scale       =       0.3333333333333333 [-]
	 SCS Opposite-Spin Scale   =       1.2000000000000000 [-]
	 SCS Same-Spin Energy      =      -0.1321317529439135 [Eh]
	 SCS Opposite-Spin Energy  =      -1.4873986880437140 [Eh]
	 SCS Correlation Energy    =      -1.6195304409876274 [Eh]
	 SCS Total Energy          =    -379.4635429308008838 [Eh]
	-----------------------------------------------------------

  Dipole Moment: [D]
     X:    -3.0011      Y:     0.6460      Z:     0.0031     Total:     3.0698

*** Psi4 exiting successfully. Buy a developer a beer!
