                               Psi4 1.3.2 release

  ==> Input File <==

--------------------------------------------------------------------------
#psi4
#
memory 32 gb

molecule  {
0 1
  O       -1.4373610     0.6812660     0.0112400
  N        0.9484968     0.5781919    -0.0342301
  N        1.9094790    -0.3796650    -0.0187050
  C       -0.3281200    -0.1042590     0.0031940
  C       -0.1032490    -1.4732180     0.0219040
  C        1.1440790     1.9331410     0.0175110
  C        1.3002790    -1.5787310     0.0070160
  C       -2.6563940    -0.0670400    -0.0135030
  H       -0.8330430    -2.2689870     0.0348200
  H        1.1952250     2.2834660     1.0517640
  H        2.0986020     2.1064990    -0.4777900
  H        0.3432740     2.4564130    -0.5057130
  H        1.9052260    -2.4764620     0.0069120
  H       -3.4562640     0.6719480    -0.0131020
  H       -2.7349570    -0.7043590     0.8727740
  H       -2.7131850    -0.6822330    -0.9168940
units angstrom
no_reorient  #important for SAPT in psi4, default
symmetry c1  #important for SAPT in psi4, default
}

set PROPERTIES_ORIGIN ["COM"]
properties('MP2/aug-cc-pvtz', properties = ['dipole'])
--------------------------------------------------------------------------

    Molecular point group: c1
  Charge       = 0
  Multiplicity = 1
  Basis Set: AUG-CC-PVTZ
    Blend: AUG-CC-PVTZ
  Basis Set: (AUG-CC-PVTZ AUX)
    Blend: AUG-CC-PVTZ-JKFIT

    Orbital Energies [Eh]
    ---------------------

    Doubly Occupied:

       1A    -20.610203     2A    -15.627213     3A    -15.578280
       4A    -11.343157     5A    -11.298683     6A    -11.256196
       7A    -11.254418     8A    -11.222893     9A     -1.434140
      10A     -1.349348    11A     -1.129823    12A     -1.041116
      13A     -0.968640    14A     -0.927622    15A     -0.796579
      16A     -0.774367    17A     -0.726393    18A     -0.680097
      19A     -0.650457    20A     -0.637712    21A     -0.627912
      22A     -0.599720    23A     -0.585747    24A     -0.539911
      25A     -0.538317    26A     -0.524970    27A     -0.500291
      28A     -0.437697    29A     -0.352060    30A     -0.313662

  @DF-RHF Final Energy:  -377.82682960086743

   => Energetics <=

    Nuclear Repulsion Energy =            376.3331782982231175
    One-Electron Energy =               -1259.6647683070193580
    Two-Electron Energy =                 505.5047604079287566
    Total Energy =                       -377.8268296008674270
  Basis Set: (AUG-CC-PVTZ AUX)
    Blend: AUG-CC-PVTZ-RI
    Molecular point group: c1

    Geometry (in Angstrom), charge = 0, multiplicity = 1:

       Center              X                  Y                   Z               Mass
    ------------   -----------------  -----------------  -----------------  -----------------
         O           -1.482702826798     0.684901191720     0.011907686079    15.994914619570
         N            0.903154973202     0.581827091720    -0.033562413921    14.003074004430
         N            1.864137173202    -0.376029808280    -0.018037313921    14.003074004430
         C           -0.373461826798    -0.100623808280     0.003861686079    12.000000000000
         C           -0.148590826798    -1.469582808280     0.022571686079    12.000000000000
         C            1.098737173202     1.936776191720     0.018178686079    12.000000000000
         C            1.254937173202    -1.575095808280     0.007683686079    12.000000000000
         C           -2.701735826798    -0.063404808280    -0.012835313921    12.000000000000
         H           -0.878384826798    -2.265351808280     0.035487686079     1.007825032230
         H            1.149883173202     2.287101191720     1.052431686079     1.007825032230
         H            2.053260173202     2.110134191720    -0.477122313921     1.007825032230
         H            0.297932173202     2.460048191720    -0.505045313921     1.007825032230
         H            1.859884173202    -2.472826808280     0.007579686079     1.007825032230
         H           -3.501605826798     0.675583191720    -0.012434313921     1.007825032230
         H           -2.780298826798    -0.700723808280     0.873441686079     1.007825032230
         H           -2.758526826798    -0.678597808280    -0.916226313921     1.007825032230

  Basis Set: AUG-CC-PVTZ
    Blend: AUG-CC-PVTZ
  Basis Set: (AUG-CC-PVTZ AUX)
    Blend: AUG-CC-PVTZ-JKFIT
	 Reference Energy          =    -377.8268296008674270 [Eh]
	 Singles Energy            =      -0.0000000000000000 [Eh]
	 Same-Spin Energy          =      -0.3978408390714986 [Eh]
	 Opposite-Spin Energy      =      -1.2423620390219874 [Eh]
	 Correlation Energy        =      -1.6402028780934861 [Eh]
	 Total Energy              =    -379.4670324789609026 [Eh]

	 ================> DF-SCS-MP2 Energies <==================
	-----------------------------------------------------------
	 SCS Same-Spin Scale       =       0.3333333333333333 [-]
	 SCS Opposite-Spin Scale   =       1.2000000000000000 [-]
	 SCS Same-Spin Energy      =      -0.1326136130238329 [Eh]
	 SCS Opposite-Spin Energy  =      -1.4908344468263848 [Eh]
	 SCS Correlation Energy    =      -1.6234480598502177 [Eh]
	 SCS Total Energy          =    -379.4502776607176315 [Eh]
	-----------------------------------------------------------

  Dipole Moment: [D]
     X:    -3.1129      Y:     0.4398      Z:    -0.0072     Total:     3.1438

*** Psi4 exiting successfully. Buy a developer a beer!
