                               Psi4 1.4a3.dev225

  ==> Input File <==

--------------------------------------------------------------------------
#psi4
#
memory 32 gb

molecule  {
0 1
  O       -1.4373610     0.6812660     0.0112400
  N        0.8840130     0.5088410    -0.0326410
  N        1.9094790    -0.3796650    -0.0187050
  C       -0.3281200    -0.1042590     0.0031940
  C       -0.1032490    -1.4732180     0.0219040
  C        1.1440790     1.9331410     0.0175110
  C        1.3093364    -1.5609036     0.0066336
  C       -2.6563940    -0.0670400    -0.0135030
  H       -0.8330430    -2.2689870     0.0348200
  H        1.1952250     2.2834660     1.0517640
  H        2.0986020     2.1064990    -0.4777900
  H        0.3432740     2.4564130    -0.5057130
  H        1.9052260    -2.4764620     0.0069120
  H       -3.4562640     0.6719480    -0.0131020
  H       -2.7349570    -0.7043590     0.8727740
  H       -2.7131850    -0.6822330    -0.9168940
units angstrom
no_reorient  #important for SAPT in psi4, default
symmetry c1  #important for SAPT in psi4, default
}

set PROPERTIES_ORIGIN ["COM"]
properties('MP2/aug-cc-pvtz', properties = ['dipole'])
--------------------------------------------------------------------------

    Molecular point group: c1
  Charge       = 0
  Multiplicity = 1
  Basis Set: AUG-CC-PVTZ
    Blend: AUG-CC-PVTZ
  Basis Set: (AUG-CC-PVTZ AUX)
    Blend: AUG-CC-PVTZ-JKFIT

    Orbital Energies [Eh]
    ---------------------

    Doubly Occupied:

       1A    -20.609173     2A    -15.626924     3A    -15.573169
       4A    -11.335764     5A    -11.297919     6A    -11.263771
       7A    -11.251832     8A    -11.215135     9A     -1.436911
      10A     -1.358952    11A     -1.117227    12A     -1.049970
      13A     -0.964143    14A     -0.933230    15A     -0.804322
      16A     -0.771372    17A     -0.725648    18A     -0.682021
      19A     -0.644188    20A     -0.633298    21A     -0.622319
      22A     -0.593419    23A     -0.575134    24A     -0.546585
      25A     -0.545579    26A     -0.523436    27A     -0.501882
      28A     -0.448471    29A     -0.348838    30A     -0.323613

  @DF-RHF Final Energy:  -377.84509754344816

   => Energetics <=

    Nuclear Repulsion Energy =            377.7697878779032408
    One-Electron Energy =               -1262.5812843787575730
    Two-Electron Energy =                 506.9663989574061702
    Total Energy =                       -377.8450975434481620
  Basis Set: (AUG-CC-PVTZ AUX)
    Blend: AUG-CC-PVTZ-RI
    Molecular point group: c1

    Geometry (in Angstrom), charge = 0, multiplicity = 1:

       Center              X                  Y                   Z               Mass
    ------------   -----------------  -----------------  -----------------  -----------------
         O           -1.475615046486     0.691658038368     0.011750065986    15.994914619570
         N            0.845758953514     0.519233038368    -0.032130934014    14.003074004430
         N            1.871224953514    -0.369272961632    -0.018194934014    14.003074004430
         C           -0.366374046486    -0.093866961632     0.003704065986    12.000000000000
         C           -0.141503046486    -1.462825961632     0.022414065986    12.000000000000
         C            1.105824953514     1.943533038368     0.018021065986    12.000000000000
         C            1.271082353514    -1.550511561632     0.007143665986    12.000000000000
         C           -2.694648046486    -0.056647961632    -0.012992934014    12.000000000000
         H           -0.871297046486    -2.258594961632     0.035330065986     1.007825032230
         H            1.156970953514     2.293858038368     1.052274065986     1.007825032230
         H            2.060347953514     2.116891038368    -0.477279934014     1.007825032230
         H            0.305019953514     2.466805038368    -0.505202934014     1.007825032230
         H            1.866971953514    -2.466069961632     0.007422065986     1.007825032230
         H           -3.494518046486     0.682340038368    -0.012591934014     1.007825032230
         H           -2.773211046486    -0.693966961632     0.873284065986     1.007825032230
         H           -2.751439046486    -0.671840961632    -0.916383934014     1.007825032230

  Basis Set: AUG-CC-PVTZ
    Blend: AUG-CC-PVTZ
  Basis Set: (AUG-CC-PVTZ AUX)
    Blend: AUG-CC-PVTZ-JKFIT
	 Reference Energy          =    -377.8450975434481620 [Eh]
	 Singles Energy            =      -0.0000000000000000 [Eh]
	 Same-Spin Energy          =      -0.3958614491768831 [Eh]
	 Opposite-Spin Energy      =      -1.2385700930630255 [Eh]
	 Correlation Energy        =      -1.6344315422399085 [Eh]
	 Total Energy              =    -379.4795290856880570 [Eh]

	 ================> DF-SCS-MP2 Energies <==================
	-----------------------------------------------------------
	 SCS Same-Spin Scale       =       0.3333333333333333 [-]
	 SCS Opposite-Spin Scale   =       1.2000000000000000 [-]
	 SCS Same-Spin Energy      =      -0.1319538163922944 [Eh]
	 SCS Opposite-Spin Energy  =      -1.4862841116756305 [Eh]
	 SCS Correlation Energy    =      -1.6182379280679249 [Eh]
	 SCS Total Energy          =    -379.4633354715160749 [Eh]
	-----------------------------------------------------------

  Dipole Moment: [D]
     X:    -2.9801      Y:     0.6369      Z:     0.0018     Total:     3.0474

*** Psi4 exiting successfully. Buy a developer a beer!
