                               Psi4 1.3.2 release

  ==> Input File <==

--------------------------------------------------------------------------
#psi4
#
memory 32 gb

molecule  {
0 1
  O       -1.4373610     0.6812660     0.0112400
  N        0.8840130     0.5088410    -0.0326410
  N        1.9094790    -0.3796650    -0.0187050
  C       -0.3281200    -0.1042590     0.0031940
  C       -0.1032490    -1.4732180     0.0219040
  C        1.1440790     1.9331410     0.0175110
  C        1.3002790    -1.5787310     0.0070160
  C       -2.6563940    -0.0670400    -0.0135030
  H       -0.8330430    -2.2689870     0.0348200
  H        1.1952250     2.2834660     1.0517640
  H        2.0986020     2.1064990    -0.4777900
  H        0.3432740     2.4564130    -0.5057130
  H        1.8493436    -2.3935334     0.0069216
  H       -3.4562640     0.6719480    -0.0131020
  H       -2.7349570    -0.7043590     0.8727740
  H       -2.7131850    -0.6822330    -0.9168940
units angstrom
no_reorient  #important for SAPT in psi4, default
symmetry c1  #important for SAPT in psi4, default
}

set PROPERTIES_ORIGIN ["COM"]
properties('MP2/aug-cc-pvtz', properties = ['dipole'])
--------------------------------------------------------------------------

    Molecular point group: c1
  Charge       = 0
  Multiplicity = 1
  Basis Set: AUG-CC-PVTZ
    Blend: AUG-CC-PVTZ
  Basis Set: (AUG-CC-PVTZ AUX)
    Blend: AUG-CC-PVTZ-JKFIT

    Orbital Energies [Eh]
    ---------------------

    Doubly Occupied:

       1A    -20.608815     2A    -15.628113     3A    -15.573379
       4A    -11.334995     5A    -11.297816     6A    -11.263886
       7A    -11.240530     8A    -11.214920     9A     -1.436437
      10A     -1.355909    11A     -1.115435    12A     -1.049033
      13A     -0.964140    14A     -0.937555    15A     -0.814126
      16A     -0.771245    17A     -0.732092    18A     -0.681635
      19A     -0.648259    20A     -0.632685    21A     -0.620555
      22A     -0.597751    23A     -0.583412    24A     -0.547297
      25A     -0.545567    26A     -0.524624    27A     -0.500684
      28A     -0.448625    29A     -0.349364    30A     -0.320392

  @DF-RHF Final Energy:  -377.83767461555738

   => Energetics <=

    Nuclear Repulsion Energy =            378.0455210890512490
    One-Electron Energy =               -1263.0878364900543147
    Two-Electron Energy =                 507.2046407854456902
    Total Energy =                       -377.8376746155573755
  Basis Set: (AUG-CC-PVTZ AUX)
    Blend: AUG-CC-PVTZ-RI
    Molecular point group: c1

    Geometry (in Angstrom), charge = 0, multiplicity = 1:

       Center              X                  Y                   Z               Mass
    ------------   -----------------  -----------------  -----------------  -----------------
         O           -1.474142593441     0.692821227913     0.011709031497    15.994914619570
         N            0.847231406559     0.520396227913    -0.032171968503    14.003074004430
         N            1.872697406559    -0.368109772087    -0.018235968503    14.003074004430
         C           -0.364901593441    -0.092703772087     0.003663031497    12.000000000000
         C           -0.140030593441    -1.461662772087     0.022373031497    12.000000000000
         C            1.107297406559     1.944696227913     0.017980031497    12.000000000000
         C            1.263497406559    -1.567175772087     0.007485031497    12.000000000000
         C           -2.693175593441    -0.055484772087    -0.013033968503    12.000000000000
         H           -0.869824593441    -2.257431772087     0.035289031497     1.007825032230
         H            1.158443406559     2.295021227913     1.052233031497     1.007825032230
         H            2.061820406559     2.118054227913    -0.477320968503     1.007825032230
         H            0.306492406559     2.467968227913    -0.505243968503     1.007825032230
         H            1.812562006559    -2.381978172087     0.007390631497     1.007825032230
         H           -3.493045593441     0.683503227913    -0.012632968503     1.007825032230
         H           -2.771738593441    -0.692803772087     0.873243031497     1.007825032230
         H           -2.749966593441    -0.670677772087    -0.916424968503     1.007825032230

  Basis Set: AUG-CC-PVTZ
    Blend: AUG-CC-PVTZ
  Basis Set: (AUG-CC-PVTZ AUX)
    Blend: AUG-CC-PVTZ-JKFIT
	 Reference Energy          =    -377.8376746155573755 [Eh]
	 Singles Energy            =      -0.0000000000000000 [Eh]
	 Same-Spin Energy          =      -0.3963327529307473 [Eh]
	 Opposite-Spin Energy      =      -1.2392283177471333 [Eh]
	 Correlation Energy        =      -1.6355610706778805 [Eh]
	 Total Energy              =    -379.4732356862352844 [Eh]

	 ================> DF-SCS-MP2 Energies <==================
	-----------------------------------------------------------
	 SCS Same-Spin Scale       =       0.3333333333333333 [-]
	 SCS Opposite-Spin Scale   =       1.2000000000000000 [-]
	 SCS Same-Spin Energy      =      -0.1321109176435824 [Eh]
	 SCS Opposite-Spin Energy  =      -1.4870739812965599 [Eh]
	 SCS Correlation Energy    =      -1.6191848989401423 [Eh]
	 SCS Total Energy          =    -379.4568595144975234 [Eh]
	-----------------------------------------------------------

  Dipole Moment: [D]
     X:    -2.9928      Y:     0.6344      Z:     0.0033     Total:     3.0593

*** Psi4 exiting successfully. Buy a developer a beer!
