                               Psi4 1.4a3.dev225

  ==> Input File <==

--------------------------------------------------------------------------
#psi4
#
memory 32 gb

molecule  {
0 1
  O       -1.4373610     0.6812660     0.0112400
  N        0.8840130     0.5088410    -0.0326410
  N        1.9094790    -0.3796650    -0.0187050
  C       -0.3459607    -0.1132829     0.0037214
  C       -0.1032490    -1.4732180     0.0219040
  C        1.1440790     1.9331410     0.0175110
  C        1.3002790    -1.5787310     0.0070160
  C       -2.6563940    -0.0670400    -0.0135030
  H       -0.8330430    -2.2689870     0.0348200
  H        1.1952250     2.2834660     1.0517640
  H        2.0986020     2.1064990    -0.4777900
  H        0.3432740     2.4564130    -0.5057130
  H        1.9052260    -2.4764620     0.0069120
  H       -3.4562640     0.6719480    -0.0131020
  H       -2.7349570    -0.7043590     0.8727740
  H       -2.7131850    -0.6822330    -0.9168940
units angstrom
no_reorient  #important for SAPT in psi4, default
symmetry c1  #important for SAPT in psi4, default
}

set PROPERTIES_ORIGIN ["COM"]
properties('MP2/aug-cc-pvtz', properties = ['dipole'])
--------------------------------------------------------------------------

    Molecular point group: c1
  Charge       = 0
  Multiplicity = 1
  Basis Set: AUG-CC-PVTZ
    Blend: AUG-CC-PVTZ
  Basis Set: (AUG-CC-PVTZ AUX)
    Blend: AUG-CC-PVTZ-JKFIT

    Orbital Energies [Eh]
    ---------------------

    Doubly Occupied:

       1A    -20.611262     2A    -15.626325     3A    -15.574978
       4A    -11.336048     5A    -11.298974     6A    -11.262747
       7A    -11.251566     8A    -11.216087     9A     -1.440867
      10A     -1.352877    11A     -1.111435    12A     -1.049481
      13A     -0.966196    14A     -0.931128    15A     -0.802446
      16A     -0.773034    17A     -0.726004    18A     -0.682935
      19A     -0.646314    20A     -0.631610    21A     -0.622211
      22A     -0.594059    23A     -0.574256    24A     -0.545088
      25A     -0.543803    26A     -0.526792    27A     -0.502449
      28A     -0.447954    29A     -0.348786    30A     -0.319854

  @DF-RHF Final Energy:  -377.84249615436607

   => Energetics <=

    Nuclear Repulsion Energy =            377.3598745982977789
    One-Electron Energy =               -1261.7696069498440465
    Two-Electron Energy =                 506.5672361971801934
    Total Energy =                       -377.8424961543660743
  Basis Set: (AUG-CC-PVTZ AUX)
    Blend: AUG-CC-PVTZ-RI
    Molecular point group: c1

    Geometry (in Angstrom), charge = 0, multiplicity = 1:

       Center              X                  Y                   Z               Mass
    ------------   -----------------  -----------------  -----------------  -----------------
         O           -1.472734744417     0.694533328999     0.011652642792    15.994914619570
         N            0.848639255583     0.522108328999    -0.032228357208    14.003074004430
         N            1.874105255583    -0.366397671001    -0.018292357208    14.003074004430
         C           -0.381334444417    -0.100015571001     0.004134042792    12.000000000000
         C           -0.138622744417    -1.459950671001     0.022316642792    12.000000000000
         C            1.108705255583     1.946408328999     0.017923642792    12.000000000000
         C            1.264905255583    -1.565463671001     0.007428642792    12.000000000000
         C           -2.691767744417    -0.053772671001    -0.013090357208    12.000000000000
         H           -0.868416744417    -2.255719671001     0.035232642792     1.007825032230
         H            1.159851255583     2.296733328999     1.052176642792     1.007825032230
         H            2.063228255583     2.119766328999    -0.477377357208     1.007825032230
         H            0.307900255583     2.469680328999    -0.505300357208     1.007825032230
         H            1.869852255583    -2.463194671001     0.007324642792     1.007825032230
         H           -3.491637744417     0.685215328999    -0.012689357208     1.007825032230
         H           -2.770330744417    -0.691091671001     0.873186642792     1.007825032230
         H           -2.748558744417    -0.668965671001    -0.916481357208     1.007825032230

  Basis Set: AUG-CC-PVTZ
    Blend: AUG-CC-PVTZ
  Basis Set: (AUG-CC-PVTZ AUX)
    Blend: AUG-CC-PVTZ-JKFIT
	 Reference Energy          =    -377.8424961543660743 [Eh]
	 Singles Energy            =      -0.0000000000000000 [Eh]
	 Same-Spin Energy          =      -0.3966812545436301 [Eh]
	 Opposite-Spin Energy      =      -1.2401248838437340 [Eh]
	 Correlation Energy        =      -1.6368061383873642 [Eh]
	 Total Energy              =    -379.4793022927534594 [Eh]

	 ================> DF-SCS-MP2 Energies <==================
	-----------------------------------------------------------
	 SCS Same-Spin Scale       =       0.3333333333333333 [-]
	 SCS Opposite-Spin Scale   =       1.2000000000000000 [-]
	 SCS Same-Spin Energy      =      -0.1322270848478767 [Eh]
	 SCS Opposite-Spin Energy  =      -1.4881498606124808 [Eh]
	 SCS Correlation Energy    =      -1.6203769454603574 [Eh]
	 SCS Total Energy          =    -379.4628730998264245 [Eh]
	-----------------------------------------------------------

  Dipole Moment: [D]
     X:    -3.0749      Y:     0.6244      Z:     0.0041     Total:     3.1377

*** Psi4 exiting successfully. Buy a developer a beer!
