                               Psi4 1.3.2 release

  ==> Input File <==

--------------------------------------------------------------------------
#psi4
#
memory 32 gb

molecule  {
0 1
  O       -1.4373610     0.6812660     0.0112400
  N        0.8840130     0.5088410    -0.0326410
  N        1.9094790    -0.3796650    -0.0187050
  C       -0.3281200    -0.1042590     0.0031940
  C       -0.1032490    -1.4732180     0.0219040
  C        1.1440790     1.9331410     0.0175110
  C        1.3455662    -1.4895939     0.0051039
  C       -2.6563940    -0.0670400    -0.0135030
  H       -0.8330430    -2.2689870     0.0348200
  H        1.1952250     2.2834660     1.0517640
  H        2.0986020     2.1064990    -0.4777900
  H        0.3432740     2.4564130    -0.5057130
  H        1.9052260    -2.4764620     0.0069120
  H       -3.4562640     0.6719480    -0.0131020
  H       -2.7349570    -0.7043590     0.8727740
  H       -2.7131850    -0.6822330    -0.9168940
units angstrom
no_reorient  #important for SAPT in psi4, default
symmetry c1  #important for SAPT in psi4, default
}

set PROPERTIES_ORIGIN ["COM"]
properties('MP2/aug-cc-pvtz', properties = ['dipole'])
--------------------------------------------------------------------------

    Molecular point group: c1
  Charge       = 0
  Multiplicity = 1
  Basis Set: AUG-CC-PVTZ
    Blend: AUG-CC-PVTZ
  Basis Set: (AUG-CC-PVTZ AUX)
    Blend: AUG-CC-PVTZ-JKFIT

    Orbital Energies [Eh]
    ---------------------

    Doubly Occupied:

       1A    -20.609193     2A    -15.621236     3A    -15.569876
       4A    -11.336695     5A    -11.297486     6A    -11.262493
       7A    -11.250388     8A    -11.213262     9A     -1.437752
      10A     -1.371781    11A     -1.132985    12A     -1.050329
      13A     -0.963853    14A     -0.930167    15A     -0.804446
      16A     -0.770770    17A     -0.722420    18A     -0.682598
      19A     -0.642306    20A     -0.635226    21A     -0.628357
      22A     -0.592584    23A     -0.566341    24A     -0.549199
      25A     -0.547765    26A     -0.523318    27A     -0.505829
      28A     -0.443777    29A     -0.351955    30A     -0.329557

  @DF-RHF Final Energy:  -377.83840212379590

   => Energetics <=

    Nuclear Repulsion Energy =            378.9530411781009320
    One-Electron Energy =               -1264.8949945136807855
    Two-Electron Energy =                 508.1035512117840085
    Total Energy =                       -377.8384021237959018
  Basis Set: (AUG-CC-PVTZ AUX)
    Blend: AUG-CC-PVTZ-RI
    Molecular point group: c1

    Geometry (in Angstrom), charge = 0, multiplicity = 1:

       Center              X                  Y                   Z               Mass
    ------------   -----------------  -----------------  -----------------  -----------------
         O           -1.479494605558     0.684022053804     0.011913869306    15.994914619570
         N            0.841879394442     0.511597053804    -0.031967130694    14.003074004430
         N            1.867345394442    -0.376908946196    -0.018031130694    14.003074004430
         C           -0.370253605558    -0.101502946196     0.003867869306    12.000000000000
         C           -0.145382605558    -1.470461946196     0.022577869306    12.000000000000
         C            1.101945394442     1.935897053804     0.018184869306    12.000000000000
         C            1.303432594442    -1.486837846196     0.005777769306    12.000000000000
         C           -2.698527605558    -0.064283946196    -0.012829130694    12.000000000000
         H           -0.875176605558    -2.266230946196     0.035493869306     1.007825032230
         H            1.153091394442     2.286222053804     1.052437869306     1.007825032230
         H            2.056468394442     2.109255053804    -0.477116130694     1.007825032230
         H            0.301140394442     2.459169053804    -0.505039130694     1.007825032230
         H            1.863092394442    -2.473705946196     0.007585869306     1.007825032230
         H           -3.498397605558     0.674704053804    -0.012428130694     1.007825032230
         H           -2.777090605558    -0.701602946196     0.873447869306     1.007825032230
         H           -2.755318605558    -0.679476946196    -0.916220130694     1.007825032230

  Basis Set: AUG-CC-PVTZ
    Blend: AUG-CC-PVTZ
  Basis Set: (AUG-CC-PVTZ AUX)
    Blend: AUG-CC-PVTZ-JKFIT
	 Reference Energy          =    -377.8384021237959018 [Eh]
	 Singles Energy            =      -0.0000000000000000 [Eh]
	 Same-Spin Energy          =      -0.3937291427521004 [Eh]
	 Opposite-Spin Energy      =      -1.2348378364370740 [Eh]
	 Correlation Energy        =      -1.6285669791891744 [Eh]
	 Total Energy              =    -379.4669691029851037 [Eh]

	 ================> DF-SCS-MP2 Energies <==================
	-----------------------------------------------------------
	 SCS Same-Spin Scale       =       0.3333333333333333 [-]
	 SCS Opposite-Spin Scale   =       1.2000000000000000 [-]
	 SCS Same-Spin Energy      =      -0.1312430475840334 [Eh]
	 SCS Opposite-Spin Energy  =      -1.4818054037244888 [Eh]
	 SCS Correlation Energy    =      -1.6130484513085221 [Eh]
	 SCS Total Energy          =    -379.4514505751044453 [Eh]
	-----------------------------------------------------------

  Dipole Moment: [D]
     X:    -2.8895      Y:     0.6123      Z:    -0.0036     Total:     2.9537

*** Psi4 exiting successfully. Buy a developer a beer!
