                               Psi4 1.4a3.dev225

  ==> Input File <==

--------------------------------------------------------------------------
#psi4
#
memory 32 gb

molecule  {
0 1
  O       -1.4373610     0.6812660     0.0112400
  N        0.8840130     0.5088410    -0.0326410
  N        1.9094790    -0.3796650    -0.0187050
  C       -0.3281200    -0.1042590     0.0031940
  C       -0.1032490    -1.4732180     0.0219040
  C        1.1440790     1.9331410     0.0175110
  C        1.3002790    -1.5787310     0.0070160
  C       -2.6563940    -0.0670400    -0.0135030
  H       -0.8330430    -2.2689870     0.0348200
  H        1.1952250     2.2834660     1.0517640
  H        2.0986020     2.1064990    -0.4777900
  H        0.3432740     2.4564130    -0.5057130
  H        1.9164025    -2.4930477     0.0069101
  H       -3.4562640     0.6719480    -0.0131020
  H       -2.7349570    -0.7043590     0.8727740
  H       -2.7131850    -0.6822330    -0.9168940
units angstrom
no_reorient  #important for SAPT in psi4, default
symmetry c1  #important for SAPT in psi4, default
}

set PROPERTIES_ORIGIN ["COM"]
properties('MP2/aug-cc-pvtz', properties = ['dipole'])
--------------------------------------------------------------------------

    Molecular point group: c1
  Charge       = 0
  Multiplicity = 1
  Basis Set: AUG-CC-PVTZ
    Blend: AUG-CC-PVTZ
  Basis Set: (AUG-CC-PVTZ AUX)
    Blend: AUG-CC-PVTZ-JKFIT

    Orbital Energies [Eh]
    ---------------------

    Doubly Occupied:

       1A    -20.609255     2A    -15.628565     3A    -15.573865
       4A    -11.335647     5A    -11.298076     6A    -11.264204
       7A    -11.254408     8A    -11.215872     9A     -1.436874
      10A     -1.356472    11A     -1.113883    12A     -1.049711
      13A     -0.964405    14A     -0.933373    15A     -0.803374
      16A     -0.771112    17A     -0.725257    18A     -0.682029
      19A     -0.644226    20A     -0.633050    21A     -0.621037
      22A     -0.593449    23A     -0.575917    24A     -0.546084
      25A     -0.544470    26A     -0.523460    27A     -0.501075
      28A     -0.448155    29A     -0.349761    30A     -0.320924

  @DF-RHF Final Energy:  -377.84325507827549

   => Energetics <=

    Nuclear Repulsion Energy =            377.3879744341945752
    One-Electron Energy =               -1261.8264802066403263
    Two-Electron Energy =                 506.5952506941702609
    Total Energy =                       -377.8432550782754902
  Basis Set: (AUG-CC-PVTZ AUX)
    Blend: AUG-CC-PVTZ-RI
    Molecular point group: c1

    Geometry (in Angstrom), charge = 0, multiplicity = 1:

       Center              X                  Y                   Z               Mass
    ------------   -----------------  -----------------  -----------------  -----------------
         O           -1.474745675978     0.693716192436     0.011709134921    15.994914619570
         N            0.846628324022     0.521291192436    -0.032171865079    14.003074004430
         N            1.872094324022    -0.367214807564    -0.018235865079    14.003074004430
         C           -0.365504675978    -0.091808807564     0.003663134921    12.000000000000
         C           -0.140633675978    -1.460767807564     0.022373134921    12.000000000000
         C            1.106694324022     1.945591192436     0.017980134921    12.000000000000
         C            1.262894324022    -1.566280807564     0.007485134921    12.000000000000
         C           -2.693778675978    -0.054589807564    -0.013033865079    12.000000000000
         H           -0.870427675978    -2.256536807564     0.035289134921     1.007825032230
         H            1.157840324022     2.295916192436     1.052233134921     1.007825032230
         H            2.061217324022     2.118949192436    -0.477320865079     1.007825032230
         H            0.305889324022     2.468863192436    -0.505243865079     1.007825032230
         H            1.879017824022    -2.480597507564     0.007379234921     1.007825032230
         H           -3.493648675978     0.684398192436    -0.012632865079     1.007825032230
         H           -2.772341675978    -0.691908807564     0.873243134921     1.007825032230
         H           -2.750569675978    -0.669782807564    -0.916424865079     1.007825032230

  Basis Set: AUG-CC-PVTZ
    Blend: AUG-CC-PVTZ
  Basis Set: (AUG-CC-PVTZ AUX)
    Blend: AUG-CC-PVTZ-JKFIT
	 Reference Energy          =    -377.8432550782754902 [Eh]
	 Singles Energy            =      -0.0000000000000000 [Eh]
	 Same-Spin Energy          =      -0.3964663552351971 [Eh]
	 Opposite-Spin Energy      =      -1.2397469322027708 [Eh]
	 Correlation Energy        =      -1.6362132874379678 [Eh]
	 Total Energy              =    -379.4794683657134442 [Eh]

	 ================> DF-SCS-MP2 Energies <==================
	-----------------------------------------------------------
	 SCS Same-Spin Scale       =       0.3333333333333333 [-]
	 SCS Opposite-Spin Scale   =       1.2000000000000000 [-]
	 SCS Same-Spin Energy      =      -0.1321554517450657 [Eh]
	 SCS Opposite-Spin Energy  =      -1.4876963186433250 [Eh]
	 SCS Correlation Energy    =      -1.6198517703883906 [Eh]
	 SCS Total Energy          =    -379.4631068486638696 [Eh]
	-----------------------------------------------------------

  Dipole Moment: [D]
     X:    -3.0007      Y:     0.6500      Z:     0.0030     Total:     3.0703

*** Psi4 exiting successfully. Buy a developer a beer!
