                               Psi4 1.3.2 release

  ==> Input File <==

--------------------------------------------------------------------------
#psi4
#
memory 32 gb

molecule  {
0 1
  O       -1.4373610     0.6812660     0.0112400
  N        0.8840130     0.5088410    -0.0326410
  N        1.9094790    -0.3796650    -0.0187050
  C       -0.3281200    -0.1042590     0.0031940
  C       -0.1032490    -1.4732180     0.0219040
  C        1.1261275     1.8348264     0.0140492
  C        1.3002790    -1.5787310     0.0070160
  C       -2.6563940    -0.0670400    -0.0135030
  H       -0.8330430    -2.2689870     0.0348200
  H        1.1952250     2.2834660     1.0517640
  H        2.0986020     2.1064990    -0.4777900
  H        0.3432740     2.4564130    -0.5057130
  H        1.9052260    -2.4764620     0.0069120
  H       -3.4562640     0.6719480    -0.0131020
  H       -2.7349570    -0.7043590     0.8727740
  H       -2.7131850    -0.6822330    -0.9168940
units angstrom
no_reorient  #important for SAPT in psi4, default
symmetry c1  #important for SAPT in psi4, default
}

set PROPERTIES_ORIGIN ["COM"]
properties('MP2/aug-cc-pvtz', properties = ['dipole'])
--------------------------------------------------------------------------

    Molecular point group: c1
  Charge       = 0
  Multiplicity = 1
  Basis Set: AUG-CC-PVTZ
    Blend: AUG-CC-PVTZ
  Basis Set: (AUG-CC-PVTZ AUX)
    Blend: AUG-CC-PVTZ-JKFIT

    Orbital Energies [Eh]
    ---------------------

    Doubly Occupied:

       1A    -20.611763     2A    -15.629912     3A    -15.576539
       4A    -11.339884     5A    -11.299638     6A    -11.262626
       7A    -11.256406     8A    -11.219324     9A     -1.441091
      10A     -1.368941    11A     -1.134838    12A     -1.055066
      13A     -0.966507    14A     -0.929223    15A     -0.811815
      16A     -0.774340    17A     -0.734779    18A     -0.686327
      19A     -0.649922    20A     -0.636635    21A     -0.627756
      22A     -0.596697    23A     -0.589708    24A     -0.531999
      25A     -0.525973    26A     -0.523102    27A     -0.500060
      28A     -0.452262    29A     -0.349052    30A     -0.324378

  @DF-RHF Final Energy:  -377.83308417382995

   => Energetics <=

    Nuclear Repulsion Energy =            379.5670851270996877
    One-Electron Energy =               -1265.9872124085820815
    Two-Electron Energy =                 508.5870431076523914
    Total Energy =                       -377.8330841738299455
  Basis Set: (AUG-CC-PVTZ AUX)
    Blend: AUG-CC-PVTZ-RI
    Molecular point group: c1

    Geometry (in Angstrom), charge = 0, multiplicity = 1:

       Center              X                  Y                   Z               Mass
    ------------   -----------------  -----------------  -----------------  -----------------
         O           -1.472722879733     0.704094754821     0.012079814265    15.994914619570
         N            0.848651120267     0.531669754821    -0.031801185735    14.003074004430
         N            1.874117120267    -0.356836245179    -0.017865185735    14.003074004430
         C           -0.363481879733    -0.081430245179     0.004033814265    12.000000000000
         C           -0.138610879733    -1.450389245179     0.022743814265    12.000000000000
         C            1.090765620267     1.857655154821     0.014889014265    12.000000000000
         C            1.264917120267    -1.555902245179     0.007855814265    12.000000000000
         C           -2.691755879733    -0.044211245179    -0.012663185735    12.000000000000
         H           -0.868404879733    -2.246158245179     0.035659814265     1.007825032230
         H            1.159863120267     2.306294754821     1.052603814265     1.007825032230
         H            2.063240120267     2.129327754821    -0.476950185735     1.007825032230
         H            0.307912120267     2.479241754821    -0.504873185735     1.007825032230
         H            1.869864120267    -2.453633245179     0.007751814265     1.007825032230
         H           -3.491625879733     0.694776754821    -0.012262185735     1.007825032230
         H           -2.770318879733    -0.681530245179     0.873613814265     1.007825032230
         H           -2.748546879733    -0.659404245179    -0.916054185735     1.007825032230

  Basis Set: AUG-CC-PVTZ
    Blend: AUG-CC-PVTZ
  Basis Set: (AUG-CC-PVTZ AUX)
    Blend: AUG-CC-PVTZ-JKFIT
	 Reference Energy          =    -377.8330841738299455 [Eh]
	 Singles Energy            =      -0.0000000000000000 [Eh]
	 Same-Spin Energy          =      -0.3972897094841403 [Eh]
	 Opposite-Spin Energy      =      -1.2401203090972572 [Eh]
	 Correlation Energy        =      -1.6374100185813976 [Eh]
	 Total Energy              =    -379.4704941924113655 [Eh]

	 ================> DF-SCS-MP2 Energies <==================
	-----------------------------------------------------------
	 SCS Same-Spin Scale       =       0.3333333333333333 [-]
	 SCS Opposite-Spin Scale   =       1.2000000000000000 [-]
	 SCS Same-Spin Energy      =      -0.1324299031613801 [Eh]
	 SCS Opposite-Spin Energy  =      -1.4881443709167086 [Eh]
	 SCS Correlation Energy    =      -1.6205742740780886 [Eh]
	 SCS Total Energy          =    -379.4536584479080261 [Eh]
	-----------------------------------------------------------

  Dipole Moment: [D]
     X:    -3.0856      Y:     0.3343      Z:    -0.0360     Total:     3.1038

*** Psi4 exiting successfully. Buy a developer a beer!
