                               Psi4 1.3.2 release

  ==> Input File <==

--------------------------------------------------------------------------
#psi4
#
memory 32 gb

molecule  {
0 1
  O       -1.4373610     0.6812660     0.0112400
  N        0.8840130     0.5088410    -0.0326410
  N        1.8778944    -0.4148903    -0.0209030
  C       -0.3281200    -0.1042590     0.0031940
  C       -0.1032490    -1.4732180     0.0219040
  C        1.1440790     1.9331410     0.0175110
  C        1.3002790    -1.5787310     0.0070160
  C       -2.6563940    -0.0670400    -0.0135030
  H       -0.8330430    -2.2689870     0.0348200
  H        1.1952250     2.2834660     1.0517640
  H        2.0986020     2.1064990    -0.4777900
  H        0.3432740     2.4564130    -0.5057130
  H        1.9052260    -2.4764620     0.0069120
  H       -3.4562640     0.6719480    -0.0131020
  H       -2.7349570    -0.7043590     0.8727740
  H       -2.7131850    -0.6822330    -0.9168940
units angstrom
no_reorient  #important for SAPT in psi4, default
symmetry c1  #important for SAPT in psi4, default
}

set PROPERTIES_ORIGIN ["COM"]
properties('MP2/aug-cc-pvtz', properties = ['dipole'])
--------------------------------------------------------------------------

    Molecular point group: c1
  Charge       = 0
  Multiplicity = 1
  Basis Set: AUG-CC-PVTZ
    Blend: AUG-CC-PVTZ
  Basis Set: (AUG-CC-PVTZ AUX)
    Blend: AUG-CC-PVTZ-JKFIT

    Orbital Energies [Eh]
    ---------------------

    Doubly Occupied:

       1A    -20.608245     2A    -15.626312     3A    -15.568357
       4A    -11.334159     5A    -11.296943     6A    -11.265523
       7A    -11.246115     8A    -11.211810     9A     -1.436238
      10A     -1.360922    11A     -1.124700    12A     -1.046062
      13A     -0.963341    14A     -0.936645    15A     -0.804204
      16A     -0.771762    17A     -0.726781    18A     -0.681537
      19A     -0.643574    20A     -0.633552    21A     -0.623103
      22A     -0.594026    23A     -0.580696    24A     -0.548631
      25A     -0.547790    26A     -0.523280    27A     -0.502245
      28A     -0.440700    29A     -0.351366    30A     -0.322977

  @DF-RHF Final Energy:  -377.84634513875415

   => Energetics <=

    Nuclear Repulsion Energy =            378.3921755214950053
    One-Electron Energy =               -1263.8338467955047690
    Two-Electron Energy =                 507.5953261352556183
    Total Energy =                       -377.8463451387541454
  Basis Set: (AUG-CC-PVTZ AUX)
    Blend: AUG-CC-PVTZ-RI
    Molecular point group: c1

    Geometry (in Angstrom), charge = 0, multiplicity = 1:

       Center              X                  Y                   Z               Mass
    ------------   -----------------  -----------------  -----------------  -----------------
         O           -1.470698463563     0.697968659175     0.011983772042    15.994914619570
         N            0.850675536437     0.525543659175    -0.031897227958    14.003074004430
         N            1.844556936437    -0.398187640825    -0.020159227958    14.003074004430
         C           -0.361457463563    -0.087556340825     0.003937772042    12.000000000000
         C           -0.136586463563    -1.456515340825     0.022647772042    12.000000000000
         C            1.110741536437     1.949843659175     0.018254772042    12.000000000000
         C            1.266941536437    -1.562028340825     0.007759772042    12.000000000000
         C           -2.689731463563    -0.050337340825    -0.012759227958    12.000000000000
         H           -0.866380463563    -2.252284340825     0.035563772042     1.007825032230
         H            1.161887536437     2.300168659175     1.052507772042     1.007825032230
         H            2.065264536437     2.123201659175    -0.477046227958     1.007825032230
         H            0.309936536437     2.473115659175    -0.504969227958     1.007825032230
         H            1.871888536437    -2.459759340825     0.007655772042     1.007825032230
         H           -3.489601463563     0.688650659175    -0.012358227958     1.007825032230
         H           -2.768294463563    -0.687656340825     0.873517772042     1.007825032230
         H           -2.746522463563    -0.665530340825    -0.916150227958     1.007825032230

  Basis Set: AUG-CC-PVTZ
    Blend: AUG-CC-PVTZ
  Basis Set: (AUG-CC-PVTZ AUX)
    Blend: AUG-CC-PVTZ-JKFIT
	 Reference Energy          =    -377.8463451387541454 [Eh]
	 Singles Energy            =      -0.0000000000000000 [Eh]
	 Same-Spin Energy          =      -0.3951689879951598 [Eh]
	 Opposite-Spin Energy      =      -1.2369711939319687 [Eh]
	 Correlation Energy        =      -1.6321401819271286 [Eh]
	 Total Energy              =    -379.4784853206812727 [Eh]

	 ================> DF-SCS-MP2 Energies <==================
	-----------------------------------------------------------
	 SCS Same-Spin Scale       =       0.3333333333333333 [-]
	 SCS Opposite-Spin Scale   =       1.2000000000000000 [-]
	 SCS Same-Spin Energy      =      -0.1317229959983866 [Eh]
	 SCS Opposite-Spin Energy  =      -1.4843654327183624 [Eh]
	 SCS Correlation Energy    =      -1.6160884287167490 [Eh]
	 SCS Total Energy          =    -379.4624335674708959 [Eh]
	-----------------------------------------------------------

  Dipole Moment: [D]
     X:    -2.8848      Y:     0.6821      Z:     0.0048     Total:     2.9644

*** Psi4 exiting successfully. Buy a developer a beer!
