                               Psi4 1.3.2 release

  ==> Input File <==

--------------------------------------------------------------------------
#psi4
#
memory 32 gb

molecule  {
0 1
  O       -1.4373610     0.6812660     0.0112400
  N        0.8840130     0.5088410    -0.0326410
  N        1.9967268    -0.2676901    -0.0234179
  C       -0.3281200    -0.1042590     0.0031940
  C       -0.1032490    -1.4732180     0.0219040
  C        1.1440790     1.9331410     0.0175110
  C        1.3002790    -1.5787310     0.0070160
  C       -2.6563940    -0.0670400    -0.0135030
  H       -0.8330430    -2.2689870     0.0348200
  H        1.1952250     2.2834660     1.0517640
  H        2.0986020     2.1064990    -0.4777900
  H        0.3432740     2.4564130    -0.5057130
  H        1.9052260    -2.4764620     0.0069120
  H       -3.4562640     0.6719480    -0.0131020
  H       -2.7349570    -0.7043590     0.8727740
  H       -2.7131850    -0.6822330    -0.9168940
units angstrom
no_reorient  #important for SAPT in psi4, default
symmetry c1  #important for SAPT in psi4, default
}

set PROPERTIES_ORIGIN ["COM"]
properties('MP2/aug-cc-pvtz', properties = ['dipole'])
--------------------------------------------------------------------------

    Molecular point group: c1
  Charge       = 0
  Multiplicity = 1
  Basis Set: AUG-CC-PVTZ
    Blend: AUG-CC-PVTZ
  Basis Set: (AUG-CC-PVTZ AUX)
    Blend: AUG-CC-PVTZ-JKFIT

    Orbital Energies [Eh]
    ---------------------

    Doubly Occupied:

       1A    -20.611725     2A    -15.635467     3A    -15.586766
       4A    -11.339417     5A    -11.301101     6A    -11.267773
       7A    -11.260223     8A    -11.227285     9A     -1.438767
      10A     -1.346646    11A     -1.089409    12A     -1.058006
      13A     -0.966561    14A     -0.927882    15A     -0.808964
      16A     -0.765378    17A     -0.725810    18A     -0.683633
      19A     -0.648950    20A     -0.631869    21A     -0.615228
      22A     -0.594281    23A     -0.572548    24A     -0.542641
      25A     -0.533405    26A     -0.523634    27A     -0.497418
      28A     -0.459134    29A     -0.353738    30A     -0.307470

  @DF-RHF Final Energy:  -377.81240030412403

   => Energetics <=

    Nuclear Repulsion Energy =            375.1248230580077916
    One-Electron Energy =               -1257.2321836224523395
    Two-Electron Energy =                 504.2949602603205221
    Total Energy =                       -377.8124003041240258
  Basis Set: (AUG-CC-PVTZ AUX)
    Blend: AUG-CC-PVTZ-RI
    Molecular point group: c1

    Geometry (in Angstrom), charge = 0, multiplicity = 1:

       Center              X                  Y                   Z               Mass
    ------------   -----------------  -----------------  -----------------  -----------------
         O           -1.485547334718     0.679575049320     0.012298024940    15.994914619570
         N            0.835826665282     0.507150049320    -0.031582975060    14.003074004430
         N            1.948540465282    -0.269381050680    -0.022359875060    14.003074004430
         C           -0.376306334718    -0.105949950680     0.004252024940    12.000000000000
         C           -0.151435334718    -1.474908950680     0.022962024940    12.000000000000
         C            1.095892665282     1.931450049320     0.018569024940    12.000000000000
         C            1.252092665282    -1.580421950680     0.008074024940    12.000000000000
         C           -2.704580334718    -0.068730950680    -0.012444975060    12.000000000000
         H           -0.881229334718    -2.270677950680     0.035878024940     1.007825032230
         H            1.147038665282     2.281775049320     1.052822024940     1.007825032230
         H            2.050415665282     2.104808049320    -0.476731975060     1.007825032230
         H            0.295087665282     2.454722049320    -0.504654975060     1.007825032230
         H            1.857039665282    -2.478152950680     0.007970024940     1.007825032230
         H           -3.504450334718     0.670257049320    -0.012043975060     1.007825032230
         H           -2.783143334718    -0.706049950680     0.873832024940     1.007825032230
         H           -2.761371334718    -0.683923950680    -0.915835975060     1.007825032230

  Basis Set: AUG-CC-PVTZ
    Blend: AUG-CC-PVTZ
  Basis Set: (AUG-CC-PVTZ AUX)
    Blend: AUG-CC-PVTZ-JKFIT
	 Reference Energy          =    -377.8124003041240258 [Eh]
	 Singles Energy            =      -0.0000000000000000 [Eh]
	 Same-Spin Energy          =      -0.4007876516263199 [Eh]
	 Opposite-Spin Energy      =      -1.2490854461367231 [Eh]
	 Correlation Energy        =      -1.6498730977630429 [Eh]
	 Total Energy              =    -379.4622734018870460 [Eh]

	 ================> DF-SCS-MP2 Energies <==================
	-----------------------------------------------------------
	 SCS Same-Spin Scale       =       0.3333333333333333 [-]
	 SCS Opposite-Spin Scale   =       1.2000000000000000 [-]
	 SCS Same-Spin Energy      =      -0.1335958838754399 [Eh]
	 SCS Opposite-Spin Energy  =      -1.4989025353640677 [Eh]
	 SCS Correlation Energy    =      -1.6324984192395076 [Eh]
	 SCS Total Energy          =    -379.4448987233635080 [Eh]
	-----------------------------------------------------------

  Dipole Moment: [D]
     X:    -3.2604      Y:     0.5469      Z:     0.0099     Total:     3.3060

*** Psi4 exiting successfully. Buy a developer a beer!
