                               Psi4 1.4a3.dev225

  ==> Input File <==

--------------------------------------------------------------------------
#psi4
#
memory 32 gb

molecule  {
0 1
  O       -1.4373610     0.6812660     0.0112400
  N        0.8840130     0.5088410    -0.0326410
  N        1.9094790    -0.3796650    -0.0187050
  C       -0.3281200    -0.1042590     0.0031940
  C       -0.1064905    -1.4534843     0.0216343
  C        1.1440790     1.9331410     0.0175110
  C        1.3002790    -1.5787310     0.0070160
  C       -2.6563940    -0.0670400    -0.0135030
  H       -0.8330430    -2.2689870     0.0348200
  H        1.1952250     2.2834660     1.0517640
  H        2.0986020     2.1064990    -0.4777900
  H        0.3432740     2.4564130    -0.5057130
  H        1.9052260    -2.4764620     0.0069120
  H       -3.4562640     0.6719480    -0.0131020
  H       -2.7349570    -0.7043590     0.8727740
  H       -2.7131850    -0.6822330    -0.9168940
units angstrom
no_reorient  #important for SAPT in psi4, default
symmetry c1  #important for SAPT in psi4, default
}

set PROPERTIES_ORIGIN ["COM"]
properties('MP2/aug-cc-pvtz', properties = ['dipole'])
--------------------------------------------------------------------------

    Molecular point group: c1
  Charge       = 0
  Multiplicity = 1
  Basis Set: AUG-CC-PVTZ
    Blend: AUG-CC-PVTZ
  Basis Set: (AUG-CC-PVTZ AUX)
    Blend: AUG-CC-PVTZ-JKFIT

    Orbital Energies [Eh]
    ---------------------

    Doubly Occupied:

       1A    -20.608339     2A    -15.626987     3A    -15.575102
       4A    -11.332717     5A    -11.297586     6A    -11.263618
       7A    -11.252410     8A    -11.214886     9A     -1.436394
      10A     -1.356688    11A     -1.113749    12A     -1.052411
      13A     -0.963920    14A     -0.933046    15A     -0.805556
      16A     -0.770423    17A     -0.726299    18A     -0.681946
      19A     -0.643956    20A     -0.632740    21A     -0.618937
      22A     -0.595245    23A     -0.575643    24A     -0.546019
      25A     -0.544962    26A     -0.524851    27A     -0.500578
      28A     -0.448163    29A     -0.348922    30A     -0.323220

  @DF-RHF Final Energy:  -377.84380838582035

   => Energetics <=

    Nuclear Repulsion Energy =            377.8511025400484300
    One-Electron Energy =               -1262.7591968813951553
    Two-Electron Energy =                 507.0642859555263158
    Total Energy =                       -377.8438083858203527
  Basis Set: (AUG-CC-PVTZ AUX)
    Blend: AUG-CC-PVTZ-RI
    Molecular point group: c1

    Geometry (in Angstrom), charge = 0, multiplicity = 1:

       Center              X                  Y                   Z               Mass
    ------------   -----------------  -----------------  -----------------  -----------------
         O           -1.474298055802     0.691453907971     0.011737997846    15.994914619570
         N            0.847075944198     0.519028907971    -0.032143002154    14.003074004430
         N            1.872541944198    -0.369477092029    -0.018207002154    14.003074004430
         C           -0.365057055802    -0.094071092029     0.003691997846    12.000000000000
         C           -0.143427555802    -1.443296392029     0.022132297846    12.000000000000
         C            1.107141944198     1.943328907971     0.018008997846    12.000000000000
         C            1.263341944198    -1.568543092029     0.007513997846    12.000000000000
         C           -2.693331055802    -0.056852092029    -0.013005002154    12.000000000000
         H           -0.869980055802    -2.258799092029     0.035317997846     1.007825032230
         H            1.158287944198     2.293653907971     1.052261997846     1.007825032230
         H            2.061664944198     2.116686907971    -0.477292002154     1.007825032230
         H            0.306336944198     2.466600907971    -0.505215002154     1.007825032230
         H            1.868288944198    -2.466274092029     0.007409997846     1.007825032230
         H           -3.493201055802     0.682135907971    -0.012604002154     1.007825032230
         H           -2.771894055802    -0.694171092029     0.873271997846     1.007825032230
         H           -2.750122055802    -0.672045092029    -0.916396002154     1.007825032230

  Basis Set: AUG-CC-PVTZ
    Blend: AUG-CC-PVTZ
  Basis Set: (AUG-CC-PVTZ AUX)
    Blend: AUG-CC-PVTZ-JKFIT
	 Reference Energy          =    -377.8438083858203527 [Eh]
	 Singles Energy            =      -0.0000000000000000 [Eh]
	 Same-Spin Energy          =      -0.3963154696260822 [Eh]
	 Opposite-Spin Energy      =      -1.2394058203663638 [Eh]
	 Correlation Energy        =      -1.6357212899924460 [Eh]
	 Total Energy              =    -379.4795296758127847 [Eh]

	 ================> DF-SCS-MP2 Energies <==================
	-----------------------------------------------------------
	 SCS Same-Spin Scale       =       0.3333333333333333 [-]
	 SCS Opposite-Spin Scale   =       1.2000000000000000 [-]
	 SCS Same-Spin Energy      =      -0.1321051565420274 [Eh]
	 SCS Opposite-Spin Energy  =      -1.4872869844396366 [Eh]
	 SCS Correlation Energy    =      -1.6193921409816641 [Eh]
	 SCS Total Energy          =    -379.4632005268020407 [Eh]
	-----------------------------------------------------------

  Dipole Moment: [D]
     X:    -2.9829      Y:     0.6113      Z:     0.0024     Total:     3.0449

*** Psi4 exiting successfully. Buy a developer a beer!
