                               Psi4 1.3.2 release

  ==> Input File <==

--------------------------------------------------------------------------
#psi4
#
memory 32 gb

molecule  {
0 1
  O       -1.4373610     0.6812660     0.0112400
  N        0.8840130     0.5088410    -0.0326410
  N        1.9094790    -0.3796650    -0.0187050
  C       -0.3852481     0.0256987     0.0119903
  C       -0.1032490    -1.4732180     0.0219040
  C        1.1440790     1.9331410     0.0175110
  C        1.3002790    -1.5787310     0.0070160
  C       -2.6563940    -0.0670400    -0.0135030
  H       -0.8330430    -2.2689870     0.0348200
  H        1.1952250     2.2834660     1.0517640
  H        2.0986020     2.1064990    -0.4777900
  H        0.3432740     2.4564130    -0.5057130
  H        1.9052260    -2.4764620     0.0069120
  H       -3.4562640     0.6719480    -0.0131020
  H       -2.7349570    -0.7043590     0.8727740
  H       -2.7131850    -0.6822330    -0.9168940
units angstrom
no_reorient  #important for SAPT in psi4, default
symmetry c1  #important for SAPT in psi4, default
}

set PROPERTIES_ORIGIN ["COM"]
properties('MP2/aug-cc-pvtz', properties = ['dipole'])
--------------------------------------------------------------------------

    Molecular point group: c1
  Charge       = 0
  Multiplicity = 1
  Basis Set: AUG-CC-PVTZ
    Blend: AUG-CC-PVTZ
  Basis Set: (AUG-CC-PVTZ AUX)
    Blend: AUG-CC-PVTZ-JKFIT

    Orbital Energies [Eh]
    ---------------------

    Doubly Occupied:

       1A    -20.629243     2A    -15.628444     3A    -15.560809
       4A    -11.349041     5A    -11.314108     6A    -11.260530
       7A    -11.247169     8A    -11.213657     9A     -1.499784
      10A     -1.349970    11A     -1.114253    12A     -1.035195
      13A     -0.977860    14A     -0.931188    15A     -0.800577
      16A     -0.793269    17A     -0.723824    18A     -0.707957
      19A     -0.670923    20A     -0.633321    21A     -0.620913
      22A     -0.590910    23A     -0.570931    24A     -0.553490
      25A     -0.548936    26A     -0.514090    27A     -0.502876
      28A     -0.438390    29A     -0.344896    30A     -0.294171

  @DF-RHF Final Energy:  -377.81748671286709

   => Energetics <=

    Nuclear Repulsion Energy =            377.6816836661503771
    One-Electron Energy =               -1262.1568910035468889
    Two-Electron Energy =                 506.6577206245294747
    Total Energy =                       -377.8174867128670940
  Basis Set: (AUG-CC-PVTZ AUX)
    Blend: AUG-CC-PVTZ-RI
    Molecular point group: c1

    Geometry (in Angstrom), charge = 0, multiplicity = 1:

       Center              X                  Y                   Z               Mass
    ------------   -----------------  -----------------  -----------------  -----------------
         O           -1.468527771454     0.679650902733     0.010767192527    15.994914619570
         N            0.852846228546     0.507225902733    -0.033113807473    14.003074004430
         N            1.878312228546    -0.381280097267    -0.019177807473    14.003074004430
         C           -0.416414871454     0.024083602733     0.011517492527    12.000000000000
         C           -0.134415771454    -1.474833097267     0.021431192527    12.000000000000
         C            1.112912228546     1.931525902733     0.017038192527    12.000000000000
         C            1.269112228546    -1.580346097267     0.006543192527    12.000000000000
         C           -2.687560771454    -0.068655097267    -0.013975807473    12.000000000000
         H           -0.864209771454    -2.270602097267     0.034347192527     1.007825032230
         H            1.164058228546     2.281850902733     1.051291192527     1.007825032230
         H            2.067435228546     2.104883902733    -0.478262807473     1.007825032230
         H            0.312107228546     2.454797902733    -0.506185807473     1.007825032230
         H            1.874059228546    -2.478077097267     0.006439192527     1.007825032230
         H           -3.487430771454     0.670332902733    -0.013574807473     1.007825032230
         H           -2.766123771454    -0.705974097267     0.872301192527     1.007825032230
         H           -2.744351771454    -0.683848097267    -0.917366807473     1.007825032230

  Basis Set: AUG-CC-PVTZ
    Blend: AUG-CC-PVTZ
  Basis Set: (AUG-CC-PVTZ AUX)
    Blend: AUG-CC-PVTZ-JKFIT
	 Reference Energy          =    -377.8174867128670940 [Eh]
	 Singles Energy            =      -0.0000000000000000 [Eh]
	 Same-Spin Energy          =      -0.3968502954349173 [Eh]
	 Opposite-Spin Energy      =      -1.2389188759217760 [Eh]
	 Correlation Energy        =      -1.6357691713566933 [Eh]
	 Total Energy              =    -379.4532558842237790 [Eh]

	 ================> DF-SCS-MP2 Energies <==================
	-----------------------------------------------------------
	 SCS Same-Spin Scale       =       0.3333333333333333 [-]
	 SCS Opposite-Spin Scale   =       1.2000000000000000 [-]
	 SCS Same-Spin Energy      =      -0.1322834318116391 [Eh]
	 SCS Opposite-Spin Energy  =      -1.4867026511061312 [Eh]
	 SCS Correlation Energy    =      -1.6189860829177702 [Eh]
	 SCS Total Energy          =    -379.4364727957848800 [Eh]
	-----------------------------------------------------------

  Dipole Moment: [D]
     X:    -3.7328      Y:     1.1309      Z:    -0.0009     Total:     3.9004

*** Psi4 exiting successfully. Buy a developer a beer!
