                               Psi4 1.4a3.dev225

  ==> Input File <==

--------------------------------------------------------------------------
#psi4
#
memory 32 gb

molecule  {
0 1
  O       -1.4373610     0.6812660     0.0112400
  N        0.8840130     0.5088410    -0.0326410
  N        1.9094790    -0.3796650    -0.0187050
  C       -0.3281200    -0.1042590     0.0031940
  C       -0.1032490    -1.4732180     0.0219040
  C        1.1440790     1.9331410     0.0175110
  C        1.3002790    -1.5787310     0.0070160
  C       -2.6563940    -0.0670400    -0.0135030
  H       -0.8465599    -2.2837259     0.0350592
  H        1.1952250     2.2834660     1.0517640
  H        2.0986020     2.1064990    -0.4777900
  H        0.3432740     2.4564130    -0.5057130
  H        1.9052260    -2.4764620     0.0069120
  H       -3.4562640     0.6719480    -0.0131020
  H       -2.7349570    -0.7043590     0.8727740
  H       -2.7131850    -0.6822330    -0.9168940
units angstrom
no_reorient  #important for SAPT in psi4, default
symmetry c1  #important for SAPT in psi4, default
}

set PROPERTIES_ORIGIN ["COM"]
properties('MP2/aug-cc-pvtz', properties = ['dipole'])
--------------------------------------------------------------------------

    Molecular point group: c1
  Charge       = 0
  Multiplicity = 1
  Basis Set: AUG-CC-PVTZ
    Blend: AUG-CC-PVTZ
  Basis Set: (AUG-CC-PVTZ AUX)
    Blend: AUG-CC-PVTZ-JKFIT

    Orbital Energies [Eh]
    ---------------------

    Doubly Occupied:

       1A    -20.609170     2A    -15.628582     3A    -15.573880
       4A    -11.335678     5A    -11.297948     6A    -11.264203
       7A    -11.252325     8A    -11.217943     9A     -1.436800
      10A     -1.356470    11A     -1.114107    12A     -1.049333
      13A     -0.964012    14A     -0.933806    15A     -0.804084
      16A     -0.770875    17A     -0.725507    18A     -0.681962
      19A     -0.643616    20A     -0.633012    21A     -0.619704
      22A     -0.593617    23A     -0.576688    24A     -0.546020
      25A     -0.544880    26A     -0.523369    27A     -0.501002
      28A     -0.448250    29A     -0.349760    30A     -0.320913

  @DF-RHF Final Energy:  -377.84322993924854

   => Energetics <=

    Nuclear Repulsion Energy =            377.3906956643264721
    One-Electron Energy =               -1261.8328162902191707
    Two-Electron Energy =                 506.5988906866441539
    Total Energy =                       -377.8432299392485447
  Basis Set: (AUG-CC-PVTZ AUX)
    Blend: AUG-CC-PVTZ-RI
    Molecular point group: c1

    Geometry (in Angstrom), charge = 0, multiplicity = 1:

       Center              X                  Y                   Z               Mass
    ------------   -----------------  -----------------  -----------------  -----------------
         O           -1.474523600186     0.693699583562     0.011706966630    15.994914619570
         N            0.846850399814     0.521274583562    -0.032174033370    14.003074004430
         N            1.872316399814    -0.367231416438    -0.018238033370    14.003074004430
         C           -0.365282600186    -0.091825416438     0.003660966630    12.000000000000
         C           -0.140411600186    -1.460784416438     0.022370966630    12.000000000000
         C            1.106916399814     1.945574583562     0.017977966630    12.000000000000
         C            1.263116399814    -1.566297416438     0.007482966630    12.000000000000
         C           -2.693556600186    -0.054606416438    -0.013036033370    12.000000000000
         H           -0.883722500186    -2.271292316438     0.035526166630     1.007825032230
         H            1.158062399814     2.295899583562     1.052230966630     1.007825032230
         H            2.061439399814     2.118932583562    -0.477323033370     1.007825032230
         H            0.306111399814     2.468846583562    -0.505246033370     1.007825032230
         H            1.868063399814    -2.464028416438     0.007378966630     1.007825032230
         H           -3.493426600186     0.684381583562    -0.012635033370     1.007825032230
         H           -2.772119600186    -0.691925416438     0.873240966630     1.007825032230
         H           -2.750347600186    -0.669799416438    -0.916427033370     1.007825032230

  Basis Set: AUG-CC-PVTZ
    Blend: AUG-CC-PVTZ
  Basis Set: (AUG-CC-PVTZ AUX)
    Blend: AUG-CC-PVTZ-JKFIT
	 Reference Energy          =    -377.8432299392485447 [Eh]
	 Singles Energy            =      -0.0000000000000000 [Eh]
	 Same-Spin Energy          =      -0.3964765887034299 [Eh]
	 Opposite-Spin Energy      =      -1.2397454216908228 [Eh]
	 Correlation Energy        =      -1.6362220103942526 [Eh]
	 Total Energy              =    -379.4794519496427938 [Eh]

	 ================> DF-SCS-MP2 Energies <==================
	-----------------------------------------------------------
	 SCS Same-Spin Scale       =       0.3333333333333333 [-]
	 SCS Opposite-Spin Scale   =       1.2000000000000000 [-]
	 SCS Same-Spin Energy      =      -0.1321588629011433 [Eh]
	 SCS Opposite-Spin Energy  =      -1.4876945060289872 [Eh]
	 SCS Correlation Energy    =      -1.6198533689301304 [Eh]
	 SCS Total Energy          =    -379.4630833081786818 [Eh]
	-----------------------------------------------------------

  Dipole Moment: [D]
     X:    -2.9958      Y:     0.6464      Z:     0.0030     Total:     3.0647

*** Psi4 exiting successfully. Buy a developer a beer!
