                               Psi4 1.3.2 release

  ==> Input File <==

--------------------------------------------------------------------------
#psi4
#
memory 32 gb

molecule  {
0 1
  O       -1.9055520     0.0929760    -0.0899000
  C        0.5130240     0.5226370    -0.0435640
  C       -0.6201305    -0.4907292     0.0273679
  C        1.8999330    -0.1117823     0.0151821
  H        0.3948460     1.0949950    -0.9695230
  H        0.4010840     1.2348120     0.7851170
  H       -0.5390240    -1.1996390    -0.8096500
  H       -0.5298410    -1.0886070     0.9551710
  H        2.0366680    -0.8174960    -0.8181390
  H        2.6849400     0.6290660    -0.0366100
  H        2.0280600    -0.6855490     0.9457650
  H       -2.0090520     0.6990260     0.6628270
units angstrom
no_reorient  #important for SAPT in psi4, default
symmetry c1  #important for SAPT in psi4, default
}

set PROPERTIES_ORIGIN ["COM"]
properties('MP2/aug-cc-pvtz', properties = ['dipole'])
--------------------------------------------------------------------------

    Molecular point group: c1
  Charge       = 0
  Multiplicity = 1
  Basis Set: AUG-CC-PVTZ
    Blend: AUG-CC-PVTZ
  Basis Set: (AUG-CC-PVTZ AUX)
    Blend: AUG-CC-PVTZ-JKFIT

    Orbital Energies [Eh]
    ---------------------

    Doubly Occupied:

       1A    -20.558033     2A    -11.273536     3A    -11.223733
       4A    -11.220316     5A     -1.357913     6A     -1.053545
       7A     -0.915766     8A     -0.814914     9A     -0.689678
      10A     -0.631959    11A     -0.599002    12A     -0.587217
      13A     -0.547098    14A     -0.500332    15A     -0.499688
      16A     -0.469924    17A     -0.437002

  @DF-RHF Final Energy:  -193.19155561638081

   => Energetics <=

    Nuclear Repulsion Energy =            130.2049944206088981
    One-Electron Energy =                -520.0337853271266795
    Two-Electron Energy =                 196.6372352901369709
    Total Energy =                       -193.1915556163808105
  Basis Set: (AUG-CC-PVTZ AUX)
    Blend: AUG-CC-PVTZ-RI
    Molecular point group: c1

    Geometry (in Angstrom), charge = 0, multiplicity = 1:

       Center              X                  Y                   Z               Mass
    ------------   -----------------  -----------------  -----------------  -----------------
         O           -1.831246847607     0.086412068979    -0.077752340271    15.994914619570
         C            0.587329152393     0.516073068979    -0.031416340271    12.000000000000
         C           -0.545825347607    -0.497293131021     0.039515559729    12.000000000000
         C            1.974238152393    -0.118346231021     0.027329759729    12.000000000000
         H            0.469151152393     1.088431068979    -0.957375340271     1.007825032230
         H            0.475389152393     1.228248068979     0.797264659729     1.007825032230
         H           -0.464718847607    -1.206202931021    -0.797502340271     1.007825032230
         H           -0.455535847607    -1.095170931021     0.967318659729     1.007825032230
         H            2.110973152393    -0.824059931021    -0.805991340271     1.007825032230
         H            2.759245152393     0.622502068979    -0.024462340271     1.007825032230
         H            2.102365152393    -0.692112931021     0.957912659729     1.007825032230
         H           -1.934746847607     0.692462068979     0.674974659729     1.007825032230

  Basis Set: AUG-CC-PVTZ
    Blend: AUG-CC-PVTZ
  Basis Set: (AUG-CC-PVTZ AUX)
    Blend: AUG-CC-PVTZ-JKFIT
	 Reference Energy          =    -193.1915556163808105 [Eh]
	 Singles Energy            =      -0.0000000000000000 [Eh]
	 Same-Spin Energy          =      -0.1905898037416722 [Eh]
	 Opposite-Spin Energy      =      -0.6717498198904670 [Eh]
	 Correlation Energy        =      -0.8623396236321392 [Eh]
	 Total Energy              =    -194.0538952400129631 [Eh]

	 ================> DF-SCS-MP2 Energies <==================
	-----------------------------------------------------------
	 SCS Same-Spin Scale       =       0.3333333333333333 [-]
	 SCS Opposite-Spin Scale   =       1.2000000000000000 [-]
	 SCS Same-Spin Energy      =      -0.0635299345805574 [Eh]
	 SCS Opposite-Spin Energy  =      -0.8060997838685604 [Eh]
	 SCS Correlation Energy    =      -0.8696297184491179 [Eh]
	 SCS Total Energy          =    -194.0611853348299292 [Eh]
	-----------------------------------------------------------

  Dipole Moment: [D]
     X:     1.3134      Y:     0.3921      Z:     1.1262     Total:     1.7740

*** Psi4 exiting successfully. Buy a developer a beer!
