                               Psi4 1.3.2 release

  ==> Input File <==

--------------------------------------------------------------------------
#psi4
#
memory 32 gb

molecule  {
0 1
  O       -1.9009273     0.1065912    -0.0695260
  C        0.5130240     0.5226370    -0.0435640
  C       -0.6112230    -0.5005450     0.0281910
  C        1.8943210    -0.1238280     0.0160790
  H        0.3948460     1.0949950    -0.9695230
  H        0.4010840     1.2348120     0.7851170
  H       -0.5214619    -1.2044349    -0.8039176
  H       -0.5298410    -1.0886070     0.9551710
  H        2.0366680    -0.8174960    -0.8181390
  H        2.6849400     0.6290660    -0.0366100
  H        2.0280600    -0.6855490     0.9457650
  H       -2.0090520     0.6990260     0.6628270
units angstrom
no_reorient  #important for SAPT in psi4, default
symmetry c1  #important for SAPT in psi4, default
}

set PROPERTIES_ORIGIN ["COM"]
properties('MP2/aug-cc-pvtz', properties = ['dipole'])
--------------------------------------------------------------------------

    Molecular point group: c1
  Charge       = 0
  Multiplicity = 1
  Basis Set: AUG-CC-PVTZ
    Blend: AUG-CC-PVTZ
  Basis Set: (AUG-CC-PVTZ AUX)
    Blend: AUG-CC-PVTZ-JKFIT

    Orbital Energies [Eh]
    ---------------------

    Doubly Occupied:

       1A    -20.553454     2A    -11.273521     3A    -11.223698
       4A    -11.220071     5A     -1.356987     6A     -1.054753
       7A     -0.917561     8A     -0.816256     9A     -0.690531
      10A     -0.634665    11A     -0.597025    12A     -0.586302
      13A     -0.546682    14A     -0.501528    15A     -0.499681
      16A     -0.471593    17A     -0.437225

  @DF-RHF Final Energy:  -193.19284560269782

   => Energetics <=

    Nuclear Repulsion Energy =            130.2882605864692493
    One-Electron Energy =                -520.1991478043637471
    Two-Electron Energy =                 196.7180416151966540
    Total Energy =                       -193.1928456026978154
  Basis Set: (AUG-CC-PVTZ AUX)
    Blend: AUG-CC-PVTZ-RI
    Molecular point group: c1

    Geometry (in Angstrom), charge = 0, multiplicity = 1:

       Center              X                  Y                   Z               Mass
    ------------   -----------------  -----------------  -----------------  -----------------
         O           -1.828807006669     0.100849771652    -0.063244344673    15.994914619570
         C            0.585144293331     0.516895571652    -0.037282344673    12.000000000000
         C           -0.539102706669    -0.506286428348     0.034472655327    12.000000000000
         C            1.966441293331    -0.129569428348     0.022360655327    12.000000000000
         H            0.466966293331     1.089253571652    -0.963241344673     1.007825032230
         H            0.473204293331     1.229070571652     0.791398655327     1.007825032230
         H           -0.449341606669    -1.210176328348    -0.797635944673     1.007825032230
         H           -0.457720706669    -1.094348428348     0.961452655327     1.007825032230
         H            2.108788293331    -0.823237428348    -0.811857344673     1.007825032230
         H            2.757060293331     0.623324571652    -0.030328344673     1.007825032230
         H            2.100180293331    -0.691290428348     0.952046655327     1.007825032230
         H           -1.936931706669     0.693284571652     0.669108655327     1.007825032230

  Basis Set: AUG-CC-PVTZ
    Blend: AUG-CC-PVTZ
  Basis Set: (AUG-CC-PVTZ AUX)
    Blend: AUG-CC-PVTZ-JKFIT
	 Reference Energy          =    -193.1928456026978154 [Eh]
	 Singles Energy            =      -0.0000000000000000 [Eh]
	 Same-Spin Energy          =      -0.1902615011353762 [Eh]
	 Opposite-Spin Energy      =      -0.6710234011659211 [Eh]
	 Correlation Energy        =      -0.8612849023012972 [Eh]
	 Total Energy              =    -194.0541305049991081 [Eh]

	 ================> DF-SCS-MP2 Energies <==================
	-----------------------------------------------------------
	 SCS Same-Spin Scale       =       0.3333333333333333 [-]
	 SCS Opposite-Spin Scale   =       1.2000000000000000 [-]
	 SCS Same-Spin Energy      =      -0.0634205003784587 [Eh]
	 SCS Opposite-Spin Energy  =      -0.8052280813991053 [Eh]
	 SCS Correlation Energy    =      -0.8686485817775640 [Eh]
	 SCS Total Energy          =    -194.0614941844753787 [Eh]
	-----------------------------------------------------------

  Dipole Moment: [D]
     X:     1.3540      Y:     0.3406      Z:     1.1055     Total:     1.7808

*** Psi4 exiting successfully. Buy a developer a beer!
