                               Psi4 1.3.2 release

  ==> Input File <==

--------------------------------------------------------------------------
#psi4
#
memory 32 gb

molecule  {
0 1
  O       -1.9097824     0.0791800    -0.1102380
  C        0.5130240     0.5226370    -0.0435640
  C       -0.6112230    -0.5005450     0.0281910
  C        1.8943210    -0.1238280     0.0160790
  H        0.3948460     1.0949950    -0.9695230
  H        0.4010840     1.2348120     0.7851170
  H       -0.5566081    -1.1946302    -0.8151272
  H       -0.5298410    -1.0886070     0.9551710
  H        2.0366680    -0.8174960    -0.8181390
  H        2.6849400     0.6290660    -0.0366100
  H        2.0280600    -0.6855490     0.9457650
  H       -2.0090520     0.6990260     0.6628270
units angstrom
no_reorient  #important for SAPT in psi4, default
symmetry c1  #important for SAPT in psi4, default
}

set PROPERTIES_ORIGIN ["COM"]
properties('MP2/aug-cc-pvtz', properties = ['dipole'])
--------------------------------------------------------------------------

    Molecular point group: c1
  Charge       = 0
  Multiplicity = 1
  Basis Set: AUG-CC-PVTZ
    Blend: AUG-CC-PVTZ
  Basis Set: (AUG-CC-PVTZ AUX)
    Blend: AUG-CC-PVTZ-JKFIT

    Orbital Energies [Eh]
    ---------------------

    Doubly Occupied:

       1A    -20.559081     2A    -11.272410     3A    -11.224449
       4A    -11.220471     5A     -1.348526     6A     -1.053900
       7A     -0.914278     8A     -0.814559     9A     -0.686306
      10A     -0.627967    11A     -0.596157    12A     -0.586926
      13A     -0.542852    14A     -0.501485    15A     -0.501201
      16A     -0.472506    17A     -0.437226

  @DF-RHF Final Energy:  -193.18934222008636

   => Energetics <=

    Nuclear Repulsion Energy =            129.9900875542182348
    One-Electron Energy =                -519.6382582487013906
    Two-Electron Energy =                 196.4588284743967961
    Total Energy =                       -193.1893422200863597
  Basis Set: (AUG-CC-PVTZ AUX)
    Blend: AUG-CC-PVTZ-RI
    Molecular point group: c1

    Geometry (in Angstrom), charge = 0, multiplicity = 1:

       Center              X                  Y                   Z               Mass
    ------------   -----------------  -----------------  -----------------  -----------------
         O           -1.834713969555     0.080574371100    -0.092925547265    15.994914619570
         C            0.588092430445     0.524031371100    -0.026251547265    12.000000000000
         C           -0.536154569555    -0.499150628900     0.045503452735    12.000000000000
         C            1.969389430445    -0.122433628900     0.033391452735    12.000000000000
         H            0.469914430445     1.096389371100    -0.952210547265     1.007825032230
         H            0.476152430445     1.236206371100     0.802429452735     1.007825032230
         H           -0.481539669555    -1.193235828900    -0.797814747265     1.007825032230
         H           -0.454772569555    -1.087212628900     0.972483452735     1.007825032230
         H            2.111736430445    -0.816101628900    -0.800826547265     1.007825032230
         H            2.760008430445     0.630460371100    -0.019297547265     1.007825032230
         H            2.103128430445    -0.684154628900     0.963077452735     1.007825032230
         H           -1.933983569555     0.700420371100     0.680139452735     1.007825032230

  Basis Set: AUG-CC-PVTZ
    Blend: AUG-CC-PVTZ
  Basis Set: (AUG-CC-PVTZ AUX)
    Blend: AUG-CC-PVTZ-JKFIT
	 Reference Energy          =    -193.1893422200863597 [Eh]
	 Singles Energy            =      -0.0000000000000000 [Eh]
	 Same-Spin Energy          =      -0.1909256789957585 [Eh]
	 Opposite-Spin Energy      =      -0.6728206845448931 [Eh]
	 Correlation Energy        =      -0.8637463635406516 [Eh]
	 Total Energy              =    -194.0530885836270159 [Eh]

	 ================> DF-SCS-MP2 Energies <==================
	-----------------------------------------------------------
	 SCS Same-Spin Scale       =       0.3333333333333333 [-]
	 SCS Opposite-Spin Scale   =       1.2000000000000000 [-]
	 SCS Same-Spin Energy      =      -0.0636418929985862 [Eh]
	 SCS Opposite-Spin Energy  =      -0.8073848214538717 [Eh]
	 SCS Correlation Energy    =      -0.8710267144524578 [Eh]
	 SCS Total Energy          =    -194.0603689345388148 [Eh]
	-----------------------------------------------------------

  Dipole Moment: [D]
     X:     1.3581      Y:     0.3876      Z:     1.1530     Total:     1.8232

*** Psi4 exiting successfully. Buy a developer a beer!
