                               Psi4 1.3.2 release

  ==> Input File <==

--------------------------------------------------------------------------
#psi4
#
memory 32 gb

molecule  {
0 1
  O       -1.9055520     0.0929760    -0.0899000
  C        0.5130240     0.5226370    -0.0435640
  C       -0.6294362    -0.4824142    -0.0182979
  C        1.8943210    -0.1238280     0.0160790
  H        0.3638563     1.0741577    -0.9776591
  H        0.4010840     1.2348120     0.7851170
  H       -0.5390240    -1.1996390    -0.8096500
  H       -0.5298410    -1.0886070     0.9551710
  H        2.0366680    -0.8174960    -0.8181390
  H        2.6849400     0.6290660    -0.0366100
  H        2.0280600    -0.6855490     0.9457650
  H       -2.0090520     0.6990260     0.6628270
units angstrom
no_reorient  #important for SAPT in psi4, default
symmetry c1  #important for SAPT in psi4, default
}

set PROPERTIES_ORIGIN ["COM"]
properties('MP2/aug-cc-pvtz', properties = ['dipole'])
--------------------------------------------------------------------------

    Molecular point group: c1
  Charge       = 0
  Multiplicity = 1
  Basis Set: AUG-CC-PVTZ
    Blend: AUG-CC-PVTZ
  Basis Set: (AUG-CC-PVTZ AUX)
    Blend: AUG-CC-PVTZ-JKFIT

    Orbital Energies [Eh]
    ---------------------

    Doubly Occupied:

       1A    -20.558680     2A    -11.274015     3A    -11.223680
       4A    -11.220614     5A     -1.363166     6A     -1.053429
       7A     -0.915999     8A     -0.816286     9A     -0.686977
      10A     -0.638379    11A     -0.602935    12A     -0.583816
      13A     -0.549585    14A     -0.502072    15A     -0.499324
      16A     -0.473278    17A     -0.427283

  @DF-RHF Final Energy:  -193.18902737037439

   => Energetics <=

    Nuclear Repulsion Energy =            130.3954815904128850
    One-Electron Energy =                -520.3899799153817867
    Two-Electron Energy =                 196.8054709545945116
    Total Energy =                       -193.1890273703743901
  Basis Set: (AUG-CC-PVTZ AUX)
    Blend: AUG-CC-PVTZ-RI
    Molecular point group: c1

    Geometry (in Angstrom), charge = 0, multiplicity = 1:

       Center              X                  Y                   Z               Mass
    ------------   -----------------  -----------------  -----------------  -----------------
         O           -1.827746126742     0.087507165116    -0.068670603100    15.994914619570
         C            0.590829873258     0.517168165116    -0.022334603100    12.000000000000
         C           -0.551630326742    -0.487883034884     0.002931496900    12.000000000000
         C            1.972126873258    -0.129296834884     0.037308396900    12.000000000000
         H            0.441662173258     1.068688865116    -0.956429703100     1.007825032230
         H            0.478889873258     1.229343165116     0.806346396900     1.007825032230
         H           -0.461218126742    -1.205107834884    -0.788420603100     1.007825032230
         H           -0.452035126742    -1.094075834884     0.976400396900     1.007825032230
         H            2.114473873258    -0.822964834884    -0.796909603100     1.007825032230
         H            2.762745873258     0.623597165116    -0.015380603100     1.007825032230
         H            2.105865873258    -0.691017834884     0.966994396900     1.007825032230
         H           -1.931246126742     0.693557165116     0.684056396900     1.007825032230

  Basis Set: AUG-CC-PVTZ
    Blend: AUG-CC-PVTZ
  Basis Set: (AUG-CC-PVTZ AUX)
    Blend: AUG-CC-PVTZ-JKFIT
	 Reference Energy          =    -193.1890273703743901 [Eh]
	 Singles Energy            =      -0.0000000000000000 [Eh]
	 Same-Spin Energy          =      -0.1905914435070495 [Eh]
	 Opposite-Spin Energy      =      -0.6715268083634529 [Eh]
	 Correlation Energy        =      -0.8621182518705024 [Eh]
	 Total Energy              =    -194.0511456222448885 [Eh]

	 ================> DF-SCS-MP2 Energies <==================
	-----------------------------------------------------------
	 SCS Same-Spin Scale       =       0.3333333333333333 [-]
	 SCS Opposite-Spin Scale   =       1.2000000000000000 [-]
	 SCS Same-Spin Energy      =      -0.0635304811690165 [Eh]
	 SCS Opposite-Spin Energy  =      -0.8058321700361435 [Eh]
	 SCS Correlation Energy    =      -0.8693626512051600 [Eh]
	 SCS Total Energy          =    -194.0583900215795552 [Eh]
	-----------------------------------------------------------

  Dipole Moment: [D]
     X:     1.2718      Y:     0.4213      Z:     1.0552     Total:     1.7054

*** Psi4 exiting successfully. Buy a developer a beer!
