                               Psi4 1.3.2 release

  ==> Input File <==

--------------------------------------------------------------------------
#psi4
#
memory 32 gb

molecule  {
0 1
  O       -1.9055520     0.0929760    -0.0899000
  C        0.5130240     0.5226370    -0.0435640
  C       -0.6253135    -0.5390123    -0.0343976
  C        1.8943210    -0.1238280     0.0160790
  H        0.3948460     1.0949950    -0.9695230
  H        0.4010840     1.2348120     0.7851170
  H       -0.5390240    -1.1996390    -0.8096500
  H       -0.5298410    -1.0886070     0.9551710
  H        2.0366680    -0.8174960    -0.8181390
  H        2.6849400     0.6290660    -0.0366100
  H        2.0280600    -0.6855490     0.9457650
  H       -2.0554295     0.7106190     0.6453963
units angstrom
no_reorient  #important for SAPT in psi4, default
symmetry c1  #important for SAPT in psi4, default
}

set PROPERTIES_ORIGIN ["COM"]
properties('MP2/aug-cc-pvtz', properties = ['dipole'])
--------------------------------------------------------------------------

    Molecular point group: c1
  Charge       = 0
  Multiplicity = 1
  Basis Set: AUG-CC-PVTZ
    Blend: AUG-CC-PVTZ
  Basis Set: (AUG-CC-PVTZ AUX)
    Blend: AUG-CC-PVTZ-JKFIT

    Orbital Energies [Eh]
    ---------------------

    Doubly Occupied:

       1A    -20.552626     2A    -11.273445     3A    -11.224472
       4A    -11.218879     5A     -1.347878     6A     -1.049427
       7A     -0.918116     8A     -0.818385     9A     -0.681923
      10A     -0.639946    11A     -0.595523    12A     -0.580595
      13A     -0.553694    14A     -0.501816    15A     -0.494216
      16A     -0.475943    17A     -0.424886

  @DF-RHF Final Energy:  -193.18536766673014

   => Energetics <=

    Nuclear Repulsion Energy =            129.7509960103132585
    One-Electron Energy =                -519.1691861240537946
    Two-Electron Energy =                 196.2328224470103919
    Total Energy =                       -193.1853676667301443
  Basis Set: (AUG-CC-PVTZ AUX)
    Blend: AUG-CC-PVTZ-RI
    Molecular point group: c1

    Geometry (in Angstrom), charge = 0, multiplicity = 1:

       Center              X                  Y                   Z               Mass
    ------------   -----------------  -----------------  -----------------  -----------------
         O           -1.828311654471     0.098271731934    -0.065297774055    15.994914619570
         C            0.590264345529     0.527932731934    -0.018961774055    12.000000000000
         C           -0.548073154471    -0.533716568066    -0.009795374055    12.000000000000
         C            1.971561345529    -0.118532268066     0.040681225945    12.000000000000
         H            0.472086345529     1.100290731934    -0.944920774055     1.007825032230
         H            0.478324345529     1.240107731934     0.809719225945     1.007825032230
         H           -0.461783654471    -1.194343268066    -0.785047774055     1.007825032230
         H           -0.452600654471    -1.083311268066     0.979773225945     1.007825032230
         H            2.113908345529    -0.812200268066    -0.793536774055     1.007825032230
         H            2.762180345529     0.634361731934    -0.012007774055     1.007825032230
         H            2.105300345529    -0.680253268066     0.970367225945     1.007825032230
         H           -1.978189154471     0.715914731934     0.669998525945     1.007825032230

  Basis Set: AUG-CC-PVTZ
    Blend: AUG-CC-PVTZ
  Basis Set: (AUG-CC-PVTZ AUX)
    Blend: AUG-CC-PVTZ-JKFIT
	 Reference Energy          =    -193.1853676667301443 [Eh]
	 Singles Energy            =      -0.0000000000000000 [Eh]
	 Same-Spin Energy          =      -0.1902010672161383 [Eh]
	 Opposite-Spin Energy      =      -0.6713975296383394 [Eh]
	 Correlation Energy        =      -0.8615985968544777 [Eh]
	 Total Energy              =    -194.0469662635846362 [Eh]

	 ================> DF-SCS-MP2 Energies <==================
	-----------------------------------------------------------
	 SCS Same-Spin Scale       =       0.3333333333333333 [-]
	 SCS Opposite-Spin Scale   =       1.2000000000000000 [-]
	 SCS Same-Spin Energy      =      -0.0634003557387127 [Eh]
	 SCS Opposite-Spin Energy  =      -0.8056770355660073 [Eh]
	 SCS Correlation Energy    =      -0.8690773913047201 [Eh]
	 SCS Total Energy          =    -194.0544450580348723 [Eh]
	-----------------------------------------------------------

  Dipole Moment: [D]
     X:     1.2697      Y:     0.3525      Z:     1.0488     Total:     1.6842

*** Psi4 exiting successfully. Buy a developer a beer!
