                               Psi4 1.3.2 release

  ==> Input File <==

--------------------------------------------------------------------------
#psi4
#
memory 32 gb

molecule  {
0 1
  O       -1.9055520     0.0929760    -0.0899000
  C        0.5130240     0.5226370    -0.0435640
  C       -0.6380221    -0.4728882    -0.0415575
  C        1.8943210    -0.1238280     0.0160790
  H        0.3484273     1.0634855    -0.9813010
  H        0.4010840     1.2348120     0.7851170
  H       -0.5390240    -1.1996390    -0.8096500
  H       -0.5298410    -1.0886070     0.9551710
  H        2.0366680    -0.8174960    -0.8181390
  H        2.6849400     0.6290660    -0.0366100
  H        2.0280600    -0.6855490     0.9457650
  H       -2.0090520     0.6990260     0.6628270
units angstrom
no_reorient  #important for SAPT in psi4, default
symmetry c1  #important for SAPT in psi4, default
}

set PROPERTIES_ORIGIN ["COM"]
properties('MP2/aug-cc-pvtz', properties = ['dipole'])
--------------------------------------------------------------------------

    Molecular point group: c1
  Charge       = 0
  Multiplicity = 1
  Basis Set: AUG-CC-PVTZ
    Blend: AUG-CC-PVTZ
  Basis Set: (AUG-CC-PVTZ AUX)
    Blend: AUG-CC-PVTZ-JKFIT

    Orbital Energies [Eh]
    ---------------------

    Doubly Occupied:

       1A    -20.560022     2A    -11.275022     3A    -11.223724
       4A    -11.220843     5A     -1.368565     6A     -1.053218
       7A     -0.916435     8A     -0.817282     9A     -0.686588
      10A     -0.642165    11A     -0.606552    12A     -0.582598
      13A     -0.551674    14A     -0.502563    15A     -0.498743
      16A     -0.474109    17A     -0.420771

  @DF-RHF Final Energy:  -193.18522637134356

   => Energetics <=

    Nuclear Repulsion Energy =            130.5233266020989333
    One-Electron Energy =                -520.6153558500108147
    Two-Electron Energy =                 196.9068028765683493
    Total Energy =                       -193.1852263713435605
  Basis Set: (AUG-CC-PVTZ AUX)
    Blend: AUG-CC-PVTZ-RI
    Molecular point group: c1

    Geometry (in Angstrom), charge = 0, multiplicity = 1:

       Center              X                  Y                   Z               Mass
    ------------   -----------------  -----------------  -----------------  -----------------
         O           -1.825771677205     0.085782879822    -0.063962023357    15.994914619570
         C            0.592804322795     0.515443879822    -0.017626023357    12.000000000000
         C           -0.558241777205    -0.480081320178    -0.015619523357    12.000000000000
         C            1.974101322795    -0.131021120178     0.042016976643    12.000000000000
         H            0.428207622795     1.056292379822    -0.955363023357     1.007825032230
         H            0.480864322795     1.227618879822     0.811054976643     1.007825032230
         H           -0.459243677205    -1.206832120178    -0.783712023357     1.007825032230
         H           -0.450060677205    -1.095800120178     0.981108976643     1.007825032230
         H            2.116448322795    -0.824689120178    -0.792201023357     1.007825032230
         H            2.764720322795     0.621872879822    -0.010672023357     1.007825032230
         H            2.107840322795    -0.692742120178     0.971702976643     1.007825032230
         H           -1.929271677205     0.691832879822     0.688764976643     1.007825032230

  Basis Set: AUG-CC-PVTZ
    Blend: AUG-CC-PVTZ
  Basis Set: (AUG-CC-PVTZ AUX)
    Blend: AUG-CC-PVTZ-JKFIT
	 Reference Energy          =    -193.1852263713435605 [Eh]
	 Singles Energy            =      -0.0000000000000000 [Eh]
	 Same-Spin Energy          =      -0.1906530091805631 [Eh]
	 Opposite-Spin Energy      =      -0.6714905386589178 [Eh]
	 Correlation Energy        =      -0.8621435478394809 [Eh]
	 Total Energy              =    -194.0473699191830406 [Eh]

	 ================> DF-SCS-MP2 Energies <==================
	-----------------------------------------------------------
	 SCS Same-Spin Scale       =       0.3333333333333333 [-]
	 SCS Opposite-Spin Scale   =       1.2000000000000000 [-]
	 SCS Same-Spin Energy      =      -0.0635510030601877 [Eh]
	 SCS Opposite-Spin Energy  =      -0.8057886463907014 [Eh]
	 SCS Correlation Energy    =      -0.8693396494508890 [Eh]
	 SCS Total Energy          =    -194.0545660207944536 [Eh]
	-----------------------------------------------------------

  Dipole Moment: [D]
     X:     1.2289      Y:     0.4563      Z:     1.0127     Total:     1.6565

*** Psi4 exiting successfully. Buy a developer a beer!
