                               Psi4 1.3.2 release

  ==> Input File <==

--------------------------------------------------------------------------
#psi4
#
memory 32 gb

molecule  {
0 1
  O       -1.9055520     0.0929760    -0.0899000
  C        0.5130240     0.5226370    -0.0435640
  C       -0.6112230    -0.5005450     0.0281910
  C        1.8943210    -0.1238280     0.0160790
  H        0.3948460     1.0949950    -0.9695230
  H        0.4010840     1.2348120     0.7851170
  H       -0.5390240    -1.1996390    -0.8096500
  H       -0.5298410    -1.0886070     0.9551710
  H        2.0366680    -0.8174960    -0.8181390
  H        2.6849400     0.6290660    -0.0366100
  H        2.0280600    -0.6855490     0.9457650
  H       -1.9984029     0.6366693     0.5853787
units angstrom
no_reorient  #important for SAPT in psi4, default
symmetry c1  #important for SAPT in psi4, default
}

set PROPERTIES_ORIGIN ["COM"]
properties('MP2/aug-cc-pvtz', properties = ['dipole'])
--------------------------------------------------------------------------

    Molecular point group: c1
  Charge       = 0
  Multiplicity = 1
  Basis Set: AUG-CC-PVTZ
    Blend: AUG-CC-PVTZ
  Basis Set: (AUG-CC-PVTZ AUX)
    Blend: AUG-CC-PVTZ-JKFIT

    Orbital Energies [Eh]
    ---------------------

    Doubly Occupied:

       1A    -20.545974     2A    -11.273889     3A    -11.224722
       4A    -11.220776     5A     -1.378660     6A     -1.056862
       7A     -0.922318     8A     -0.820093     9A     -0.702626
      10A     -0.636363    11A     -0.598892    12A     -0.588678
      13A     -0.547599    14A     -0.503443    15A     -0.502244
      16A     -0.474126    17A     -0.439634

  @DF-RHF Final Energy:  -193.18664123829942

   => Energetics <=

    Nuclear Repulsion Energy =            130.7327100896537786
    One-Electron Energy =                -520.9649005039815393
    Two-Electron Energy =                 197.0455491760283451
    Total Energy =                       -193.1866412382994156
  Basis Set: (AUG-CC-PVTZ AUX)
    Blend: AUG-CC-PVTZ-RI
    Molecular point group: c1

    Geometry (in Angstrom), charge = 0, multiplicity = 1:

       Center              X                  Y                   Z               Mass
    ------------   -----------------  -----------------  -----------------  -----------------
         O           -1.832084018936     0.091826589440    -0.076796351074    15.994914619570
         C            0.586491981064     0.521487589440    -0.030460351074    12.000000000000
         C           -0.537755018936    -0.501694410560     0.041294648926    12.000000000000
         C            1.967788981064    -0.124977410560     0.029182648926    12.000000000000
         H            0.468313981064     1.093845589440    -0.956419351074     1.007825032230
         H            0.474551981064     1.233662589440     0.798220648926     1.007825032230
         H           -0.465556018936    -1.200788410560    -0.796546351074     1.007825032230
         H           -0.456373018936    -1.089756410560     0.968274648926     1.007825032230
         H            2.110135981064    -0.818645410560    -0.805035351074     1.007825032230
         H            2.758407981064     0.627916589440    -0.023506351074     1.007825032230
         H            2.101527981064    -0.686698410560     0.958868648926     1.007825032230
         H           -1.924934918936     0.635519889440     0.598482348926     1.007825032230

  Basis Set: AUG-CC-PVTZ
    Blend: AUG-CC-PVTZ
  Basis Set: (AUG-CC-PVTZ AUX)
    Blend: AUG-CC-PVTZ-JKFIT
	 Reference Energy          =    -193.1866412382994156 [Eh]
	 Singles Energy            =      -0.0000000000000000 [Eh]
	 Same-Spin Energy          =      -0.1894678540151802 [Eh]
	 Opposite-Spin Energy      =      -0.6690197271062777 [Eh]
	 Correlation Energy        =      -0.8584875811214578 [Eh]
	 Total Energy              =    -194.0451288194208814 [Eh]

	 ================> DF-SCS-MP2 Energies <==================
	-----------------------------------------------------------
	 SCS Same-Spin Scale       =       0.3333333333333333 [-]
	 SCS Opposite-Spin Scale   =       1.2000000000000000 [-]
	 SCS Same-Spin Energy      =      -0.0631559513383934 [Eh]
	 SCS Opposite-Spin Energy  =      -0.8028236725275332 [Eh]
	 SCS Correlation Energy    =      -0.8659796238659265 [Eh]
	 SCS Total Energy          =    -194.0526208621653552 [Eh]
	-----------------------------------------------------------

  Dipole Moment: [D]
     X:     1.3948      Y:     0.3169      Z:     1.0807     Total:     1.7927

*** Psi4 exiting successfully. Buy a developer a beer!
