                               Psi4 1.3.2 release

  ==> Input File <==

--------------------------------------------------------------------------
#psi4
#
memory 32 gb

molecule  {
0 1
  O       -1.9002443     0.1042083    -0.0909640
  C        0.5040454     0.5323146    -0.0450132
  C       -0.6112230    -0.5005450     0.0281910
  C        1.8943210    -0.1238280     0.0160790
  H        0.3948460     1.0949950    -0.9695230
  H        0.4010840     1.2348120     0.7851170
  H       -0.5390240    -1.1996390    -0.8096500
  H       -0.5298410    -1.0886070     0.9551710
  H        2.0366680    -0.8174960    -0.8181390
  H        2.6849400     0.6290660    -0.0366100
  H        2.0280600    -0.6855490     0.9457650
  H       -2.0090520     0.6990260     0.6628270
units angstrom
no_reorient  #important for SAPT in psi4, default
symmetry c1  #important for SAPT in psi4, default
}

set PROPERTIES_ORIGIN ["COM"]
properties('MP2/aug-cc-pvtz', properties = ['dipole'])
--------------------------------------------------------------------------

    Molecular point group: c1
  Charge       = 0
  Multiplicity = 1
  Basis Set: AUG-CC-PVTZ
    Blend: AUG-CC-PVTZ
  Basis Set: (AUG-CC-PVTZ AUX)
    Blend: AUG-CC-PVTZ-JKFIT

    Orbital Energies [Eh]
    ---------------------

    Doubly Occupied:

       1A    -20.555045     2A    -11.273024     3A    -11.223133
       4A    -11.220283     5A     -1.353400     6A     -1.052425
       7A     -0.915270     8A     -0.816810     9A     -0.689289
      10A     -0.631373    11A     -0.596632    12A     -0.585867
      13A     -0.543861    14A     -0.502308    15A     -0.498647
      16A     -0.473889    17A     -0.436873

  @DF-RHF Final Energy:  -193.19214541916040

   => Energetics <=

    Nuclear Repulsion Energy =            130.1490799247529822
    One-Electron Energy =                -519.9461922915187415
    Two-Electron Energy =                 196.6049669476053623
    Total Energy =                       -193.1921454191603971
  Basis Set: (AUG-CC-PVTZ AUX)
    Blend: AUG-CC-PVTZ-RI
    Molecular point group: c1

    Geometry (in Angstrom), charge = 0, multiplicity = 1:

       Center              X                  Y                   Z               Mass
    ------------   -----------------  -----------------  -----------------  -----------------
         O           -1.826217197878     0.097087354931    -0.078587076886    15.994914619570
         C            0.578072502122     0.525193654931    -0.032636276886    12.000000000000
         C           -0.537195897878    -0.507665945069     0.040567923114    12.000000000000
         C            1.968348102122    -0.130948945069     0.028455923114    12.000000000000
         H            0.468873102122     1.087874054931    -0.957146076886     1.007825032230
         H            0.475111102122     1.227691054931     0.797493923114     1.007825032230
         H           -0.464996897878    -1.206759945069    -0.797273076886     1.007825032230
         H           -0.455813897878    -1.095727945069     0.967547923114     1.007825032230
         H            2.110695102122    -0.824616945069    -0.805762076886     1.007825032230
         H            2.758967102122     0.621945054931    -0.024233076886     1.007825032230
         H            2.102087102122    -0.692669945069     0.958141923114     1.007825032230
         H           -1.935024897878     0.691905054931     0.675203923114     1.007825032230

  Basis Set: AUG-CC-PVTZ
    Blend: AUG-CC-PVTZ
  Basis Set: (AUG-CC-PVTZ AUX)
    Blend: AUG-CC-PVTZ-JKFIT
	 Reference Energy          =    -193.1921454191603971 [Eh]
	 Singles Energy            =      -0.0000000000000000 [Eh]
	 Same-Spin Energy          =      -0.1904406159930140 [Eh]
	 Opposite-Spin Energy      =      -0.6716292341800114 [Eh]
	 Correlation Energy        =      -0.8620698501730255 [Eh]
	 Total Energy              =    -194.0542152693334117 [Eh]

	 ================> DF-SCS-MP2 Energies <==================
	-----------------------------------------------------------
	 SCS Same-Spin Scale       =       0.3333333333333333 [-]
	 SCS Opposite-Spin Scale   =       1.2000000000000000 [-]
	 SCS Same-Spin Energy      =      -0.0634802053310047 [Eh]
	 SCS Opposite-Spin Energy  =      -0.8059550810160137 [Eh]
	 SCS Correlation Energy    =      -0.8694352863470183 [Eh]
	 SCS Total Energy          =    -194.0615807055074242 [Eh]
	-----------------------------------------------------------

  Dipole Moment: [D]
     X:     1.3364      Y:     0.3422      Z:     1.1379     Total:     1.7883

*** Psi4 exiting successfully. Buy a developer a beer!
