                               Psi4 1.3.2 release

  ==> Input File <==

--------------------------------------------------------------------------
#psi4
#
memory 32 gb

molecule  {
0 1
  O       -1.9353149     0.0246634    -0.0833298
  C        0.5650740     0.4629612    -0.0347582
  C       -0.6112230    -0.5005450     0.0281910
  C        1.8943210    -0.1238280     0.0160790
  H        0.3948460     1.0949950    -0.9695230
  H        0.4010840     1.2348120     0.7851170
  H       -0.5390240    -1.1996390    -0.8096500
  H       -0.5298410    -1.0886070     0.9551710
  H        2.0366680    -0.8174960    -0.8181390
  H        2.6849400     0.6290660    -0.0366100
  H        2.0280600    -0.6855490     0.9457650
  H       -2.0090520     0.6990260     0.6628270
units angstrom
no_reorient  #important for SAPT in psi4, default
symmetry c1  #important for SAPT in psi4, default
}

set PROPERTIES_ORIGIN ["COM"]
properties('MP2/aug-cc-pvtz', properties = ['dipole'])
--------------------------------------------------------------------------

    Molecular point group: c1
  Charge       = 0
  Multiplicity = 1
  Basis Set: AUG-CC-PVTZ
    Blend: AUG-CC-PVTZ
  Basis Set: (AUG-CC-PVTZ AUX)
    Blend: AUG-CC-PVTZ-JKFIT

    Orbital Energies [Eh]
    ---------------------

    Doubly Occupied:

       1A    -20.564342     2A    -11.272896     3A    -11.230879
       4A    -11.219716     5A     -1.347982     6A     -1.067293
       7A     -0.919462     8A     -0.806438     9A     -0.682259
      10A     -0.631921    11A     -0.600879    12A     -0.589899
      13A     -0.551259    14A     -0.515514    15A     -0.493249
      16A     -0.458794    17A     -0.434983

  @DF-RHF Final Energy:  -193.17876140751690

   => Energetics <=

    Nuclear Repulsion Energy =            130.1027043550383269
    One-Electron Energy =                -519.7874030551399755
    Two-Electron Energy =                 196.5059372925847470
    Total Energy =                       -193.1787614075169017
  Basis Set: (AUG-CC-PVTZ AUX)
    Blend: AUG-CC-PVTZ-RI
    Molecular point group: c1

    Geometry (in Angstrom), charge = 0, multiplicity = 1:

       Center              X                  Y                   Z               Mass
    ------------   -----------------  -----------------  -----------------  -----------------
         O           -1.864141594738     0.052584775416    -0.075035103360    15.994914619570
         C            0.636247305262     0.490882575416    -0.026463503360    12.000000000000
         C           -0.540049694738    -0.472623624584     0.036485696640    12.000000000000
         C            1.965494305262    -0.095906624584     0.024373696640    12.000000000000
         H            0.466019305262     1.122916375416    -0.961228303360     1.007825032230
         H            0.472257305262     1.262733375416     0.793411696640     1.007825032230
         H           -0.467850694738    -1.171717624584    -0.801355303360     1.007825032230
         H           -0.458667694738    -1.060685624584     0.963465696640     1.007825032230
         H            2.107841305262    -0.789574624584    -0.809844303360     1.007825032230
         H            2.756113305262     0.656987375416    -0.028315303360     1.007825032230
         H            2.099233305262    -0.657627624584     0.954059696640     1.007825032230
         H           -1.937878694738     0.726947375416     0.671121696640     1.007825032230

  Basis Set: AUG-CC-PVTZ
    Blend: AUG-CC-PVTZ
  Basis Set: (AUG-CC-PVTZ AUX)
    Blend: AUG-CC-PVTZ-JKFIT
	 Reference Energy          =    -193.1787614075169017 [Eh]
	 Singles Energy            =      -0.0000000000000000 [Eh]
	 Same-Spin Energy          =      -0.1917953216962999 [Eh]
	 Opposite-Spin Energy      =      -0.6742250562708638 [Eh]
	 Correlation Energy        =      -0.8660203779671637 [Eh]
	 Total Energy              =    -194.0447817854840764 [Eh]

	 ================> DF-SCS-MP2 Energies <==================
	-----------------------------------------------------------
	 SCS Same-Spin Scale       =       0.3333333333333333 [-]
	 SCS Opposite-Spin Scale   =       1.2000000000000000 [-]
	 SCS Same-Spin Energy      =      -0.0639317738987666 [Eh]
	 SCS Opposite-Spin Energy  =      -0.8090700675250365 [Eh]
	 SCS Correlation Energy    =      -0.8730018414238031 [Eh]
	 SCS Total Energy          =    -194.0517632489407163 [Eh]
	-----------------------------------------------------------

  Dipole Moment: [D]
     X:     1.4552      Y:     0.4872      Z:     1.0801     Total:     1.8765

*** Psi4 exiting successfully. Buy a developer a beer!
