                               Psi4 1.3.2 release

  ==> Input File <==

--------------------------------------------------------------------------
#psi4
#
memory 32 gb

molecule  {
0 1
  O       -1.9032889     0.0998065    -0.0797171
  C        0.5130240     0.5226370    -0.0435640
  C       -0.6112230    -0.5005450     0.0281910
  C        1.8943210    -0.1238280     0.0160790
  H        0.3948460     1.0949950    -0.9695230
  H        0.4010840     1.2348120     0.7851170
  H       -0.5302398    -1.2020636    -0.8068156
  H       -0.5298410    -1.0886070     0.9551710
  H        2.0366680    -0.8174960    -0.8181390
  H        2.6849400     0.6290660    -0.0366100
  H        2.0280600    -0.6855490     0.9457650
  H       -2.0090520     0.6990260     0.6628270
units angstrom
no_reorient  #important for SAPT in psi4, default
symmetry c1  #important for SAPT in psi4, default
}

set PROPERTIES_ORIGIN ["COM"]
properties('MP2/aug-cc-pvtz', properties = ['dipole'])
--------------------------------------------------------------------------

    Molecular point group: c1
  Charge       = 0
  Multiplicity = 1
  Basis Set: AUG-CC-PVTZ
    Blend: AUG-CC-PVTZ
  Basis Set: (AUG-CC-PVTZ AUX)
    Blend: AUG-CC-PVTZ-JKFIT

    Orbital Energies [Eh]
    ---------------------

    Doubly Occupied:

       1A    -20.554888     2A    -11.273209     3A    -11.223880
       4A    -11.220168     5A     -1.354730     6A     -1.054512
       7A     -0.916679     8A     -0.815818     9A     -0.689325
      10A     -0.632959    11A     -0.596817    12A     -0.586473
      13A     -0.545819    14A     -0.501526    15A     -0.500070
      16A     -0.471911    17A     -0.437207

  @DF-RHF Final Energy:  -193.19253253461810

   => Energetics <=

    Nuclear Repulsion Energy =            130.2108208835519463
    One-Electron Energy =                -520.0547236849959063
    Two-Electron Energy =                 196.6513702668258645
    Total Energy =                       -193.1925325346180955
  Basis Set: (AUG-CC-PVTZ AUX)
    Blend: AUG-CC-PVTZ-RI
    Molecular point group: c1

    Geometry (in Angstrom), charge = 0, multiplicity = 1:

       Center              X                  Y                   Z               Mass
    ------------   -----------------  -----------------  -----------------  -----------------
         O           -1.830392347814     0.095832225054    -0.070672652179    15.994914619570
         C            0.585920552186     0.518662725054    -0.034519552179    12.000000000000
         C           -0.538326447814    -0.504519274946     0.037235447821    12.000000000000
         C            1.967217552186    -0.127802274946     0.025123447821    12.000000000000
         H            0.467742552186     1.091020725054    -0.960478552179     1.007825032230
         H            0.473980552186     1.230837725054     0.794161447821     1.007825032230
         H           -0.457343247814    -1.206037874946    -0.797771152179     1.007825032230
         H           -0.456944447814    -1.092581274946     0.964215447821     1.007825032230
         H            2.109564552186    -0.821470274946    -0.809094552179     1.007825032230
         H            2.757836552186     0.625091725054    -0.027565552179     1.007825032230
         H            2.100956552186    -0.689523274946     0.954809447821     1.007825032230
         H           -1.936155447814     0.695051725054     0.671871447821     1.007825032230

  Basis Set: AUG-CC-PVTZ
    Blend: AUG-CC-PVTZ
  Basis Set: (AUG-CC-PVTZ AUX)
    Blend: AUG-CC-PVTZ-JKFIT
	 Reference Energy          =    -193.1925325346180955 [Eh]
	 Singles Energy            =      -0.0000000000000000 [Eh]
	 Same-Spin Energy          =      -0.1904196582429546 [Eh]
	 Opposite-Spin Energy      =      -0.6714491339939115 [Eh]
	 Correlation Energy        =      -0.8618687922368662 [Eh]
	 Total Energy              =    -194.0544013268549577 [Eh]

	 ================> DF-SCS-MP2 Energies <==================
	-----------------------------------------------------------
	 SCS Same-Spin Scale       =       0.3333333333333333 [-]
	 SCS Opposite-Spin Scale   =       1.2000000000000000 [-]
	 SCS Same-Spin Energy      =      -0.0634732194143182 [Eh]
	 SCS Opposite-Spin Energy  =      -0.8057389607926938 [Eh]
	 SCS Correlation Energy    =      -0.8692121802070121 [Eh]
	 SCS Total Energy          =    -194.0617447148250960 [Eh]
	-----------------------------------------------------------

  Dipole Moment: [D]
     X:     1.3548      Y:     0.3528      Z:     1.1178     Total:     1.7915

*** Psi4 exiting successfully. Buy a developer a beer!
