                               Psi4 1.4a3.dev225

  ==> Input File <==

--------------------------------------------------------------------------
#psi4
#
memory 32 gb

molecule  {
0 1
  O       -1.9047240     0.0931460    -0.0908470
  C        0.5131690     0.5241710    -0.0433670
  C       -0.6561084    -0.4786622     0.0233718
  C        1.8936320    -0.1245310     0.0161890
  H        0.3957570     1.0975960    -0.9686090
  H        0.4007840     1.2346420     0.7863210
  H       -0.5374450    -1.1984960    -0.8102130
  H       -0.5284920    -1.0877010     0.9544070
  H        2.0362220    -0.8155520    -0.8201750
  H        2.6863420     0.6265150    -0.0317980
  H        2.0238630    -0.6901790     0.9440150
  H       -2.0152090     0.6866180     0.6708020
units angstrom
no_reorient  #important for SAPT in psi4, default
symmetry c1  #important for SAPT in psi4, default
}

set PROPERTIES_ORIGIN ["COM"]
properties('MP2/aug-cc-pvtz', properties = ['dipole'])
--------------------------------------------------------------------------

    Molecular point group: c1
  Charge       = 0
  Multiplicity = 1
  Basis Set: AUG-CC-PVTZ
    Blend: AUG-CC-PVTZ
  Basis Set: (AUG-CC-PVTZ AUX)
    Blend: AUG-CC-PVTZ-JKFIT

    Orbital Energies [Eh]
    ---------------------

    Doubly Occupied:

       1A    -20.562045     2A    -11.274003     3A    -11.222713
       4A    -11.219414     5A     -1.374459     6A     -1.048821
       7A     -0.913303     8A     -0.815057     9A     -0.695826
      10A     -0.634595    11A     -0.605435    12A     -0.588095
      13A     -0.546663    14A     -0.502761    15A     -0.499608
      16A     -0.465319    17A     -0.429511

  @DF-RHF Final Energy:  -193.19016683547221

   => Energetics <=

    Nuclear Repulsion Energy =            130.4131188548994373
    One-Electron Energy =                -520.4113163820627506
    Two-Electron Energy =                 196.8080306916911013
    Total Energy =                       -193.1901668354722119
  Basis Set: (AUG-CC-PVTZ AUX)
    Blend: AUG-CC-PVTZ-RI
    Molecular point group: c1

    Geometry (in Angstrom), charge = 0, multiplicity = 1:

       Center              X                  Y                   Z               Mass
    ------------   -----------------  -----------------  -----------------  -----------------
         O           -1.822122336195     0.086587418535    -0.078053543296    15.994914619570
         C            0.595770663805     0.517612418535    -0.030573543296    12.000000000000
         C           -0.573506736195    -0.485220781465     0.036165256704    12.000000000000
         C            1.976233663805    -0.131089581465     0.028982456704    12.000000000000
         H            0.478358663805     1.091037418535    -0.955815543296     1.007825032230
         H            0.483385663805     1.228083418535     0.799114456704     1.007825032230
         H           -0.454843336195    -1.205054581465    -0.797419543296     1.007825032230
         H           -0.445890336195    -1.094259581465     0.967200456704     1.007825032230
         H            2.118823663805    -0.822110581465    -0.807381543296     1.007825032230
         H            2.768943663805     0.619956418535    -0.019004543296     1.007825032230
         H            2.106464663805    -0.696737581465     0.956808456704     1.007825032230
         H           -1.932607336195     0.680059418535     0.683595456704     1.007825032230

  Basis Set: AUG-CC-PVTZ
    Blend: AUG-CC-PVTZ
  Basis Set: (AUG-CC-PVTZ AUX)
    Blend: AUG-CC-PVTZ-JKFIT
	 Reference Energy          =    -193.1901668354722119 [Eh]
	 Singles Energy            =      -0.0000000000000000 [Eh]
	 Same-Spin Energy          =      -0.1905279178313769 [Eh]
	 Opposite-Spin Energy      =      -0.6712139990005388 [Eh]
	 Correlation Energy        =      -0.8617419168319157 [Eh]
	 Total Energy              =    -194.0519087523041151 [Eh]

	 ================> DF-SCS-MP2 Energies <==================
	-----------------------------------------------------------
	 SCS Same-Spin Scale       =       0.3333333333333333 [-]
	 SCS Opposite-Spin Scale   =       1.2000000000000000 [-]
	 SCS Same-Spin Energy      =      -0.0635093059437923 [Eh]
	 SCS Opposite-Spin Energy  =      -0.8054567988006466 [Eh]
	 SCS Correlation Energy    =      -0.8689661047444389 [Eh]
	 SCS Total Energy          =    -194.0591329402166423 [Eh]
	-----------------------------------------------------------

  Dipole Moment: [D]
     X:     1.1453      Y:     0.4210      Z:     1.1325     Total:     1.6648

*** Psi4 exiting successfully. Buy a developer a beer!
