                               Psi4 1.4a3.dev225

  ==> Input File <==

--------------------------------------------------------------------------
#psi4
#
memory 32 gb

molecule  {
0 1
  O       -1.9047240     0.0931460    -0.0908470
  C        0.5131690     0.5241710    -0.0433670
  C       -0.5655016    -0.5201558     0.0316602
  C        1.8936320    -0.1245310     0.0161890
  H        0.3957570     1.0975960    -0.9686090
  H        0.4007840     1.2346420     0.7863210
  H       -0.5374450    -1.1984960    -0.8102130
  H       -0.5284920    -1.0877010     0.9544070
  H        2.0362220    -0.8155520    -0.8201750
  H        2.6863420     0.6265150    -0.0317980
  H        2.0238630    -0.6901790     0.9440150
  H       -2.0152090     0.6866180     0.6708020
units angstrom
no_reorient  #important for SAPT in psi4, default
symmetry c1  #important for SAPT in psi4, default
}

set PROPERTIES_ORIGIN ["COM"]
properties('MP2/aug-cc-pvtz', properties = ['dipole'])
--------------------------------------------------------------------------

    Molecular point group: c1
  Charge       = 0
  Multiplicity = 1
  Basis Set: AUG-CC-PVTZ
    Blend: AUG-CC-PVTZ
  Basis Set: (AUG-CC-PVTZ AUX)
    Blend: AUG-CC-PVTZ-JKFIT

    Orbital Energies [Eh]
    ---------------------

    Doubly Occupied:

       1A    -20.550617     2A    -11.272755     3A    -11.225017
       4A    -11.221006     5A     -1.333760     6A     -1.059826
       7A     -0.918041     8A     -0.816470     9A     -0.683688
      10A     -0.628653    11A     -0.591213    12A     -0.584028
      13A     -0.543150    14A     -0.504171    15A     -0.496546
      16A     -0.476864    17A     -0.441845

  @DF-RHF Final Energy:  -193.18895679611194

   => Energetics <=

    Nuclear Repulsion Energy =            129.9263302509244511
    One-Electron Energy =                -519.5352751406396692
    Two-Electron Energy =                 196.4199880936032514
    Total Energy =                       -193.1889567961119383
  Basis Set: (AUG-CC-PVTZ AUX)
    Blend: AUG-CC-PVTZ-RI
    Molecular point group: c1

    Geometry (in Angstrom), charge = 0, multiplicity = 1:

       Center              X                  Y                   Z               Mass
    ------------   -----------------  -----------------  -----------------  -----------------
         O           -1.840226342033     0.094878191156    -0.079709635797    15.994914619570
         C            0.577666657967     0.525903191156    -0.032229635797    12.000000000000
         C           -0.501003942033    -0.518423608844     0.042797564203    12.000000000000
         C            1.958129657967    -0.122798808844     0.027326364203    12.000000000000
         H            0.460254657967     1.099328191156    -0.957471635797     1.007825032230
         H            0.465281657967     1.236374191156     0.797458364203     1.007825032230
         H           -0.472947342033    -1.196763808844    -0.799075635797     1.007825032230
         H           -0.463994342033    -1.085968808844     0.965544364203     1.007825032230
         H            2.100719657967    -0.813819808844    -0.809037635797     1.007825032230
         H            2.750839657967     0.628247191156    -0.020660635797     1.007825032230
         H            2.088360657967    -0.688446808844     0.955152364203     1.007825032230
         H           -1.950711342033     0.688350191156     0.681939364203     1.007825032230

  Basis Set: AUG-CC-PVTZ
    Blend: AUG-CC-PVTZ
  Basis Set: (AUG-CC-PVTZ AUX)
    Blend: AUG-CC-PVTZ-JKFIT
	 Reference Energy          =    -193.1889567961119383 [Eh]
	 Singles Energy            =      -0.0000000000000000 [Eh]
	 Same-Spin Energy          =      -0.1907966366297459 [Eh]
	 Opposite-Spin Energy      =      -0.6728023530631301 [Eh]
	 Correlation Energy        =      -0.8635989896928760 [Eh]
	 Total Energy              =    -194.0525557858048273 [Eh]

	 ================> DF-SCS-MP2 Energies <==================
	-----------------------------------------------------------
	 SCS Same-Spin Scale       =       0.3333333333333333 [-]
	 SCS Opposite-Spin Scale   =       1.2000000000000000 [-]
	 SCS Same-Spin Energy      =      -0.0635988788765820 [Eh]
	 SCS Opposite-Spin Energy  =      -0.8073628236757561 [Eh]
	 SCS Correlation Energy    =      -0.8709617025523381 [Eh]
	 SCS Total Energy          =    -194.0599184986642740 [Eh]
	-----------------------------------------------------------

  Dipole Moment: [D]
     X:     1.5233      Y:     0.2854      Z:     1.1528     Total:     1.9315

*** Psi4 exiting successfully. Buy a developer a beer!
