                               Psi4 1.4a3.dev225

  ==> Input File <==

--------------------------------------------------------------------------
#psi4
#
memory 32 gb

molecule  {
0 1
  O       -1.9047240     0.0931460    -0.0908470
  C        0.5131690     0.5241710    -0.0433670
  C       -0.6108050    -0.4994090     0.0275160
  C        1.8936320    -0.1245310     0.0161890
  H        0.3957570     1.0975960    -0.9686090
  H        0.4007840     1.2346420     0.7863210
  H       -0.5374450    -1.1984960    -0.8102130
  H       -0.5284920    -1.0877010     0.9544070
  H        2.0362220    -0.8155520    -0.8201750
  H        2.6863420     0.6265150    -0.0317980
  H        2.0238630    -0.6901790     0.9440150
  H       -2.0208932     0.7171506     0.7099868
units angstrom
no_reorient  #important for SAPT in psi4, default
symmetry c1  #important for SAPT in psi4, default
}

set PROPERTIES_ORIGIN ["COM"]
properties('MP2/aug-cc-pvtz', properties = ['dipole'])
--------------------------------------------------------------------------

    Molecular point group: c1
  Charge       = 0
  Multiplicity = 1
  Basis Set: AUG-CC-PVTZ
    Blend: AUG-CC-PVTZ
  Basis Set: (AUG-CC-PVTZ AUX)
    Blend: AUG-CC-PVTZ-JKFIT

    Orbital Energies [Eh]
    ---------------------

    Doubly Occupied:

       1A    -20.560882     2A    -11.272474     3A    -11.223536
       4A    -11.219934     5A     -1.342789     6A     -1.053152
       7A     -0.913118     8A     -0.813270     9A     -0.682151
      10A     -0.628065    11A     -0.595636    12A     -0.585664
      13A     -0.542946    14A     -0.501142    15A     -0.499249
      16A     -0.470951    17A     -0.436069

  @DF-RHF Final Energy:  -193.18679106713788

   => Energetics <=

    Nuclear Repulsion Energy =            129.8916292027076338
    One-Electron Energy =                -519.4747845258114012
    Two-Electron Energy =                 196.3963642559658922
    Total Energy =                       -193.1867910671378752
  Basis Set: (AUG-CC-PVTZ AUX)
    Blend: AUG-CC-PVTZ-RI
    Molecular point group: c1

    Geometry (in Angstrom), charge = 0, multiplicity = 1:

       Center              X                  Y                   Z               Mass
    ------------   -----------------  -----------------  -----------------  -----------------
         O           -1.831078952566     0.090220437348    -0.079539149594    15.994914619570
         C            0.586814047434     0.521245437348    -0.032059149594    12.000000000000
         C           -0.537159952566    -0.502334562652     0.038823850406    12.000000000000
         C            1.967277047434    -0.127456562652     0.027496850406    12.000000000000
         H            0.469402047434     1.094670437348    -0.957301149594     1.007825032230
         H            0.474429047434     1.231716437348     0.797628850406     1.007825032230
         H           -0.463799952566    -1.201421562652    -0.798905149594     1.007825032230
         H           -0.454846952566    -1.090626562652     0.965714850406     1.007825032230
         H            2.109867047434    -0.818477562652    -0.808867149594     1.007825032230
         H            2.759987047434     0.623589437348    -0.020490149594     1.007825032230
         H            2.097508047434    -0.693104562652     0.955322850406     1.007825032230
         H           -1.947248152566     0.714225037348     0.721294650406     1.007825032230

  Basis Set: AUG-CC-PVTZ
    Blend: AUG-CC-PVTZ
  Basis Set: (AUG-CC-PVTZ AUX)
    Blend: AUG-CC-PVTZ-JKFIT
	 Reference Energy          =    -193.1867910671378752 [Eh]
	 Singles Energy            =      -0.0000000000000000 [Eh]
	 Same-Spin Energy          =      -0.1911224711013236 [Eh]
	 Opposite-Spin Energy      =      -0.6734186610460631 [Eh]
	 Correlation Energy        =      -0.8645411321473867 [Eh]
	 Total Energy              =    -194.0513321992852696 [Eh]

	 ================> DF-SCS-MP2 Energies <==================
	-----------------------------------------------------------
	 SCS Same-Spin Scale       =       0.3333333333333333 [-]
	 SCS Opposite-Spin Scale   =       1.2000000000000000 [-]
	 SCS Same-Spin Energy      =      -0.0637074903671079 [Eh]
	 SCS Opposite-Spin Energy  =      -0.8081023932552757 [Eh]
	 SCS Correlation Energy    =      -0.8718098836223835 [Eh]
	 SCS Total Energy          =    -194.0586009507602512 [Eh]
	-----------------------------------------------------------

  Dipole Moment: [D]
     X:     1.3236      Y:     0.3690      Z:     1.1676     Total:     1.8031

*** Psi4 exiting successfully. Buy a developer a beer!
