                               Psi4 1.3.2 release

  ==> Input File <==

--------------------------------------------------------------------------
#psi4
#
memory 32 gb

molecule  {
0 1
  O       -1.9055520     0.0929760    -0.0899000
  C        0.5130240     0.5226370    -0.0435640
  C       -0.5747437    -0.5390216     0.0314280
  C        1.8708253    -0.1715092     0.0196205
  H        0.3948460     1.0949950    -0.9695230
  H        0.4010840     1.2348120     0.7851170
  H       -0.5390240    -1.1996390    -0.8096500
  H       -0.5298410    -1.0886070     0.9551710
  H        2.0366680    -0.8174960    -0.8181390
  H        2.6849400     0.6290660    -0.0366100
  H        2.0280600    -0.6855490     0.9457650
  H       -2.0090520     0.6990260     0.6628270
units angstrom
no_reorient  #important for SAPT in psi4, default
symmetry c1  #important for SAPT in psi4, default
}

set PROPERTIES_ORIGIN ["COM"]
properties('MP2/aug-cc-pvtz', properties = ['dipole'])
--------------------------------------------------------------------------

    Molecular point group: c1
  Charge       = 0
  Multiplicity = 1
  Basis Set: AUG-CC-PVTZ
    Blend: AUG-CC-PVTZ
  Basis Set: (AUG-CC-PVTZ AUX)
    Blend: AUG-CC-PVTZ-JKFIT

    Orbital Energies [Eh]
    ---------------------

    Doubly Occupied:

       1A    -20.549369     2A    -11.271460     3A    -11.225971
       4A    -11.220912     5A     -1.332560     6A     -1.057957
       7A     -0.916726     8A     -0.818401     9A     -0.684314
      10A     -0.629205    11A     -0.589639    12A     -0.583917
      13A     -0.541072    14A     -0.506795    15A     -0.498925
      16A     -0.478319    17A     -0.435129

  @DF-RHF Final Energy:  -193.18544499364705

   => Energetics <=

    Nuclear Repulsion Energy =            129.8865132695160867
    One-Electron Energy =                -519.4625760188013146
    Two-Electron Energy =                 196.3906177556382033
    Total Energy =                       -193.1854449936470530
  Basis Set: (AUG-CC-PVTZ AUX)
    Blend: AUG-CC-PVTZ-RI
    Molecular point group: c1

    Geometry (in Angstrom), charge = 0, multiplicity = 1:

       Center              X                  Y                   Z               Mass
    ------------   -----------------  -----------------  -----------------  -----------------
         O           -1.834499549627     0.107995239755    -0.079450412531    15.994914619570
         C            0.584076450373     0.537656239755    -0.033114412531    12.000000000000
         C           -0.503691249627    -0.524002360245     0.041877587469    12.000000000000
         C            1.941877750373    -0.156489960245     0.030070087469    12.000000000000
         H            0.465898450373     1.110014239755    -0.959073412531     1.007825032230
         H            0.472136450373     1.249831239755     0.795566587469     1.007825032230
         H           -0.467971549627    -1.184619760245    -0.799200412531     1.007825032230
         H           -0.458788549627    -1.073587760245     0.965620587469     1.007825032230
         H            2.107720450373    -0.802476760245    -0.807689412531     1.007825032230
         H            2.755992450373     0.644085239755    -0.026160412531     1.007825032230
         H            2.099112450373    -0.670529760245     0.956214587469     1.007825032230
         H           -1.937999549627     0.714045239755     0.673276587469     1.007825032230

  Basis Set: AUG-CC-PVTZ
    Blend: AUG-CC-PVTZ
  Basis Set: (AUG-CC-PVTZ AUX)
    Blend: AUG-CC-PVTZ-JKFIT
	 Reference Energy          =    -193.1854449936470530 [Eh]
	 Singles Energy            =      -0.0000000000000000 [Eh]
	 Same-Spin Energy          =      -0.1907383411133242 [Eh]
	 Opposite-Spin Energy      =      -0.6728716675720117 [Eh]
	 Correlation Energy        =      -0.8636100086853358 [Eh]
	 Total Energy              =    -194.0490550023323806 [Eh]

	 ================> DF-SCS-MP2 Energies <==================
	-----------------------------------------------------------
	 SCS Same-Spin Scale       =       0.3333333333333333 [-]
	 SCS Opposite-Spin Scale   =       1.2000000000000000 [-]
	 SCS Same-Spin Energy      =      -0.0635794470377747 [Eh]
	 SCS Opposite-Spin Energy  =      -0.8074460010864140 [Eh]
	 SCS Correlation Energy    =      -0.8710254481241887 [Eh]
	 SCS Total Energy          =    -194.0564704417712392 [Eh]
	-----------------------------------------------------------

  Dipole Moment: [D]
     X:     1.5167      Y:     0.2617      Z:     1.1413     Total:     1.9161

*** Psi4 exiting successfully. Buy a developer a beer!
