                               Psi4 1.4a3.dev225

  ==> Input File <==

--------------------------------------------------------------------------
#psi4
#
memory 32 gb

molecule  {
0 1
  O       -1.9047240     0.0931460    -0.0908470
  C        0.5131690     0.5241710    -0.0433670
  C       -0.6108050    -0.4994090     0.0275160
  C        1.8936320    -0.1245310     0.0161890
  H        0.3957570     1.0975960    -0.9686090
  H        0.4007840     1.2346420     0.7863210
  H       -0.5374450    -1.1984960    -0.8102130
  H       -0.5284920    -1.0877010     0.9544070
  H        2.0362220    -0.8155520    -0.8201750
  H        2.6863420     0.6265150    -0.0317980
  H        2.0238630    -0.6901790     0.9440150
  H       -2.0129353     0.6744050     0.6551281
units angstrom
no_reorient  #important for SAPT in psi4, default
symmetry c1  #important for SAPT in psi4, default
}

set PROPERTIES_ORIGIN ["COM"]
properties('MP2/aug-cc-pvtz', properties = ['dipole'])
--------------------------------------------------------------------------

    Molecular point group: c1
  Charge       = 0
  Multiplicity = 1
  Basis Set: AUG-CC-PVTZ
    Blend: AUG-CC-PVTZ
  Basis Set: (AUG-CC-PVTZ AUX)
    Blend: AUG-CC-PVTZ-JKFIT

    Orbital Energies [Eh]
    ---------------------

    Doubly Occupied:

       1A    -20.554440     2A    -11.273033     3A    -11.223958
       4A    -11.220257     5A     -1.357421     6A     -1.054676
       7A     -0.916851     8A     -0.816123     9A     -0.691519
      10A     -0.632210    11A     -0.597011    12A     -0.587219
      13A     -0.544965    14A     -0.501791    15A     -0.501140
      16A     -0.472521    17A     -0.437492

  @DF-RHF Final Energy:  -193.19271445560881

   => Energetics <=

    Nuclear Repulsion Energy =            130.2649435727594778
    One-Electron Energy =                -520.1500601546057396
    Two-Electron Energy =                 196.6924021262374538
    Total Energy =                       -193.1927144556088081
  Basis Set: (AUG-CC-PVTZ AUX)
    Blend: AUG-CC-PVTZ-RI
    Molecular point group: c1

    Geometry (in Angstrom), charge = 0, multiplicity = 1:

       Center              X                  Y                   Z               Mass
    ------------   -----------------  -----------------  -----------------  -----------------
         O           -1.831212494069     0.090937751173    -0.078618565863    15.994914619570
         C            0.586680505931     0.521962751173    -0.031138565863    12.000000000000
         C           -0.537293494069    -0.501617248827     0.039744434137    12.000000000000
         C            1.967143505931    -0.126739248827     0.028417434137    12.000000000000
         H            0.469268505931     1.095387751173    -0.956380565863     1.007825032230
         H            0.474295505931     1.232433751173     0.798549434137     1.007825032230
         H           -0.463933494069    -1.200704248827    -0.797984565863     1.007825032230
         H           -0.454980494069    -1.089909248827     0.966635434137     1.007825032230
         H            2.109733505931    -0.817760248827    -0.807946565863     1.007825032230
         H            2.759853505931     0.624306751173    -0.019569565863     1.007825032230
         H            2.097374505931    -0.692387248827     0.956243434137     1.007825032230
         H           -1.939423794069     0.672196751173     0.667356534137     1.007825032230

  Basis Set: AUG-CC-PVTZ
    Blend: AUG-CC-PVTZ
  Basis Set: (AUG-CC-PVTZ AUX)
    Blend: AUG-CC-PVTZ-JKFIT
	 Reference Energy          =    -193.1927144556088081 [Eh]
	 Singles Energy            =      -0.0000000000000000 [Eh]
	 Same-Spin Energy          =      -0.1903629152806110 [Eh]
	 Opposite-Spin Energy      =      -0.6712779943766615 [Eh]
	 Correlation Energy        =      -0.8616409096572725 [Eh]
	 Total Energy              =    -194.0543553652660762 [Eh]

	 ================> DF-SCS-MP2 Energies <==================
	-----------------------------------------------------------
	 SCS Same-Spin Scale       =       0.3333333333333333 [-]
	 SCS Opposite-Spin Scale   =       1.2000000000000000 [-]
	 SCS Same-Spin Energy      =      -0.0634543050935370 [Eh]
	 SCS Opposite-Spin Energy  =      -0.8055335932519937 [Eh]
	 SCS Correlation Energy    =      -0.8689878983455307 [Eh]
	 SCS Total Energy          =    -194.0617023539543311 [Eh]
	-----------------------------------------------------------

  Dipole Moment: [D]
     X:     1.3468      Y:     0.3397      Z:     1.1349     Total:     1.7937

*** Psi4 exiting successfully. Buy a developer a beer!
