                               Psi4 1.3.2 release

  ==> Input File <==

--------------------------------------------------------------------------
#psi4
#
memory 32 gb

molecule  {
0 1
  O       -1.8959098     0.1200214    -0.0491222
  C        0.5130240     0.5226370    -0.0435640
  C       -0.6112230    -0.5005450     0.0281910
  C        1.8943210    -0.1238280     0.0160790
  H        0.3948460     1.0949950    -0.9695230
  H        0.4010840     1.2348120     0.7851170
  H       -0.5039271    -1.2090163    -0.7979317
  H       -0.5298410    -1.0886070     0.9551710
  H        2.0366680    -0.8174960    -0.8181390
  H        2.6849400     0.6290660    -0.0366100
  H        2.0280600    -0.6855490     0.9457650
  H       -2.0090520     0.6990260     0.6628270
units angstrom
no_reorient  #important for SAPT in psi4, default
symmetry c1  #important for SAPT in psi4, default
}

set PROPERTIES_ORIGIN ["COM"]
properties('MP2/aug-cc-pvtz', properties = ['dipole'])
--------------------------------------------------------------------------

    Molecular point group: c1
  Charge       = 0
  Multiplicity = 1
  Basis Set: AUG-CC-PVTZ
    Blend: AUG-CC-PVTZ
  Basis Set: (AUG-CC-PVTZ AUX)
    Blend: AUG-CC-PVTZ-JKFIT

    Orbital Energies [Eh]
    ---------------------

    Doubly Occupied:

       1A    -20.550525     2A    -11.274218     3A    -11.223343
       4A    -11.219884     5A     -1.361783     6A     -1.055293
       7A     -0.919448     8A     -0.817157     9A     -0.693273
      10A     -0.638037    11A     -0.597415    12A     -0.585936
      13A     -0.548224    14A     -0.501513    15A     -0.498908
      16A     -0.470797    17A     -0.437291

  @DF-RHF Final Energy:  -193.19222713360710

   => Energetics <=

    Nuclear Repulsion Energy =            130.4490191744357617
    One-Electron Energy =                -520.4964019644669406
    Two-Electron Energy =                 196.8551556564240741
    Total Energy =                       -193.1922271336071049
  Basis Set: (AUG-CC-PVTZ AUX)
    Blend: AUG-CC-PVTZ-RI
    Molecular point group: c1

    Geometry (in Angstrom), charge = 0, multiplicity = 1:

       Center              X                  Y                   Z               Mass
    ------------   -----------------  -----------------  -----------------  -----------------
         O           -1.825420051900     0.110780032416    -0.048375069028    15.994914619570
         C            0.583513748100     0.513395632416    -0.042816869028    12.000000000000
         C           -0.540733251900    -0.509786367584     0.028938130972    12.000000000000
         C            1.964810748100    -0.133069367584     0.016826130972    12.000000000000
         H            0.465335748100     1.085753632416    -0.968775869028     1.007825032230
         H            0.471573748100     1.225570632416     0.785864130972     1.007825032230
         H           -0.433437351900    -1.218257667584    -0.797184569028     1.007825032230
         H           -0.459351251900    -1.097848367584     0.955918130972     1.007825032230
         H            2.107157748100    -0.826737367584    -0.817391869028     1.007825032230
         H            2.755429748100     0.619824632416    -0.035862869028     1.007825032230
         H            2.098549748100    -0.694790367584     0.946512130972     1.007825032230
         H           -1.938562251900     0.689784632416     0.663574130972     1.007825032230

  Basis Set: AUG-CC-PVTZ
    Blend: AUG-CC-PVTZ
  Basis Set: (AUG-CC-PVTZ AUX)
    Blend: AUG-CC-PVTZ-JKFIT
	 Reference Energy          =    -193.1922271336071049 [Eh]
	 Singles Energy            =      -0.0000000000000000 [Eh]
	 Same-Spin Energy          =      -0.1899618824143174 [Eh]
	 Opposite-Spin Energy      =      -0.6702201540057775 [Eh]
	 Correlation Energy        =      -0.8601820364200949 [Eh]
	 Total Energy              =    -194.0524091700272038 [Eh]

	 ================> DF-SCS-MP2 Energies <==================
	-----------------------------------------------------------
	 SCS Same-Spin Scale       =       0.3333333333333333 [-]
	 SCS Opposite-Spin Scale   =       1.2000000000000000 [-]
	 SCS Same-Spin Energy      =      -0.0633206274714391 [Eh]
	 SCS Opposite-Spin Energy  =      -0.8042641848069330 [Eh]
	 SCS Correlation Energy    =      -0.8675848122783720 [Eh]
	 SCS Total Energy          =    -194.0598119458854853 [Eh]
	-----------------------------------------------------------

  Dipole Moment: [D]
     X:     1.3526      Y:     0.3156      Z:     1.0799     Total:     1.7593

*** Psi4 exiting successfully. Buy a developer a beer!
