                               Psi4 1.4a3.dev225

  ==> Input File <==

--------------------------------------------------------------------------
#psi4
#
memory 32 gb

molecule  {
0 1
  O       -1.9047240     0.0931460    -0.0908470
  C        0.5131690     0.5241710    -0.0433670
  C       -0.6108050    -0.4994090     0.0275160
  C        1.8936320    -0.1245310     0.0161890
  H        0.3957570     1.0975960    -0.9686090
  H        0.4007840     1.2346420     0.7863210
  H       -0.5374450    -1.1984960    -0.8102130
  H       -0.5284920    -1.0877010     0.9544070
  H        2.0362220    -0.8155520    -0.8201750
  H        2.6863420     0.6265150    -0.0317980
  H        2.0238630    -0.6901790     0.9440150
  H       -2.0174827     0.6988310     0.6864759
units angstrom
no_reorient  #important for SAPT in psi4, default
symmetry c1  #important for SAPT in psi4, default
}

set PROPERTIES_ORIGIN ["COM"]
properties('MP2/aug-cc-pvtz', properties = ['dipole'])
--------------------------------------------------------------------------

    Molecular point group: c1
  Charge       = 0
  Multiplicity = 1
  Basis Set: AUG-CC-PVTZ
    Blend: AUG-CC-PVTZ
  Basis Set: (AUG-CC-PVTZ AUX)
    Blend: AUG-CC-PVTZ-JKFIT

    Orbital Energies [Eh]
    ---------------------

    Doubly Occupied:

       1A    -20.558220     2A    -11.272697     3A    -11.223711
       4A    -11.220068     5A     -1.348628     6A     -1.053770
       7A     -0.914616     8A     -0.814434     9A     -0.686019
      10A     -0.629921    11A     -0.596195    12A     -0.586349
      13A     -0.543830    14A     -0.501372    15A     -0.500098
      16A     -0.471656    17A     -0.436641

  @DF-RHF Final Energy:  -193.19028456454927

   => Energetics <=

    Nuclear Repulsion Energy =            130.0463208614157224
    One-Electron Energy =                -519.7567638482477150
    Two-Electron Energy =                 196.5201584222827194
    Total Energy =                       -193.1902845645492732
  Basis Set: (AUG-CC-PVTZ AUX)
    Blend: AUG-CC-PVTZ-RI
    Molecular point group: c1

    Geometry (in Angstrom), charge = 0, multiplicity = 1:

       Center              X                  Y                   Z               Mass
    ------------   -----------------  -----------------  -----------------  -----------------
         O           -1.831136184159     0.090527858518    -0.079144613230    15.994914619570
         C            0.586756815841     0.521552858518    -0.031664613230    12.000000000000
         C           -0.537217184159    -0.502027141482     0.039218386770    12.000000000000
         C            1.967219815841    -0.127149141482     0.027891386770    12.000000000000
         H            0.469344815841     1.094977858518    -0.956906613230     1.007825032230
         H            0.474371815841     1.232023858518     0.798023386770     1.007825032230
         H           -0.463857184159    -1.201114141482    -0.798510613230     1.007825032230
         H           -0.454904184159    -1.090319141482     0.966109386770     1.007825032230
         H            2.109809815841    -0.818170141482    -0.808472613230     1.007825032230
         H            2.759929815841     0.623896858518    -0.020095613230     1.007825032230
         H            2.097450815841    -0.692797141482     0.955717386770     1.007825032230
         H           -1.943894884159     0.696212858518     0.698178286770     1.007825032230

  Basis Set: AUG-CC-PVTZ
    Blend: AUG-CC-PVTZ
  Basis Set: (AUG-CC-PVTZ AUX)
    Blend: AUG-CC-PVTZ-JKFIT
	 Reference Energy          =    -193.1902845645492732 [Eh]
	 Singles Energy            =      -0.0000000000000000 [Eh]
	 Same-Spin Energy          =      -0.1908015239928197 [Eh]
	 Opposite-Spin Energy      =      -0.6724850177307207 [Eh]
	 Correlation Energy        =      -0.8632865417235404 [Eh]
	 Total Energy              =    -194.0535711062728126 [Eh]

	 ================> DF-SCS-MP2 Energies <==================
	-----------------------------------------------------------
	 SCS Same-Spin Scale       =       0.3333333333333333 [-]
	 SCS Opposite-Spin Scale   =       1.2000000000000000 [-]
	 SCS Same-Spin Energy      =      -0.0636005079976066 [Eh]
	 SCS Opposite-Spin Energy  =      -0.8069820212768648 [Eh]
	 SCS Correlation Energy    =      -0.8705825292744713 [Eh]
	 SCS Total Energy          =    -194.0608670938237310 [Eh]
	-----------------------------------------------------------

  Dipole Moment: [D]
     X:     1.3329      Y:     0.3569      Z:     1.1540     Total:     1.7988

*** Psi4 exiting successfully. Buy a developer a beer!
