                               Psi4 1.3.2 release

  ==> Input File <==

--------------------------------------------------------------------------
#psi4
#
memory 32 gb

molecule  {
0 1
  O       -1.9055520     0.0929760    -0.0899000
  C        0.5130240     0.5226370    -0.0435640
  C       -0.6022299    -0.5102829     0.0290086
  C        1.8886038    -0.1358244     0.0169714
  H        0.3948460     1.0949950    -0.9695230
  H        0.4010840     1.2348120     0.7851170
  H       -0.5390240    -1.1996390    -0.8096500
  H       -0.5298410    -1.0886070     0.9551710
  H        2.0366680    -0.8174960    -0.8181390
  H        2.6849400     0.6290660    -0.0366100
  H        2.0280600    -0.6855490     0.9457650
  H       -2.0090520     0.6990260     0.6628270
units angstrom
no_reorient  #important for SAPT in psi4, default
symmetry c1  #important for SAPT in psi4, default
}

set PROPERTIES_ORIGIN ["COM"]
properties('MP2/aug-cc-pvtz', properties = ['dipole'])
--------------------------------------------------------------------------

    Molecular point group: c1
  Charge       = 0
  Multiplicity = 1
  Basis Set: AUG-CC-PVTZ
    Blend: AUG-CC-PVTZ
  Basis Set: (AUG-CC-PVTZ AUX)
    Blend: AUG-CC-PVTZ-JKFIT

    Orbital Energies [Eh]
    ---------------------

    Doubly Occupied:

       1A    -20.554576     2A    -11.272404     3A    -11.224458
       4A    -11.220301     5A     -1.347364     6A     -1.055103
       7A     -0.915976     8A     -0.815987     9A     -0.686934
      10A     -0.630668    11A     -0.594375    12A     -0.586061
      13A     -0.543192    14A     -0.503102    15A     -0.500354
      16A     -0.474235    17A     -0.437104

  @DF-RHF Final Energy:  -193.19133148777942

   => Energetics <=

    Nuclear Repulsion Energy =            130.0686982699961050
    One-Electron Energy =                -519.7956741178337552
    Two-Electron Energy =                 196.5356443600582281
    Total Energy =                       -193.1913314877794221
  Basis Set: (AUG-CC-PVTZ AUX)
    Blend: AUG-CC-PVTZ-RI
    Molecular point group: c1

    Geometry (in Angstrom), charge = 0, multiplicity = 1:

       Center              X                  Y                   Z               Mass
    ------------   -----------------  -----------------  -----------------  -----------------
         O           -1.832559868969     0.095122878959    -0.078437683314    15.994914619570
         C            0.586016131031     0.524783878959    -0.032101683314    12.000000000000
         C           -0.529237768969    -0.508136021041     0.040470916686    12.000000000000
         C            1.961595931031    -0.133677521041     0.028433716686    12.000000000000
         H            0.467838131031     1.097141878959    -0.958060683314     1.007825032230
         H            0.474076131031     1.236958878959     0.796579316686     1.007825032230
         H           -0.466031868969    -1.197492121041    -0.798187683314     1.007825032230
         H           -0.456848868969    -1.086460121041     0.966633316686     1.007825032230
         H            2.109660131031    -0.815349121041    -0.806676683314     1.007825032230
         H            2.757932131031     0.631212878959    -0.025147683314     1.007825032230
         H            2.101052131031    -0.683402121041     0.957227316686     1.007825032230
         H           -1.936059868969     0.701172878959     0.674289316686     1.007825032230

  Basis Set: AUG-CC-PVTZ
    Blend: AUG-CC-PVTZ
  Basis Set: (AUG-CC-PVTZ AUX)
    Blend: AUG-CC-PVTZ-JKFIT
	 Reference Energy          =    -193.1913314877794221 [Eh]
	 Singles Energy            =      -0.0000000000000000 [Eh]
	 Same-Spin Energy          =      -0.1905947001431764 [Eh]
	 Opposite-Spin Energy      =      -0.6720738553124326 [Eh]
	 Correlation Energy        =      -0.8626685554556089 [Eh]
	 Total Energy              =    -194.0540000432350212 [Eh]

	 ================> DF-SCS-MP2 Energies <==================
	-----------------------------------------------------------
	 SCS Same-Spin Scale       =       0.3333333333333333 [-]
	 SCS Opposite-Spin Scale   =       1.2000000000000000 [-]
	 SCS Same-Spin Energy      =      -0.0635315667143921 [Eh]
	 SCS Opposite-Spin Energy  =      -0.8064886263749190 [Eh]
	 SCS Correlation Energy    =      -0.8700201930893111 [Eh]
	 SCS Total Energy          =    -194.0613516808687393 [Eh]
	-----------------------------------------------------------

  Dipole Moment: [D]
     X:     1.3973      Y:     0.3379      Z:     1.1332     Total:     1.8305

*** Psi4 exiting successfully. Buy a developer a beer!
