                               Psi4 1.3.2 release

  ==> Input File <==

--------------------------------------------------------------------------
#psi4
#
memory 32 gb

molecule  {
0 1
  O       -1.9055520     0.0929760    -0.0899000
  C        0.5130240     0.5226370    -0.0435640
  C       -0.6159056    -0.4961283     0.0165748
  C        1.8943210    -0.1238280     0.0160790
  H        0.3870836     1.0898501    -0.9716632
  H        0.4010840     1.2348120     0.7851170
  H       -0.5390240    -1.1996390    -0.8096500
  H       -0.5298410    -1.0886070     0.9551710
  H        2.0366680    -0.8174960    -0.8181390
  H        2.6849400     0.6290660    -0.0366100
  H        2.0280600    -0.6855490     0.9457650
  H       -2.0090520     0.6990260     0.6628270
units angstrom
no_reorient  #important for SAPT in psi4, default
symmetry c1  #important for SAPT in psi4, default
}

set PROPERTIES_ORIGIN ["COM"]
properties('MP2/aug-cc-pvtz', properties = ['dipole'])
--------------------------------------------------------------------------

    Molecular point group: c1
  Charge       = 0
  Multiplicity = 1
  Basis Set: AUG-CC-PVTZ
    Blend: AUG-CC-PVTZ
  Basis Set: (AUG-CC-PVTZ AUX)
    Blend: AUG-CC-PVTZ-JKFIT

    Orbital Energies [Eh]
    ---------------------

    Doubly Occupied:

       1A    -20.556864     2A    -11.273083     3A    -11.223911
       4A    -11.220340     5A     -1.355189     6A     -1.054022
       7A     -0.915785     8A     -0.815465     9A     -0.687888
      10A     -0.632956    11A     -0.597970    12A     -0.585962
      13A     -0.546132    14A     -0.501586    15A     -0.500207
      16A     -0.472350    17A     -0.435161

  @DF-RHF Final Energy:  -193.19176204374199

   => Energetics <=

    Nuclear Repulsion Energy =            130.2006808012500017
    One-Electron Energy =                -520.0351462085451431
    Two-Electron Energy =                 196.6427033635531814
    Total Energy =                       -193.1917620437419885
  Basis Set: (AUG-CC-PVTZ AUX)
    Blend: AUG-CC-PVTZ-RI
    Molecular point group: c1

    Geometry (in Angstrom), charge = 0, multiplicity = 1:

       Center              X                  Y                   Z               Mass
    ------------   -----------------  -----------------  -----------------  -----------------
         O           -1.830839432463     0.089984024286    -0.075739081025    15.994914619570
         C            0.587736567537     0.519645024286    -0.029403081025    12.000000000000
         C           -0.541193032463    -0.499120275714     0.030735718975    12.000000000000
         C            1.969033567537    -0.126819975714     0.030239918975    12.000000000000
         H            0.461796167537     1.086858124286    -0.957502281025     1.007825032230
         H            0.475796567537     1.231820024286     0.799277918975     1.007825032230
         H           -0.464311432463    -1.202630975714    -0.795489081025     1.007825032230
         H           -0.455128432463    -1.091598975714     0.969331918975     1.007825032230
         H            2.111380567537    -0.820487975714    -0.803978081025     1.007825032230
         H            2.759652567537     0.626074024286    -0.022449081025     1.007825032230
         H            2.102772567537    -0.688540975714     0.959925918975     1.007825032230
         H           -1.934339432463     0.696034024286     0.676987918975     1.007825032230

  Basis Set: AUG-CC-PVTZ
    Blend: AUG-CC-PVTZ
  Basis Set: (AUG-CC-PVTZ AUX)
    Blend: AUG-CC-PVTZ-JKFIT
	 Reference Energy          =    -193.1917620437419885 [Eh]
	 Singles Energy            =      -0.0000000000000000 [Eh]
	 Same-Spin Energy          =      -0.1905706437248763 [Eh]
	 Opposite-Spin Energy      =      -0.6717625430837222 [Eh]
	 Correlation Energy        =      -0.8623331868085985 [Eh]
	 Total Energy              =    -194.0540952305505868 [Eh]

	 ================> DF-SCS-MP2 Energies <==================
	-----------------------------------------------------------
	 SCS Same-Spin Scale       =       0.3333333333333333 [-]
	 SCS Opposite-Spin Scale   =       1.2000000000000000 [-]
	 SCS Same-Spin Energy      =      -0.0635235479082921 [Eh]
	 SCS Opposite-Spin Energy  =      -0.8061150517004666 [Eh]
	 SCS Correlation Energy    =      -0.8696385996087587 [Eh]
	 SCS Total Energy          =    -194.0614006433507370 [Eh]
	-----------------------------------------------------------

  Dipole Moment: [D]
     X:     1.3350      Y:     0.3772      Z:     1.1124     Total:     1.7782

*** Psi4 exiting successfully. Buy a developer a beer!
