                               Psi4 1.3.2 release

  ==> Input File <==

--------------------------------------------------------------------------
#psi4
#
memory 32 gb

molecule  {
0 1
  O       -1.9055520     0.0929760    -0.0899000
  C        0.5130240     0.5226370    -0.0435640
  C       -0.6633602    -0.4405078     0.0231728
  C        1.9264007    -0.0508479     0.0106319
  H        0.3948460     1.0949950    -0.9695230
  H        0.4010840     1.2348120     0.7851170
  H       -0.5390240    -1.1996390    -0.8096500
  H       -0.5298410    -1.0886070     0.9551710
  H        2.0366680    -0.8174960    -0.8181390
  H        2.6849400     0.6290660    -0.0366100
  H        2.0280600    -0.6855490     0.9457650
  H       -2.0090520     0.6990260     0.6628270
units angstrom
no_reorient  #important for SAPT in psi4, default
symmetry c1  #important for SAPT in psi4, default
}

set PROPERTIES_ORIGIN ["COM"]
properties('MP2/aug-cc-pvtz', properties = ['dipole'])
--------------------------------------------------------------------------

    Molecular point group: c1
  Charge       = 0
  Multiplicity = 1
  Basis Set: AUG-CC-PVTZ
    Blend: AUG-CC-PVTZ
  Basis Set: (AUG-CC-PVTZ AUX)
    Blend: AUG-CC-PVTZ-JKFIT

    Orbital Energies [Eh]
    ---------------------

    Doubly Occupied:

       1A    -20.566835     2A    -11.278098     3A    -11.222999
       4A    -11.221722     5A     -1.386907     6A     -1.050842
       7A     -0.916455     8A     -0.814872     9A     -0.698488
      10A     -0.638179    11A     -0.611965    12A     -0.590611
      13A     -0.563258    14A     -0.496947    15A     -0.488217
      16A     -0.457274    17A     -0.431478

  @DF-RHF Final Energy:  -193.17761631310066

   => Energetics <=

    Nuclear Repulsion Energy =            130.6007289655363195
    One-Electron Energy =                -520.6863909780898894
    Two-Electron Energy =                 196.9080456994529413
    Total Energy =                       -193.1776163131006570
  Basis Set: (AUG-CC-PVTZ AUX)
    Blend: AUG-CC-PVTZ-RI
    Molecular point group: c1

    Geometry (in Angstrom), charge = 0, multiplicity = 1:

       Center              X                  Y                   Z               Mass
    ------------   -----------------  -----------------  -----------------  -----------------
         O           -1.827897658077     0.064202198945    -0.076004955281    15.994914619570
         C            0.590678341923     0.493863198945    -0.029668955281    12.000000000000
         C           -0.585705858077    -0.469281601055     0.037067844719    12.000000000000
         C            2.004055041923    -0.079621701055     0.024526944719    12.000000000000
         H            0.472500341923     1.066221198945    -0.955627955281     1.007825032230
         H            0.478738341923     1.206038198945     0.799012044719     1.007825032230
         H           -0.461369658077    -1.228412801055    -0.795754955281     1.007825032230
         H           -0.452186658077    -1.117380801055     0.969066044719     1.007825032230
         H            2.114322341923    -0.846269801055    -0.804243955281     1.007825032230
         H            2.762594341923     0.600292198945    -0.022714955281     1.007825032230
         H            2.105714341923    -0.714322801055     0.959660044719     1.007825032230
         H           -1.931397658077     0.670252198945     0.676722044719     1.007825032230

  Basis Set: AUG-CC-PVTZ
    Blend: AUG-CC-PVTZ
  Basis Set: (AUG-CC-PVTZ AUX)
    Blend: AUG-CC-PVTZ-JKFIT
	 Reference Energy          =    -193.1776163131006570 [Eh]
	 Singles Energy            =      -0.0000000000000000 [Eh]
	 Same-Spin Energy          =      -0.1908960806375526 [Eh]
	 Opposite-Spin Energy      =      -0.6716949854846191 [Eh]
	 Correlation Energy        =      -0.8625910661221717 [Eh]
	 Total Energy              =    -194.0402073792228350 [Eh]

	 ================> DF-SCS-MP2 Energies <==================
	-----------------------------------------------------------
	 SCS Same-Spin Scale       =       0.3333333333333333 [-]
	 SCS Opposite-Spin Scale   =       1.2000000000000000 [-]
	 SCS Same-Spin Energy      =      -0.0636320268791842 [Eh]
	 SCS Opposite-Spin Energy  =      -0.8060339825815429 [Eh]
	 SCS Correlation Energy    =      -0.8696660094607271 [Eh]
	 SCS Total Energy          =    -194.0472823225613865 [Eh]
	-----------------------------------------------------------

  Dipole Moment: [D]
     X:     1.0852      Y:     0.5418      Z:     1.1024     Total:     1.6390

*** Psi4 exiting successfully. Buy a developer a beer!
