                               Psi4 1.3.2 release

  ==> Input File <==

--------------------------------------------------------------------------
#psi4
#
memory 32 gb

molecule  {
0 1
  O       -1.9055520     0.0929760    -0.0899000
  C        0.5130240     0.5226370    -0.0435640
  C       -0.7018109    -0.4590055     0.0199260
  C        1.8943210    -0.1238280     0.0160790
  H        0.3948460     1.0949950    -0.9695230
  H        0.4010840     1.2348120     0.7851170
  H       -0.5390240    -1.1996390    -0.8096500
  H       -0.5298410    -1.0886070     0.9551710
  H        2.0366680    -0.8174960    -0.8181390
  H        2.6849400     0.6290660    -0.0366100
  H        2.0280600    -0.6855490     0.9457650
  H       -2.0090520     0.6990260     0.6628270
units angstrom
no_reorient  #important for SAPT in psi4, default
symmetry c1  #important for SAPT in psi4, default
}

set PROPERTIES_ORIGIN ["COM"]
properties('MP2/aug-cc-pvtz', properties = ['dipole'])
--------------------------------------------------------------------------

    Molecular point group: c1
  Charge       = 0
  Multiplicity = 1
  Basis Set: AUG-CC-PVTZ
    Blend: AUG-CC-PVTZ
  Basis Set: (AUG-CC-PVTZ AUX)
    Blend: AUG-CC-PVTZ-JKFIT

    Orbital Energies [Eh]
    ---------------------

    Doubly Occupied:

       1A    -20.567818     2A    -11.276215     3A    -11.221851
       4A    -11.218831     5A     -1.398577     6A     -1.043764
       7A     -0.911088     8A     -0.816511     9A     -0.703587
      10A     -0.640653    11A     -0.614707    12A     -0.590282
      13A     -0.549270    14A     -0.503694    15A     -0.497793
      16A     -0.456809    17A     -0.419834

  @DF-RHF Final Energy:  -193.18302254878125

   => Energetics <=

    Nuclear Repulsion Energy =            130.6928431062586924
    One-Electron Energy =                -520.8891589060084470
    Two-Electron Energy =                 197.0132932509685020
    Total Energy =                       -193.1830225487812527
  Basis Set: (AUG-CC-PVTZ AUX)
    Blend: AUG-CC-PVTZ-RI
    Molecular point group: c1

    Geometry (in Angstrom), charge = 0, multiplicity = 1:

       Center              X                  Y                   Z               Mass
    ------------   -----------------  -----------------  -----------------  -----------------
         O           -1.813805086952     0.082480237958    -0.076444593852    15.994914619570
         C            0.604770913048     0.512141237958    -0.030108593852    12.000000000000
         C           -0.610063986952    -0.469501262042     0.033381406148    12.000000000000
         C            1.986067913048    -0.134323762042     0.029534406148    12.000000000000
         H            0.486592913048     1.084499237958    -0.956067593852     1.007825032230
         H            0.492830913048     1.224316237958     0.798572406148     1.007825032230
         H           -0.447277086952    -1.210134762042    -0.796194593852     1.007825032230
         H           -0.438094086952    -1.099102762042     0.968626406148     1.007825032230
         H            2.128414913048    -0.827991762042    -0.804683593852     1.007825032230
         H            2.776686913048     0.618570237958    -0.023154593852     1.007825032230
         H            2.119806913048    -0.696044762042     0.959220406148     1.007825032230
         H           -1.917305086952     0.688530237958     0.676282406148     1.007825032230

  Basis Set: AUG-CC-PVTZ
    Blend: AUG-CC-PVTZ
  Basis Set: (AUG-CC-PVTZ AUX)
    Blend: AUG-CC-PVTZ-JKFIT
	 Reference Energy          =    -193.1830225487812527 [Eh]
	 Singles Energy            =      -0.0000000000000000 [Eh]
	 Same-Spin Energy          =      -0.1906353432277387 [Eh]
	 Opposite-Spin Energy      =      -0.6708414606747727 [Eh]
	 Correlation Energy        =      -0.8614768039025114 [Eh]
	 Total Energy              =    -194.0444993526837720 [Eh]

	 ================> DF-SCS-MP2 Energies <==================
	-----------------------------------------------------------
	 SCS Same-Spin Scale       =       0.3333333333333333 [-]
	 SCS Opposite-Spin Scale   =       1.2000000000000000 [-]
	 SCS Same-Spin Energy      =      -0.0635451144092462 [Eh]
	 SCS Opposite-Spin Energy  =      -0.8050097528097272 [Eh]
	 SCS Correlation Energy    =      -0.8685548672189735 [Eh]
	 SCS Total Energy          =    -194.0515774160002138 [Eh]
	-----------------------------------------------------------

  Dipole Moment: [D]
     X:     0.9536      Y:     0.5220      Z:     1.1003     Total:     1.5468

*** Psi4 exiting successfully. Buy a developer a beer!
