                               Psi4 1.4a3.dev225

  ==> Input File <==

--------------------------------------------------------------------------
#psi4
#
memory 32 gb

molecule  {
0 1
  O       -1.9047240     0.0931460    -0.0908470
  C        0.5131690     0.5241710    -0.0433670
  C       -0.5926837    -0.5077077     0.0291737
  C        1.8936320    -0.1245310     0.0161890
  H        0.3957570     1.0975960    -0.9686090
  H        0.4007840     1.2346420     0.7863210
  H       -0.5374450    -1.1984960    -0.8102130
  H       -0.5284920    -1.0877010     0.9544070
  H        2.0362220    -0.8155520    -0.8201750
  H        2.6863420     0.6265150    -0.0317980
  H        2.0238630    -0.6901790     0.9440150
  H       -2.0152090     0.6866180     0.6708020
units angstrom
no_reorient  #important for SAPT in psi4, default
symmetry c1  #important for SAPT in psi4, default
}

set PROPERTIES_ORIGIN ["COM"]
properties('MP2/aug-cc-pvtz', properties = ['dipole'])
--------------------------------------------------------------------------

    Molecular point group: c1
  Charge       = 0
  Multiplicity = 1
  Basis Set: AUG-CC-PVTZ
    Blend: AUG-CC-PVTZ
  Basis Set: (AUG-CC-PVTZ AUX)
    Blend: AUG-CC-PVTZ-JKFIT

    Orbital Energies [Eh]
    ---------------------

    Doubly Occupied:

       1A    -20.554084     2A    -11.272693     3A    -11.224295
       4A    -11.220484     5A     -1.344957     6A     -1.056430
       7A     -0.916646     8A     -0.815644     9A     -0.686434
      10A     -0.630047    11A     -0.593674    12A     -0.586196
      13A     -0.543741    14A     -0.502476    15A     -0.499274
      16A     -0.474267    17A     -0.439319

  @DF-RHF Final Energy:  -193.19119860148373

   => Energetics <=

    Nuclear Repulsion Energy =            130.0593592740521274
    One-Electron Energy =                -519.7797958116398149
    Two-Electron Energy =                 196.5292379361039821
    Total Energy =                       -193.1911986014837339
  Basis Set: (AUG-CC-PVTZ AUX)
    Blend: AUG-CC-PVTZ-RI
    Molecular point group: c1

    Geometry (in Angstrom), charge = 0, multiplicity = 1:

       Center              X                  Y                   Z               Mass
    ------------   -----------------  -----------------  -----------------  -----------------
         O           -1.834795128293     0.092390955373    -0.079212812043    15.994914619570
         C            0.583097871707     0.523415955373    -0.031732812043    12.000000000000
         C           -0.522754828293    -0.508462744627     0.040807887957    12.000000000000
         C            1.963560871707    -0.125286044627     0.027823187957    12.000000000000
         H            0.465685871707     1.096840955373    -0.956974812043     1.007825032230
         H            0.470712871707     1.233886955373     0.797955187957     1.007825032230
         H           -0.467516128293    -1.199251044627    -0.798578812043     1.007825032230
         H           -0.458563128293    -1.088456044627     0.966041187957     1.007825032230
         H            2.106150871707    -0.816307044627    -0.808540812043     1.007825032230
         H            2.756270871707     0.625759955373    -0.020163812043     1.007825032230
         H            2.093791871707    -0.690934044627     0.955649187957     1.007825032230
         H           -1.945280128293     0.685862955373     0.682436187957     1.007825032230

  Basis Set: AUG-CC-PVTZ
    Blend: AUG-CC-PVTZ
  Basis Set: (AUG-CC-PVTZ AUX)
    Blend: AUG-CC-PVTZ-JKFIT
	 Reference Energy          =    -193.1911986014837339 [Eh]
	 Singles Energy            =      -0.0000000000000000 [Eh]
	 Same-Spin Energy          =      -0.1906504748020220 [Eh]
	 Opposite-Spin Energy      =      -0.6722157655285820 [Eh]
	 Correlation Energy        =      -0.8628662403306040 [Eh]
	 Total Energy              =    -194.0540648418143519 [Eh]

	 ================> DF-SCS-MP2 Energies <==================
	-----------------------------------------------------------
	 SCS Same-Spin Scale       =       0.3333333333333333 [-]
	 SCS Opposite-Spin Scale   =       1.2000000000000000 [-]
	 SCS Same-Spin Energy      =      -0.0635501582673407 [Eh]
	 SCS Opposite-Spin Energy  =      -0.8066589186342984 [Eh]
	 SCS Correlation Energy    =      -0.8702090769016391 [Eh]
	 SCS Total Energy          =    -194.0614076783853648 [Eh]
	-----------------------------------------------------------

  Dipole Moment: [D]
     X:     1.4141      Y:     0.3222      Z:     1.1483     Total:     1.8499

*** Psi4 exiting successfully. Buy a developer a beer!
