                               Psi4 1.3.2 release

  ==> Input File <==

--------------------------------------------------------------------------
#psi4
#
memory 32 gb

molecule  {
0 1
  O       -1.9055520     0.0929760    -0.0899000
  C        0.5130240     0.5226370    -0.0435640
  C       -0.6202247    -0.5263772    -0.0135093
  C        1.8943210    -0.1238280     0.0160790
  H        0.3948460     1.0949950    -0.9695230
  H        0.4010840     1.2348120     0.7851170
  H       -0.5390240    -1.1996390    -0.8096500
  H       -0.5298410    -1.0886070     0.9551710
  H        2.0366680    -0.8174960    -0.8181390
  H        2.6849400     0.6290660    -0.0366100
  H        2.0280600    -0.6855490     0.9457650
  H       -2.0400097     0.7069413     0.6514330
units angstrom
no_reorient  #important for SAPT in psi4, default
symmetry c1  #important for SAPT in psi4, default
}

set PROPERTIES_ORIGIN ["COM"]
properties('MP2/aug-cc-pvtz', properties = ['dipole'])
--------------------------------------------------------------------------

    Molecular point group: c1
  Charge       = 0
  Multiplicity = 1
  Basis Set: AUG-CC-PVTZ
    Blend: AUG-CC-PVTZ
  Basis Set: (AUG-CC-PVTZ AUX)
    Blend: AUG-CC-PVTZ-JKFIT

    Orbital Energies [Eh]
    ---------------------

    Doubly Occupied:

       1A    -20.553794     2A    -11.273024     3A    -11.224239
       4A    -11.219329     5A     -1.349342     6A     -1.050991
       7A     -0.917044     8A     -0.817310     9A     -0.684137
      10A     -0.636479    11A     -0.595200    12A     -0.582556
      13A     -0.551289    14A     -0.501689    15A     -0.496157
      16A     -0.475629    17A     -0.429125

  @DF-RHF Final Energy:  -193.18936569206465

   => Energetics <=

    Nuclear Repulsion Energy =            129.8809379081306759
    One-Electron Energy =                -519.4259392665969699
    Two-Electron Energy =                 196.3556356664016107
    Total Energy =                       -193.1893656920646549
  Basis Set: (AUG-CC-PVTZ AUX)
    Blend: AUG-CC-PVTZ-RI
    Molecular point group: c1

    Geometry (in Angstrom), charge = 0, multiplicity = 1:

       Center              X                  Y                   Z               Mass
    ------------   -----------------  -----------------  -----------------  -----------------
         O           -1.829587199431     0.095808847445    -0.069572735114    15.994914619570
         C            0.588988800569     0.525469847445    -0.023236735114    12.000000000000
         C           -0.544259899431    -0.523544352555     0.006817964886    12.000000000000
         C            1.970285800569    -0.120995152555     0.036406264886    12.000000000000
         H            0.470810800569     1.097827847445    -0.949195735114     1.007825032230
         H            0.477048800569     1.237644847445     0.805444264886     1.007825032230
         H           -0.463059199431    -1.196806152555    -0.789322735114     1.007825032230
         H           -0.453876199431    -1.085774152555     0.975498264886     1.007825032230
         H            2.112632800569    -0.814663152555    -0.797811735114     1.007825032230
         H            2.760904800569     0.631898847445    -0.016282735114     1.007825032230
         H            2.104024800569    -0.682716152555     0.966092264886     1.007825032230
         H           -1.964044899431     0.709774147445     0.671760264886     1.007825032230

  Basis Set: AUG-CC-PVTZ
    Blend: AUG-CC-PVTZ
  Basis Set: (AUG-CC-PVTZ AUX)
    Blend: AUG-CC-PVTZ-JKFIT
	 Reference Energy          =    -193.1893656920646549 [Eh]
	 Singles Energy            =      -0.0000000000000000 [Eh]
	 Same-Spin Energy          =      -0.1902923183729819 [Eh]
	 Opposite-Spin Energy      =      -0.6714686097185585 [Eh]
	 Correlation Energy        =      -0.8617609280915404 [Eh]
	 Total Energy              =    -194.0511266201561966 [Eh]

	 ================> DF-SCS-MP2 Energies <==================
	-----------------------------------------------------------
	 SCS Same-Spin Scale       =       0.3333333333333333 [-]
	 SCS Opposite-Spin Scale   =       1.2000000000000000 [-]
	 SCS Same-Spin Energy      =      -0.0634307727909939 [Eh]
	 SCS Opposite-Spin Energy  =      -0.8057623316622702 [Eh]
	 SCS Correlation Energy    =      -0.8691931044532641 [Eh]
	 SCS Total Energy          =    -194.0585587965179286 [Eh]
	-----------------------------------------------------------

  Dipole Moment: [D]
     X:     1.3001      Y:     0.3540      Z:     1.0757     Total:     1.7241

*** Psi4 exiting successfully. Buy a developer a beer!
