                               Psi4 1.3.2 release

  ==> Input File <==

--------------------------------------------------------------------------
#psi4
#
memory 32 gb

molecule  {
0 1
  O       -1.9055520     0.0929760    -0.0899000
  C        0.5130240     0.5226370    -0.0435640
  C       -0.6112230    -0.5005450     0.0281910
  C        1.8943210    -0.1238280     0.0160790
  H        0.3948460     1.0949950    -0.9695230
  H        0.4010840     1.2348120     0.7851170
  H       -0.5390240    -1.1996390    -0.8096500
  H       -0.5298410    -1.0886070     0.9551710
  H        2.0366680    -0.8174960    -0.8181390
  H        2.6849400     0.6290660    -0.0366100
  H        2.0280600    -0.6855490     0.9457650
  H       -2.0090520     0.6990260     0.6628270
units angstrom
no_reorient  #important for SAPT in psi4, default
symmetry c1  #important for SAPT in psi4, default
}

set PROPERTIES_ORIGIN ["COM"]
properties('MP2/aug-cc-pvtz', properties = ['dipole'])
--------------------------------------------------------------------------

    Molecular point group: c1
  Charge       = 0
  Multiplicity = 1
  Basis Set: AUG-CC-PVTZ
    Blend: AUG-CC-PVTZ
  Basis Set: (AUG-CC-PVTZ AUX)
    Blend: AUG-CC-PVTZ-JKFIT

    Orbital Energies [Eh]
    ---------------------

    Doubly Occupied:

       1A    -20.556304     2A    -11.272920     3A    -11.224067
       4A    -11.220267     5A     -1.352567     6A     -1.054290
       7A     -0.915839     8A     -0.815389     9A     -0.688223
      10A     -0.631263    11A     -0.596601    12A     -0.586635
      13A     -0.544893    14A     -0.501516    15A     -0.500457
      16A     -0.472172    17A     -0.437201

  @DF-RHF Final Energy:  -193.19183170619272

   => Energetics <=

    Nuclear Repulsion Energy =            130.1353233716201316
    One-Electron Energy =                -519.9131053243602310
    Two-Electron Energy =                 196.5859502465473838
    Total Energy =                       -193.1918317061927155
  Basis Set: (AUG-CC-PVTZ AUX)
    Blend: AUG-CC-PVTZ-RI
    Molecular point group: c1

    Geometry (in Angstrom), charge = 0, multiplicity = 1:

       Center              X                  Y                   Z               Mass
    ------------   -----------------  -----------------  -----------------  -----------------
         O           -1.831905316411     0.090780181787    -0.078096010835    15.994914619570
         C            0.586670683589     0.520441181787    -0.031760010835    12.000000000000
         C           -0.537576316411    -0.502740818213     0.039994989165    12.000000000000
         C            1.967967683589    -0.126023818213     0.027882989165    12.000000000000
         H            0.468492683589     1.092799181787    -0.957719010835     1.007825032230
         H            0.474730683589     1.232616181787     0.796920989165     1.007825032230
         H           -0.465377316411    -1.201834818213    -0.797846010835     1.007825032230
         H           -0.456194316411    -1.090802818213     0.966974989165     1.007825032230
         H            2.110314683589    -0.819691818213    -0.806335010835     1.007825032230
         H            2.758586683589     0.626870181787    -0.024806010835     1.007825032230
         H            2.101706683589    -0.687744818213     0.957568989165     1.007825032230
         H           -1.935405316411     0.696830181787     0.674630989165     1.007825032230

  Basis Set: AUG-CC-PVTZ
    Blend: AUG-CC-PVTZ
  Basis Set: (AUG-CC-PVTZ AUX)
    Blend: AUG-CC-PVTZ-JKFIT
	 Reference Energy          =    -193.1918317061927155 [Eh]
	 Singles Energy            =      -0.0000000000000000 [Eh]
	 Same-Spin Energy          =      -0.1905831645753828 [Eh]
	 Opposite-Spin Energy      =      -0.6718906960350239 [Eh]
	 Correlation Energy        =      -0.8624738606104068 [Eh]
	 Total Energy              =    -194.0543055668031229 [Eh]

	 ================> DF-SCS-MP2 Energies <==================
	-----------------------------------------------------------
	 SCS Same-Spin Scale       =       0.3333333333333333 [-]
	 SCS Opposite-Spin Scale   =       1.2000000000000000 [-]
	 SCS Same-Spin Energy      =      -0.0635277215251276 [Eh]
	 SCS Opposite-Spin Energy  =      -0.8062688352420287 [Eh]
	 SCS Correlation Energy    =      -0.8697965567671564 [Eh]
	 SCS Total Energy          =    -194.0616282629598857 [Eh]
	-----------------------------------------------------------

  Dipole Moment: [D]
     X:     1.3558      Y:     0.3646      Z:     1.1299     Total:     1.8022

*** Psi4 exiting successfully. Buy a developer a beer!
