                               Psi4 1.3.2 release

  ==> Input File <==

--------------------------------------------------------------------------
#psi4
#
memory 32 gb

molecule  {
0 1
  O       -1.9055520     0.0929760    -0.0899000
  C        0.5130240     0.5226370    -0.0435640
  C       -0.6112230    -0.5005450     0.0281910
  C        1.8943210    -0.1238280     0.0160790
  H        0.3948460     1.0949950    -0.9695230
  H        0.4010840     1.2348120     0.7851170
  H       -0.5390240    -1.1996390    -0.8096500
  H       -0.5298410    -1.0886070     0.9551710
  H        2.0366680    -0.8174960    -0.8181390
  H        2.6849400     0.6290660    -0.0366100
  H        2.0280600    -0.6855490     0.9457650
  H       -2.0197011     0.7613827     0.7402753
units angstrom
no_reorient  #important for SAPT in psi4, default
symmetry c1  #important for SAPT in psi4, default
}

set PROPERTIES_ORIGIN ["COM"]
properties('MP2/aug-cc-pvtz', properties = ['dipole'])
--------------------------------------------------------------------------

    Molecular point group: c1
  Charge       = 0
  Multiplicity = 1
  Basis Set: AUG-CC-PVTZ
    Blend: AUG-CC-PVTZ
  Basis Set: (AUG-CC-PVTZ AUX)
    Blend: AUG-CC-PVTZ-JKFIT

    Orbital Energies [Eh]
    ---------------------

    Doubly Occupied:

       1A    -20.564956     2A    -11.272226     3A    -11.223505
       4A    -11.219835     5A     -1.334024     6A     -1.052327
       7A     -0.911090     8A     -0.811641     9A     -0.675913
      10A     -0.624846    11A     -0.594806    12A     -0.584314
      13A     -0.541864    14A     -0.500840    15A     -0.497594
      16A     -0.469715    17A     -0.435398

  @DF-RHF Final Energy:  -193.17855386169802

   => Energetics <=

    Nuclear Repulsion Energy =            129.6315965001990378
    One-Electron Energy =                -518.9905079744511340
    Two-Electron Energy =                 196.1803576125540474
    Total Energy =                       -193.1785538616980205
  Basis Set: (AUG-CC-PVTZ AUX)
    Blend: AUG-CC-PVTZ-RI
    Molecular point group: c1

    Geometry (in Angstrom), charge = 0, multiplicity = 1:

       Center              X                  Y                   Z               Mass
    ------------   -----------------  -----------------  -----------------  -----------------
         O           -1.831726613886     0.089733774134    -0.079395670596    15.994914619570
         C            0.586849386114     0.519394774134    -0.033059670596    12.000000000000
         C           -0.537397613886    -0.503787225866     0.038695329404    12.000000000000
         C            1.968146386114    -0.127070225866     0.026583329404    12.000000000000
         H            0.468671386114     1.091752774134    -0.959018670596     1.007825032230
         H            0.474909386114     1.231569774134     0.795621329404     1.007825032230
         H           -0.465198613886    -1.202881225866    -0.799145670596     1.007825032230
         H           -0.456015613886    -1.091849225866     0.965675329404     1.007825032230
         H            2.110493386114    -0.820738225866    -0.807634670596     1.007825032230
         H            2.758765386114     0.625823774134    -0.026105670596     1.007825032230
         H            2.101885386114    -0.688791225866     0.956269329404     1.007825032230
         H           -1.945875713886     0.758140474134     0.750779629404     1.007825032230

  Basis Set: AUG-CC-PVTZ
    Blend: AUG-CC-PVTZ
  Basis Set: (AUG-CC-PVTZ AUX)
    Blend: AUG-CC-PVTZ-JKFIT
	 Reference Energy          =    -193.1785538616980205 [Eh]
	 Singles Energy            =      -0.0000000000000000 [Eh]
	 Same-Spin Energy          =      -0.1916395793956749 [Eh]
	 Opposite-Spin Energy      =      -0.6750417971344331 [Eh]
	 Correlation Energy        =      -0.8666813765301080 [Eh]
	 Total Energy              =    -194.0452352382281163 [Eh]

	 ================> DF-SCS-MP2 Energies <==================
	-----------------------------------------------------------
	 SCS Same-Spin Scale       =       0.3333333333333333 [-]
	 SCS Opposite-Spin Scale   =       1.2000000000000000 [-]
	 SCS Same-Spin Energy      =      -0.0638798597985583 [Eh]
	 SCS Opposite-Spin Energy  =      -0.8100501565613197 [Eh]
	 SCS Correlation Energy    =      -0.8739300163598780 [Eh]
	 SCS Total Energy          =    -194.0524838780578989 [Eh]
	-----------------------------------------------------------

  Dipole Moment: [D]
     X:     1.3269      Y:     0.4042      Z:     1.1733     Total:     1.8167

*** Psi4 exiting successfully. Buy a developer a beer!
