                               Psi4 1.3.2 release

  ==> Input File <==

--------------------------------------------------------------------------
#psi4
#
memory 32 gb

molecule  {
0 1
  O       -1.8948383     0.1153945    -0.0920190
  C        0.4949819     0.5419136    -0.0464567
  C       -0.6112230    -0.5005450     0.0281910
  C        1.8943210    -0.1238280     0.0160790
  H        0.3948460     1.0949950    -0.9695230
  H        0.4010840     1.2348120     0.7851170
  H       -0.5390240    -1.1996390    -0.8096500
  H       -0.5298410    -1.0886070     0.9551710
  H        2.0366680    -0.8174960    -0.8181390
  H        2.6849400     0.6290660    -0.0366100
  H        2.0280600    -0.6855490     0.9457650
  H       -2.0090520     0.6990260     0.6628270
units angstrom
no_reorient  #important for SAPT in psi4, default
symmetry c1  #important for SAPT in psi4, default
}

set PROPERTIES_ORIGIN ["COM"]
properties('MP2/aug-cc-pvtz', properties = ['dipole'])
--------------------------------------------------------------------------

    Molecular point group: c1
  Charge       = 0
  Multiplicity = 1
  Basis Set: AUG-CC-PVTZ
    Blend: AUG-CC-PVTZ
  Basis Set: (AUG-CC-PVTZ AUX)
    Blend: AUG-CC-PVTZ-JKFIT

    Orbital Energies [Eh]
    ---------------------

    Doubly Occupied:

       1A    -20.553816     2A    -11.273154     3A    -11.222265
       4A    -11.220269     5A     -1.354250     6A     -1.050642
       7A     -0.914708     8A     -0.818207     9A     -0.690373
      10A     -0.631553    11A     -0.596809    12A     -0.585077
      13A     -0.542846    14A     -0.503567    15A     -0.496535
      16A     -0.475375    17A     -0.436306

  @DF-RHF Final Energy:  -193.19195442793071

   => Energetics <=

    Nuclear Repulsion Energy =            130.1651451731709130
    One-Electron Energy =                -519.9826935495113958
    Two-Electron Energy =                 196.6255939484097723
    Total Energy =                       -193.1919544279307104
  Basis Set: (AUG-CC-PVTZ AUX)
    Blend: AUG-CC-PVTZ-RI
    Molecular point group: c1

    Geometry (in Angstrom), charge = 0, multiplicity = 1:

       Center              X                  Y                   Z               Mass
    ------------   -----------------  -----------------  -----------------  -----------------
         O           -1.820439995513     0.103376410676    -0.079072678785    15.994914619570
         C            0.569380204487     0.529895510676    -0.033510378785    12.000000000000
         C           -0.536824695513    -0.512563089324     0.041137321215    12.000000000000
         C            1.968719304487    -0.135846089324     0.029025321215    12.000000000000
         H            0.469244304487     1.082976910676    -0.956576678785     1.007825032230
         H            0.475482304487     1.222793910676     0.798063321215     1.007825032230
         H           -0.464625695513    -1.211657089324    -0.796703678785     1.007825032230
         H           -0.455442695513    -1.100625089324     0.968117321215     1.007825032230
         H            2.111066304487    -0.829514089324    -0.805192678785     1.007825032230
         H            2.759338304487     0.617047910676    -0.023663678785     1.007825032230
         H            2.102458304487    -0.697567089324     0.958711321215     1.007825032230
         H           -1.934653695513     0.687007910676     0.675773321215     1.007825032230

  Basis Set: AUG-CC-PVTZ
    Blend: AUG-CC-PVTZ
  Basis Set: (AUG-CC-PVTZ AUX)
    Blend: AUG-CC-PVTZ-JKFIT
	 Reference Energy          =    -193.1919544279307104 [Eh]
	 Singles Energy            =      -0.0000000000000000 [Eh]
	 Same-Spin Energy          =      -0.1903151947187161 [Eh]
	 Opposite-Spin Energy      =      -0.6714044130255697 [Eh]
	 Correlation Energy        =      -0.8617196077442858 [Eh]
	 Total Energy              =    -194.0536740356749874 [Eh]

	 ================> DF-SCS-MP2 Energies <==================
	-----------------------------------------------------------
	 SCS Same-Spin Scale       =       0.3333333333333333 [-]
	 SCS Opposite-Spin Scale   =       1.2000000000000000 [-]
	 SCS Same-Spin Energy      =      -0.0634383982395720 [Eh]
	 SCS Opposite-Spin Energy  =      -0.8056852956306837 [Eh]
	 SCS Correlation Energy    =      -0.8691236938702557 [Eh]
	 SCS Total Energy          =    -194.0610781218009606 [Eh]
	-----------------------------------------------------------

  Dipole Moment: [D]
     X:     1.3160      Y:     0.3193      Z:     1.1459     Total:     1.7740

*** Psi4 exiting successfully. Buy a developer a beer!
