                               Psi4 1.3.2 release

  ==> Input File <==

--------------------------------------------------------------------------
#psi4
#
memory 32 gb

molecule  {
0 1
  O       -1.9107612     0.0816985    -0.0888270
  C        0.5219170     0.5128815    -0.0421094
  C       -0.6112230    -0.5005450     0.0281910
  C        1.8943210    -0.1238280     0.0160790
  H        0.3948460     1.0949950    -0.9695230
  H        0.4010840     1.2348120     0.7851170
  H       -0.5390240    -1.1996390    -0.8096500
  H       -0.5298410    -1.0886070     0.9551710
  H        2.0366680    -0.8174960    -0.8181390
  H        2.6849400     0.6290660    -0.0366100
  H        2.0280600    -0.6855490     0.9457650
  H       -2.0090520     0.6990260     0.6628270
units angstrom
no_reorient  #important for SAPT in psi4, default
symmetry c1  #important for SAPT in psi4, default
}

set PROPERTIES_ORIGIN ["COM"]
properties('MP2/aug-cc-pvtz', properties = ['dipole'])
--------------------------------------------------------------------------

    Molecular point group: c1
  Charge       = 0
  Multiplicity = 1
  Basis Set: AUG-CC-PVTZ
    Blend: AUG-CC-PVTZ
  Basis Set: (AUG-CC-PVTZ AUX)
    Blend: AUG-CC-PVTZ-JKFIT

    Orbital Energies [Eh]
    ---------------------

    Doubly Occupied:

       1A    -20.557589     2A    -11.272843     3A    -11.225062
       4A    -11.220224     5A     -1.351754     6A     -1.056239
       7A     -0.916417     8A     -0.813945     9A     -0.687173
      10A     -0.631219    11A     -0.596750    12A     -0.587358
      13A     -0.545938    14A     -0.503515    15A     -0.499582
      16A     -0.470260    17A     -0.437309

  @DF-RHF Final Energy:  -193.19100190900284

   => Energetics <=

    Nuclear Repulsion Energy =            130.1239012680354392
    One-Electron Energy =                -519.8834518944706815
    Two-Electron Energy =                 196.5685487174324351
    Total Energy =                       -193.1910019090028356
  Basis Set: (AUG-CC-PVTZ AUX)
    Blend: AUG-CC-PVTZ-RI
    Molecular point group: c1

    Geometry (in Angstrom), charge = 0, multiplicity = 1:

       Center              X                  Y                   Z               Mass
    ------------   -----------------  -----------------  -----------------  -----------------
         O           -1.837504064510     0.084455411687    -0.077599420689    15.994914619570
         C            0.595174135490     0.515638411687    -0.030881820689    12.000000000000
         C           -0.537965864510    -0.497788088313     0.039418579311    12.000000000000
         C            1.967578135490    -0.121071088313     0.027306579311    12.000000000000
         H            0.468103135490     1.097751911687    -0.958295420689     1.007825032230
         H            0.474341135490     1.237568911687     0.796344579311     1.007825032230
         H           -0.465766864510    -1.196882088313    -0.798422420689     1.007825032230
         H           -0.456583864510    -1.085850088313     0.966398579311     1.007825032230
         H            2.109925135490    -0.814739088313    -0.806911420689     1.007825032230
         H            2.758197135490     0.631822911687    -0.025382420689     1.007825032230
         H            2.101317135490    -0.682792088313     0.956992579311     1.007825032230
         H           -1.935794864510     0.701782911687     0.674054579311     1.007825032230

  Basis Set: AUG-CC-PVTZ
    Blend: AUG-CC-PVTZ
  Basis Set: (AUG-CC-PVTZ AUX)
    Blend: AUG-CC-PVTZ-JKFIT
	 Reference Energy          =    -193.1910019090028356 [Eh]
	 Singles Energy            =      -0.0000000000000000 [Eh]
	 Same-Spin Energy          =      -0.1907427846745421 [Eh]
	 Opposite-Spin Energy      =      -0.6721887326940114 [Eh]
	 Correlation Energy        =      -0.8629315173685534 [Eh]
	 Total Energy              =    -194.0539334263714011 [Eh]

	 ================> DF-SCS-MP2 Energies <==================
	-----------------------------------------------------------
	 SCS Same-Spin Scale       =       0.3333333333333333 [-]
	 SCS Opposite-Spin Scale   =       1.2000000000000000 [-]
	 SCS Same-Spin Energy      =      -0.0635809282248473 [Eh]
	 SCS Opposite-Spin Energy  =      -0.8066264792328136 [Eh]
	 SCS Correlation Energy    =      -0.8702074074576609 [Eh]
	 SCS Total Energy          =    -194.0612093164604914 [Eh]
	-----------------------------------------------------------

  Dipole Moment: [D]
     X:     1.3743      Y:     0.3866      Z:     1.1217     Total:     1.8156

*** Psi4 exiting successfully. Buy a developer a beer!
