                               Psi4 1.3.2 release

  ==> Input File <==

--------------------------------------------------------------------------
#psi4
#
memory 32 gb

molecule  {
0 1
  O       -1.8905009     0.1332627    -0.0286949
  C        0.5130240     0.5226370    -0.0435640
  C       -0.6112230    -0.5005450     0.0281910
  C        1.8943210    -0.1238280     0.0160790
  H        0.3948460     1.0949950    -0.9695230
  H        0.4010840     1.2348120     0.7851170
  H       -0.4864250    -1.2133819    -0.7916941
  H       -0.5298410    -1.0886070     0.9551710
  H        2.0366680    -0.8174960    -0.8181390
  H        2.6849400     0.6290660    -0.0366100
  H        2.0280600    -0.6855490     0.9457650
  H       -2.0090520     0.6990260     0.6628270
units angstrom
no_reorient  #important for SAPT in psi4, default
symmetry c1  #important for SAPT in psi4, default
}

set PROPERTIES_ORIGIN ["COM"]
properties('MP2/aug-cc-pvtz', properties = ['dipole'])
--------------------------------------------------------------------------

    Molecular point group: c1
  Charge       = 0
  Multiplicity = 1
  Basis Set: AUG-CC-PVTZ
    Blend: AUG-CC-PVTZ
  Basis Set: (AUG-CC-PVTZ AUX)
    Blend: AUG-CC-PVTZ-JKFIT

    Orbital Energies [Eh]
    ---------------------

    Doubly Occupied:

       1A    -20.547516     2A    -11.275014     3A    -11.223002
       4A    -11.219707     5A     -1.366948     6A     -1.055917
       7A     -0.921506     8A     -0.818086     9A     -0.696479
      10A     -0.641250    11A     -0.597768    12A     -0.585541
      13A     -0.549536    14A     -0.501476    15A     -0.498149
      16A     -0.469804    17A     -0.437393

  @DF-RHF Final Energy:  -193.18980392853996

   => Energetics <=

    Nuclear Repulsion Energy =            130.6177177026365825
    One-Electron Energy =                -520.8048580938833538
    Two-Electron Energy =                 196.9973364627068122
    Total Energy =                       -193.1898039285399591
  Basis Set: (AUG-CC-PVTZ AUX)
    Blend: AUG-CC-PVTZ-RI
    Molecular point group: c1

    Geometry (in Angstrom), charge = 0, multiplicity = 1:

       Center              X                  Y                   Z               Mass
    ------------   -----------------  -----------------  -----------------  -----------------
         O           -1.821745388630     0.120568080939    -0.033492775836    15.994914619570
         C            0.581779511370     0.509942380939    -0.048361875836    12.000000000000
         C           -0.542467488630    -0.513239619061     0.023393124164    12.000000000000
         C            1.963076511370    -0.136522619061     0.011281124164    12.000000000000
         H            0.463601511370     1.082300380939    -0.974320875836     1.007825032230
         H            0.469839511370     1.222117380939     0.780319124164     1.007825032230
         H           -0.417669488630    -1.226076519061    -0.796491975836     1.007825032230
         H           -0.461085488630    -1.101301619061     0.950373124164     1.007825032230
         H            2.105423511370    -0.830190619061    -0.822936875836     1.007825032230
         H            2.753695511370     0.616371380939    -0.041407875836     1.007825032230
         H            2.096815511370    -0.698243619061     0.940967124164     1.007825032230
         H           -1.940296488630     0.686331380939     0.658029124164     1.007825032230

  Basis Set: AUG-CC-PVTZ
    Blend: AUG-CC-PVTZ
  Basis Set: (AUG-CC-PVTZ AUX)
    Blend: AUG-CC-PVTZ-JKFIT
	 Reference Energy          =    -193.1898039285399591 [Eh]
	 Singles Energy            =      -0.0000000000000000 [Eh]
	 Same-Spin Energy          =      -0.1896857496356462 [Eh]
	 Opposite-Spin Energy      =      -0.6694825313682115 [Eh]
	 Correlation Energy        =      -0.8591682810038577 [Eh]
	 Total Energy              =    -194.0489722095438196 [Eh]

	 ================> DF-SCS-MP2 Energies <==================
	-----------------------------------------------------------
	 SCS Same-Spin Scale       =       0.3333333333333333 [-]
	 SCS Opposite-Spin Scale   =       1.2000000000000000 [-]
	 SCS Same-Spin Energy      =      -0.0632285832118821 [Eh]
	 SCS Opposite-Spin Energy  =      -0.8033790376418537 [Eh]
	 SCS Correlation Energy    =      -0.8666076208537358 [Eh]
	 SCS Total Energy          =    -194.0564115493936868 [Eh]
	-----------------------------------------------------------

  Dipole Moment: [D]
     X:     1.3516      Y:     0.2895      Z:     1.0532     Total:     1.7377

*** Psi4 exiting successfully. Buy a developer a beer!
