                               Psi4 1.3.2 release

  ==> Input File <==

--------------------------------------------------------------------------
#psi4
#
memory 32 gb

molecule  {
0 1
  O       -1.9257934     0.0476036    -0.0855547
  C        0.5480754     0.4831548    -0.0377139
  C       -0.6112230    -0.5005450     0.0281910
  C        1.8943210    -0.1238280     0.0160790
  H        0.3948460     1.0949950    -0.9695230
  H        0.4010840     1.2348120     0.7851170
  H       -0.5390240    -1.1996390    -0.8096500
  H       -0.5298410    -1.0886070     0.9551710
  H        2.0366680    -0.8174960    -0.8181390
  H        2.6849400     0.6290660    -0.0366100
  H        2.0280600    -0.6855490     0.9457650
  H       -2.0090520     0.6990260     0.6628270
units angstrom
no_reorient  #important for SAPT in psi4, default
symmetry c1  #important for SAPT in psi4, default
}

set PROPERTIES_ORIGIN ["COM"]
properties('MP2/aug-cc-pvtz', properties = ['dipole'])
--------------------------------------------------------------------------

    Molecular point group: c1
  Charge       = 0
  Multiplicity = 1
  Basis Set: AUG-CC-PVTZ
    Blend: AUG-CC-PVTZ
  Basis Set: (AUG-CC-PVTZ AUX)
    Blend: AUG-CC-PVTZ-JKFIT

    Orbital Energies [Eh]
    ---------------------

    Doubly Occupied:

       1A    -20.561583     2A    -11.272784     3A    -11.228393
       4A    -11.219968     5A     -1.349430     6A     -1.062604
       7A     -0.918208     8A     -0.809491     9A     -0.684150
      10A     -0.631465    11A     -0.598543    12A     -0.589076
      13A     -0.549128    14A     -0.510827    15A     -0.495798
      16A     -0.463656    17A     -0.436459

  @DF-RHF Final Energy:  -193.18531248531502

   => Energetics <=

    Nuclear Repulsion Energy =            130.1039148703813737
    One-Electron Energy =                -519.8153270166689026
    Two-Electron Energy =                 196.5260996609725339
    Total Energy =                       -193.1853124853150234
  Basis Set: (AUG-CC-PVTZ AUX)
    Blend: AUG-CC-PVTZ-RI
    Molecular point group: c1

    Geometry (in Angstrom), charge = 0, multiplicity = 1:

       Center              X                  Y                   Z               Mass
    ------------   -----------------  -----------------  -----------------  -----------------
         O           -1.853759459386     0.065380537346    -0.076076879388    15.994914619570
         C            0.620109340614     0.500931737346    -0.028236079388    12.000000000000
         C           -0.539189059386    -0.482768062654     0.037668820612    12.000000000000
         C            1.966354940614    -0.106051062654     0.025556820612    12.000000000000
         H            0.466879940614     1.112771937346    -0.960045179388     1.007825032230
         H            0.473117940614     1.252588937346     0.794594820612     1.007825032230
         H           -0.466990059386    -1.181862062654    -0.800172179388     1.007825032230
         H           -0.457807059386    -1.070830062654     0.964648820612     1.007825032230
         H            2.108701940614    -0.799719062654    -0.808661179388     1.007825032230
         H            2.756973940614     0.646842937346    -0.027132179388     1.007825032230
         H            2.100093940614    -0.667772062654     0.955242820612     1.007825032230
         H           -1.937018059386     0.716802937346     0.672304820612     1.007825032230

  Basis Set: AUG-CC-PVTZ
    Blend: AUG-CC-PVTZ
  Basis Set: (AUG-CC-PVTZ AUX)
    Blend: AUG-CC-PVTZ-JKFIT
	 Reference Energy          =    -193.1853124853150234 [Eh]
	 Singles Energy            =      -0.0000000000000000 [Eh]
	 Same-Spin Energy          =      -0.1913235907855652 [Eh]
	 Opposite-Spin Energy      =      -0.6733016004521690 [Eh]
	 Correlation Energy        =      -0.8646251912377343 [Eh]
	 Total Energy              =    -194.0499376765527586 [Eh]

	 ================> DF-SCS-MP2 Energies <==================
	-----------------------------------------------------------
	 SCS Same-Spin Scale       =       0.3333333333333333 [-]
	 SCS Opposite-Spin Scale   =       1.2000000000000000 [-]
	 SCS Same-Spin Energy      =      -0.0637745302618551 [Eh]
	 SCS Opposite-Spin Energy  =      -0.8079619205426029 [Eh]
	 SCS Correlation Energy    =      -0.8717364508044579 [Eh]
	 SCS Total Energy          =    -194.0570489361194859 [Eh]
	-----------------------------------------------------------

  Dipole Moment: [D]
     X:     1.4248      Y:     0.4490      Z:     1.0969     Total:     1.8533

*** Psi4 exiting successfully. Buy a developer a beer!
