                               Psi4 1.3.2 release

  ==> Input File <==

--------------------------------------------------------------------------
#psi4
#
memory 32 gb

molecule  {
0 1
  O       -1.9170554     0.0510625    -0.1507814
  C        0.5130240     0.5226370    -0.0435640
  C       -0.6112230    -0.5005450     0.0281910
  C        1.8943210    -0.1238280     0.0160790
  H        0.3948460     1.0949950    -0.9695230
  H        0.4010840     1.2348120     0.7851170
  H       -0.5918209    -1.1839799    -0.8253094
  H       -0.5298410    -1.0886070     0.9551710
  H        2.0366680    -0.8174960    -0.8181390
  H        2.6849400     0.6290660    -0.0366100
  H        2.0280600    -0.6855490     0.9457650
  H       -2.0090520     0.6990260     0.6628270
units angstrom
no_reorient  #important for SAPT in psi4, default
symmetry c1  #important for SAPT in psi4, default
}

set PROPERTIES_ORIGIN ["COM"]
properties('MP2/aug-cc-pvtz', properties = ['dipole'])
--------------------------------------------------------------------------

    Molecular point group: c1
  Charge       = 0
  Multiplicity = 1
  Basis Set: AUG-CC-PVTZ
    Blend: AUG-CC-PVTZ
  Basis Set: (AUG-CC-PVTZ AUX)
    Blend: AUG-CC-PVTZ-JKFIT

    Orbital Energies [Eh]
    ---------------------

    Doubly Occupied:

       1A    -20.564446     2A    -11.271650     3A    -11.225256
       4A    -11.220904     5A     -1.341585     6A     -1.053314
       7A     -0.911605     8A     -0.813029     9A     -0.683460
      10A     -0.622159    11A     -0.595310    12A     -0.587338
      13A     -0.538142    14A     -0.502712    15A     -0.501124
      16A     -0.472268    17A     -0.437444

  @DF-RHF Final Energy:  -193.18048657099078

   => Energetics <=

    Nuclear Repulsion Energy =            129.7222395528925745
    One-Electron Energy =                -519.1219583060570812
    Two-Electron Energy =                 196.2192321821737266
    Total Energy =                       -193.1804865709907801
  Basis Set: (AUG-CC-PVTZ AUX)
    Blend: AUG-CC-PVTZ-RI
    Molecular point group: c1

    Geometry (in Angstrom), charge = 0, multiplicity = 1:

       Center              X                  Y                   Z               Mass
    ------------   -----------------  -----------------  -----------------  -----------------
         O           -1.839459070163     0.059766587025    -0.122500293321    15.994914619570
         C            0.590620329837     0.531341087025    -0.015282893321    12.000000000000
         C           -0.533626670163    -0.491840912975     0.056472106679    12.000000000000
         C            1.971917329837    -0.115123912975     0.044360106679    12.000000000000
         H            0.472442329837     1.103699087025    -0.941241893321     1.007825032230
         H            0.478680329837     1.243516087025     0.813398106679     1.007825032230
         H           -0.514224570163    -1.175275812975    -0.797028293321     1.007825032230
         H           -0.452244670163    -1.079902912975     0.983452106679     1.007825032230
         H            2.114264329837    -0.808791912975    -0.789857893321     1.007825032230
         H            2.762536329837     0.637770087025    -0.008328893321     1.007825032230
         H            2.105656329837    -0.676844912975     0.974046106679     1.007825032230
         H           -1.931455670163     0.707730087025     0.691108106679     1.007825032230

  Basis Set: AUG-CC-PVTZ
    Blend: AUG-CC-PVTZ
  Basis Set: (AUG-CC-PVTZ AUX)
    Blend: AUG-CC-PVTZ-JKFIT
	 Reference Energy          =    -193.1804865709907801 [Eh]
	 Singles Energy            =      -0.0000000000000000 [Eh]
	 Same-Spin Energy          =      -0.1916700102638876 [Eh]
	 Opposite-Spin Energy      =      -0.6748649963562576 [Eh]
	 Correlation Energy        =      -0.8665350066201453 [Eh]
	 Total Energy              =    -194.0470215776109342 [Eh]

	 ================> DF-SCS-MP2 Energies <==================
	-----------------------------------------------------------
	 SCS Same-Spin Scale       =       0.3333333333333333 [-]
	 SCS Opposite-Spin Scale   =       1.2000000000000000 [-]
	 SCS Same-Spin Energy      =      -0.0638900034212959 [Eh]
	 SCS Opposite-Spin Energy  =      -0.8098379956275091 [Eh]
	 SCS Correlation Energy    =      -0.8737279990488050 [Eh]
	 SCS Total Energy          =    -194.0542145700395906 [Eh]
	-----------------------------------------------------------

  Dipole Moment: [D]
     X:     1.3639      Y:     0.4302      Z:     1.1957     Total:     1.8641

*** Psi4 exiting successfully. Buy a developer a beer!
