                               Psi4 1.3.2 release

  ==> Input File <==

--------------------------------------------------------------------------
#psi4
#
memory 32 gb

molecule  {
0 1
  O       -1.9055520     0.0929760    -0.0899000
  C        0.5130240     0.5226370    -0.0435640
  C       -0.6092186    -0.4939727     0.0385956
  C        1.8943210    -0.1238280     0.0160790
  H        0.3948460     1.0949950    -0.9695230
  H        0.4010840     1.2348120     0.7851170
  H       -0.5390240    -1.1996390    -0.8096500
  H       -0.5298410    -1.0886070     0.9551710
  H        2.0366680    -0.8174960    -0.8181390
  H        2.6849400     0.6290660    -0.0366100
  H        2.0280600    -0.6855490     0.9457650
  H       -2.0012914     0.6969314     0.6655327
units angstrom
no_reorient  #important for SAPT in psi4, default
symmetry c1  #important for SAPT in psi4, default
}

set PROPERTIES_ORIGIN ["COM"]
properties('MP2/aug-cc-pvtz', properties = ['dipole'])
--------------------------------------------------------------------------

    Molecular point group: c1
  Charge       = 0
  Multiplicity = 1
  Basis Set: AUG-CC-PVTZ
    Blend: AUG-CC-PVTZ
  Basis Set: (AUG-CC-PVTZ AUX)
    Blend: AUG-CC-PVTZ-JKFIT

    Orbital Energies [Eh]
    ---------------------

    Doubly Occupied:

       1A    -20.556968     2A    -11.273052     3A    -11.224087
       4A    -11.220509     5A     -1.353440     6A     -1.055146
       7A     -0.915710     8A     -0.814977     9A     -0.689146
      10A     -0.630256    11A     -0.597343    12A     -0.587700
      13A     -0.543195    14A     -0.501625    15A     -0.501445
      16A     -0.470657    17A     -0.439126

  @DF-RHF Final Energy:  -193.19136906545705

   => Energetics <=

    Nuclear Repulsion Energy =            130.1974152964953362
    One-Electron Energy =                -520.0288075439823388
    Two-Electron Energy =                 196.6400231820299211
    Total Energy =                       -193.1913690654570530
  Basis Set: (AUG-CC-PVTZ AUX)
    Blend: AUG-CC-PVTZ-RI
    Molecular point group: c1

    Geometry (in Angstrom), charge = 0, multiplicity = 1:

       Center              X                  Y                   Z               Mass
    ------------   -----------------  -----------------  -----------------  -----------------
         O           -1.832436043115     0.089502130076    -0.080220342360    15.994914619570
         C            0.586139956885     0.519163130076    -0.033884342360    12.000000000000
         C           -0.536102643115    -0.497446569924     0.048275257640    12.000000000000
         C            1.967436956885    -0.127301869924     0.025758657640    12.000000000000
         H            0.467961956885     1.091521130076    -0.959843342360     1.007825032230
         H            0.474199956885     1.231338130076     0.794796657640     1.007825032230
         H           -0.465908043115    -1.203112869924    -0.799970342360     1.007825032230
         H           -0.456725043115    -1.092080869924     0.964850657640     1.007825032230
         H            2.109783956885    -0.820969869924    -0.808459342360     1.007825032230
         H            2.758055956885     0.625592130076    -0.026930342360     1.007825032230
         H            2.101175956885    -0.689022869924     0.955444657640     1.007825032230
         H           -1.928175443115     0.693457530076     0.675212357640     1.007825032230

  Basis Set: AUG-CC-PVTZ
    Blend: AUG-CC-PVTZ
  Basis Set: (AUG-CC-PVTZ AUX)
    Blend: AUG-CC-PVTZ-JKFIT
	 Reference Energy          =    -193.1913690654570530 [Eh]
	 Singles Energy            =      -0.0000000000000000 [Eh]
	 Same-Spin Energy          =      -0.1906780977055882 [Eh]
	 Opposite-Spin Energy      =      -0.6720525056543770 [Eh]
	 Correlation Energy        =      -0.8627306033599653 [Eh]
	 Total Energy              =    -194.0540996688170310 [Eh]

	 ================> DF-SCS-MP2 Energies <==================
	-----------------------------------------------------------
	 SCS Same-Spin Scale       =       0.3333333333333333 [-]
	 SCS Opposite-Spin Scale   =       1.2000000000000000 [-]
	 SCS Same-Spin Energy      =      -0.0635593659018627 [Eh]
	 SCS Opposite-Spin Energy  =      -0.8064630067852524 [Eh]
	 SCS Correlation Energy    =      -0.8700223726871151 [Eh]
	 SCS Total Energy          =    -194.0613914381441703 [Eh]
	-----------------------------------------------------------

  Dipole Moment: [D]
     X:     1.3687      Y:     0.3689      Z:     1.1435     Total:     1.8213

*** Psi4 exiting successfully. Buy a developer a beer!
