                               Psi4 1.3.2 release

  ==> Input File <==

--------------------------------------------------------------------------
#psi4
#
memory 32 gb

molecule  {
0 1
  O       -1.9055520     0.0929760    -0.0899000
  C        0.5130240     0.5226370    -0.0435640
  C       -0.6112230    -0.5005450     0.0281910
  C        1.8943210    -0.1238280     0.0160790
  H        0.3948460     1.0949950    -0.9695230
  H        0.4010840     1.2348120     0.7851170
  H       -0.5390240    -1.1996390    -0.8096500
  H       -0.5298410    -1.0886070     0.9551710
  H        2.0366680    -0.8174960    -0.8181390
  H        2.6849400     0.6290660    -0.0366100
  H        2.0280600    -0.6855490     0.9457650
  H       -2.0303503     0.8237393     0.8177236
units angstrom
no_reorient  #important for SAPT in psi4, default
symmetry c1  #important for SAPT in psi4, default
}

set PROPERTIES_ORIGIN ["COM"]
properties('MP2/aug-cc-pvtz', properties = ['dipole'])
--------------------------------------------------------------------------

    Molecular point group: c1
  Charge       = 0
  Multiplicity = 1
  Basis Set: AUG-CC-PVTZ
    Blend: AUG-CC-PVTZ
  Basis Set: (AUG-CC-PVTZ AUX)
    Blend: AUG-CC-PVTZ-JKFIT

    Orbital Energies [Eh]
    ---------------------

    Doubly Occupied:

       1A    -20.572285     2A    -11.271847     3A    -11.223061
       4A    -11.219498     5A     -1.321170     6A     -1.050896
       7A     -0.907771     8A     -0.808843     9A     -0.666970
      10A     -0.617807    11A     -0.593549    12A     -0.581559
      13A     -0.538511    14A     -0.500360    15A     -0.494703
      16A     -0.466382    17A     -0.434273

  @DF-RHF Final Energy:  -193.15639876763922

   => Energetics <=

    Nuclear Repulsion Energy =            129.1980805448306455
    One-Electron Energy =                -518.1699926784178842
    Two-Electron Energy =                 195.8155133659480214
    Total Energy =                       -193.1563987676392173
  Basis Set: (AUG-CC-PVTZ AUX)
    Blend: AUG-CC-PVTZ-RI
    Molecular point group: c1

    Geometry (in Angstrom), charge = 0, multiplicity = 1:

       Center              X                  Y                   Z               Mass
    ------------   -----------------  -----------------  -----------------  -----------------
         O           -1.831547909683     0.088687368160    -0.080695330357    15.994914619570
         C            0.587028090317     0.518348368160    -0.034359330357    12.000000000000
         C           -0.537218909683    -0.504833631840     0.037395669643    12.000000000000
         C            1.968325090317    -0.128116631840     0.025283669643    12.000000000000
         H            0.468850090317     1.090706368160    -0.960318330357     1.007825032230
         H            0.475088090317     1.230523368160     0.794321669643     1.007825032230
         H           -0.465019909683    -1.203927631840    -0.800445330357     1.007825032230
         H           -0.455836909683    -1.092895631840     0.964375669643     1.007825032230
         H            2.110672090317    -0.821784631840    -0.808934330357     1.007825032230
         H            2.758944090317     0.624777368160    -0.027405330357     1.007825032230
         H            2.102064090317    -0.689837631840     0.954969669643     1.007825032230
         H           -1.956346209683     0.819450668160     0.826928269643     1.007825032230

  Basis Set: AUG-CC-PVTZ
    Blend: AUG-CC-PVTZ
  Basis Set: (AUG-CC-PVTZ AUX)
    Blend: AUG-CC-PVTZ-JKFIT
	 Reference Energy          =    -193.1563987676392173 [Eh]
	 Singles Energy            =      -0.0000000000000000 [Eh]
	 Same-Spin Energy          =      -0.1925947263395370 [Eh]
	 Opposite-Spin Energy      =      -0.6784403820194219 [Eh]
	 Correlation Energy        =      -0.8710351083589589 [Eh]
	 Total Energy              =    -194.0274338759981845 [Eh]

	 ================> DF-SCS-MP2 Energies <==================
	-----------------------------------------------------------
	 SCS Same-Spin Scale       =       0.3333333333333333 [-]
	 SCS Opposite-Spin Scale   =       1.2000000000000000 [-]
	 SCS Same-Spin Energy      =      -0.0641982421131790 [Eh]
	 SCS Opposite-Spin Energy  =      -0.8141284584233063 [Eh]
	 SCS Correlation Energy    =      -0.8783267005364853 [Eh]
	 SCS Total Energy          =    -194.0347254681757079 [Eh]
	-----------------------------------------------------------

  Dipole Moment: [D]
     X:     1.3082      Y:     0.4341      Z:     1.2089     Total:     1.8334

*** Psi4 exiting successfully. Buy a developer a beer!
