                               Psi4 1.3.2 release

  ==> Input File <==

--------------------------------------------------------------------------
#psi4
#
memory 32 gb

molecule  {
0 1
  O       -1.9055520     0.0929760    -0.0899000
  C        0.5130240     0.5226370    -0.0435640
  C       -0.6289517    -0.4808362     0.0265394
  C        1.9054395    -0.0996884     0.0142807
  H        0.3948460     1.0949950    -0.9695230
  H        0.4010840     1.2348120     0.7851170
  H       -0.5390240    -1.1996390    -0.8096500
  H       -0.5298410    -1.0886070     0.9551710
  H        2.0366680    -0.8174960    -0.8181390
  H        2.6849400     0.6290660    -0.0366100
  H        2.0280600    -0.6855490     0.9457650
  H       -2.0090520     0.6990260     0.6628270
units angstrom
no_reorient  #important for SAPT in psi4, default
symmetry c1  #important for SAPT in psi4, default
}

set PROPERTIES_ORIGIN ["COM"]
properties('MP2/aug-cc-pvtz', properties = ['dipole'])
--------------------------------------------------------------------------

    Molecular point group: c1
  Charge       = 0
  Multiplicity = 1
  Basis Set: AUG-CC-PVTZ
    Blend: AUG-CC-PVTZ
  Basis Set: (AUG-CC-PVTZ AUX)
    Blend: AUG-CC-PVTZ-JKFIT

    Orbital Energies [Eh]
    ---------------------

    Doubly Occupied:

       1A    -20.559768     2A    -11.274252     3A    -11.223459
       4A    -11.220445     5A     -1.363405     6A     -1.052869
       7A     -0.915758     8A     -0.814576     9A     -0.691273
      10A     -0.632791    11A     -0.601521    12A     -0.587821
      13A     -0.549757    14A     -0.499852    15A     -0.497778
      16A     -0.467546    17A     -0.436501

  @DF-RHF Final Energy:  -193.19047663087184

   => Energetics <=

    Nuclear Repulsion Energy =            130.2777631041171844
    One-Electron Energy =                -520.1577328167327323
    Two-Electron Energy =                 196.6894930817437057
    Total Energy =                       -193.1904766308718422
  Basis Set: (AUG-CC-PVTZ AUX)
    Blend: AUG-CC-PVTZ-RI
    Molecular point group: c1

    Geometry (in Angstrom), charge = 0, multiplicity = 1:

       Center              X                  Y                   Z               Mass
    ------------   -----------------  -----------------  -----------------  -----------------
         O           -1.830584542480     0.082018900188    -0.077406691603    15.994914619570
         C            0.587991457520     0.511679900188    -0.031070691603    12.000000000000
         C           -0.553984242480    -0.491793299812     0.039032708397    12.000000000000
         C            1.980406957520    -0.110645499812     0.026774008397    12.000000000000
         H            0.469813457520     1.084037900188    -0.957029691603     1.007825032230
         H            0.476051457520     1.223854900188     0.797610308397     1.007825032230
         H           -0.464056542480    -1.210596099812    -0.797156691603     1.007825032230
         H           -0.454873542480    -1.099564099812     0.967664308397     1.007825032230
         H            2.111635457520    -0.828453099812    -0.805645691603     1.007825032230
         H            2.759907457520     0.618108900188    -0.024116691603     1.007825032230
         H            2.103027457520    -0.696506099812     0.958258308397     1.007825032230
         H           -1.934084542480     0.688068900188     0.675320308397     1.007825032230

  Basis Set: AUG-CC-PVTZ
    Blend: AUG-CC-PVTZ
  Basis Set: (AUG-CC-PVTZ AUX)
    Blend: AUG-CC-PVTZ-JKFIT
	 Reference Energy          =    -193.1904766308718422 [Eh]
	 Singles Energy            =      -0.0000000000000000 [Eh]
	 Same-Spin Energy          =      -0.1906146295229034 [Eh]
	 Opposite-Spin Energy      =      -0.6716517042700184 [Eh]
	 Correlation Energy        =      -0.8622663337929218 [Eh]
	 Total Energy              =    -194.0527429646647590 [Eh]

	 ================> DF-SCS-MP2 Energies <==================
	-----------------------------------------------------------
	 SCS Same-Spin Scale       =       0.3333333333333333 [-]
	 SCS Opposite-Spin Scale   =       1.2000000000000000 [-]
	 SCS Same-Spin Energy      =      -0.0635382098409678 [Eh]
	 SCS Opposite-Spin Energy  =      -0.8059820451240221 [Eh]
	 SCS Correlation Energy    =      -0.8695202549649899 [Eh]
	 SCS Total Energy          =    -194.0599968858368243 [Eh]
	-----------------------------------------------------------

  Dipole Moment: [D]
     X:     1.2700      Y:     0.4203      Z:     1.1222     Total:     1.7461

*** Psi4 exiting successfully. Buy a developer a beer!
