                               Psi4 1.3.2 release

  ==> Input File <==

--------------------------------------------------------------------------
#psi4
#
memory 32 gb

molecule  {
0 1
  O       -1.9055520     0.0929760    -0.0899000
  C        0.5130240     0.5226370    -0.0435640
  C       -0.6205022    -0.4916341     0.0049539
  C        1.8943210    -0.1238280     0.0160790
  H        0.3793308     1.0846620    -0.9737327
  H        0.4010840     1.2348120     0.7851170
  H       -0.5390240    -1.1996390    -0.8096500
  H       -0.5298410    -1.0886070     0.9551710
  H        2.0366680    -0.8174960    -0.8181390
  H        2.6849400     0.6290660    -0.0366100
  H        2.0280600    -0.6855490     0.9457650
  H       -2.0090520     0.6990260     0.6628270
units angstrom
no_reorient  #important for SAPT in psi4, default
symmetry c1  #important for SAPT in psi4, default
}

set PROPERTIES_ORIGIN ["COM"]
properties('MP2/aug-cc-pvtz', properties = ['dipole'])
--------------------------------------------------------------------------

    Molecular point group: c1
  Charge       = 0
  Multiplicity = 1
  Basis Set: AUG-CC-PVTZ
    Blend: AUG-CC-PVTZ
  Basis Set: (AUG-CC-PVTZ AUX)
    Blend: AUG-CC-PVTZ-JKFIT

    Orbital Energies [Eh]
    ---------------------

    Doubly Occupied:

       1A    -20.557445     2A    -11.273319     3A    -11.223795
       4A    -11.220422     5A     -1.357829     6A     -1.053788
       7A     -0.915795     8A     -0.815643     9A     -0.687561
      10A     -0.634713    11A     -0.599525    12A     -0.585231
      13A     -0.547327    14A     -0.501708    15A     -0.499925
      16A     -0.472600    17A     -0.432816

  @DF-RHF Final Energy:  -193.19126305596612

   => Energetics <=

    Nuclear Repulsion Energy =            130.2658889855781865
    One-Electron Energy =                -520.1554213179222188
    Two-Electron Energy =                 196.6982692763779426
    Total Energy =                       -193.1912630559661181
  Basis Set: (AUG-CC-PVTZ AUX)
    Blend: AUG-CC-PVTZ-RI
    Molecular point group: c1

    Geometry (in Angstrom), charge = 0, multiplicity = 1:

       Center              X                  Y                   Z               Mass
    ------------   -----------------  -----------------  -----------------  -----------------
         O           -1.829790893142     0.089173106567    -0.073382398531    15.994914619570
         C            0.588785106858     0.518834106567    -0.027046398531    12.000000000000
         C           -0.544741093142    -0.495436993433     0.021471501469    12.000000000000
         C            1.970082106858    -0.127630893433     0.032596601469    12.000000000000
         H            0.455091906858     1.080859106567    -0.957215098531     1.007825032230
         H            0.476845106858     1.231009106567     0.801634601469     1.007825032230
         H           -0.463262893142    -1.203441893433    -0.793132398531     1.007825032230
         H           -0.454079893142    -1.092409893433     0.971688601469     1.007825032230
         H            2.112429106858    -0.821298893433    -0.801621398531     1.007825032230
         H            2.760701106858     0.625263106567    -0.020092398531     1.007825032230
         H            2.103821106858    -0.689351893433     0.962282601469     1.007825032230
         H           -1.933290893142     0.695223106567     0.679344601469     1.007825032230

  Basis Set: AUG-CC-PVTZ
    Blend: AUG-CC-PVTZ
  Basis Set: (AUG-CC-PVTZ AUX)
    Blend: AUG-CC-PVTZ-JKFIT
	 Reference Energy          =    -193.1912630559661181 [Eh]
	 Singles Energy            =      -0.0000000000000000 [Eh]
	 Same-Spin Energy          =      -0.1905679104017732 [Eh]
	 Opposite-Spin Energy      =      -0.6716593866252702 [Eh]
	 Correlation Energy        =      -0.8622272970270435 [Eh]
	 Total Energy              =    -194.0534903529931512 [Eh]

	 ================> DF-SCS-MP2 Energies <==================
	-----------------------------------------------------------
	 SCS Same-Spin Scale       =       0.3333333333333333 [-]
	 SCS Opposite-Spin Scale   =       1.2000000000000000 [-]
	 SCS Same-Spin Energy      =      -0.0635226368005911 [Eh]
	 SCS Opposite-Spin Energy  =      -0.8059912639503243 [Eh]
	 SCS Correlation Energy    =      -0.8695139007509154 [Eh]
	 SCS Total Energy          =    -194.0607769567170351 [Eh]
	-----------------------------------------------------------

  Dipole Moment: [D]
     X:     1.3141      Y:     0.3908      Z:     1.0942     Total:     1.7541

*** Psi4 exiting successfully. Buy a developer a beer!
