                               Psi4 1.3.2 release

  ==> Input File <==

--------------------------------------------------------------------------
#psi4
#
memory 32 gb

molecule  {
0 1
  O       -1.9055520     0.0929760    -0.0899000
  C        0.5130240     0.5226370    -0.0435640
  C       -0.6037982    -0.4739897     0.0697475
  C        1.8943210    -0.1238280     0.0160790
  H        0.3948460     1.0949950    -0.9695230
  H        0.4010840     1.2348120     0.7851170
  H       -0.5390240    -1.1996390    -0.8096500
  H       -0.5298410    -1.0886070     0.9551710
  H        2.0366680    -0.8174960    -0.8181390
  H        2.6849400     0.6290660    -0.0366100
  H        2.0280600    -0.6855490     0.9457650
  H       -1.9779682     0.6903724     0.6733040
units angstrom
no_reorient  #important for SAPT in psi4, default
symmetry c1  #important for SAPT in psi4, default
}

set PROPERTIES_ORIGIN ["COM"]
properties('MP2/aug-cc-pvtz', properties = ['dipole'])
--------------------------------------------------------------------------

    Molecular point group: c1
  Charge       = 0
  Multiplicity = 1
  Basis Set: AUG-CC-PVTZ
    Blend: AUG-CC-PVTZ
  Basis Set: (AUG-CC-PVTZ AUX)
    Blend: AUG-CC-PVTZ-JKFIT

    Orbital Energies [Eh]
    ---------------------

    Doubly Occupied:

       1A    -20.559048     2A    -11.273841     3A    -11.224309
       4A    -11.221253     5A     -1.356230     6A     -1.057776
       7A     -0.915672     8A     -0.813954     9A     -0.691641
      10A     -0.627768    11A     -0.600266    12A     -0.591049
      13A     -0.538517    14A     -0.504811    15A     -0.501621
      16A     -0.464459    17A     -0.444635

  @DF-RHF Final Energy:  -193.18758784075797

   => Energetics <=

    Nuclear Repulsion Energy =            130.3790844968212639
    One-Electron Energy =                -520.3596439776172247
    Two-Electron Energy =                 196.7929716400379618
    Total Energy =                       -193.1875878407579705
  Basis Set: (AUG-CC-PVTZ AUX)
    Blend: AUG-CC-PVTZ-RI
    Molecular point group: c1

    Geometry (in Angstrom), charge = 0, multiplicity = 1:

       Center              X                  Y                   Z               Mass
    ------------   -----------------  -----------------  -----------------  -----------------
         O           -1.833910471502     0.085619424038    -0.086575165923    15.994914619570
         C            0.584665528498     0.515280424038    -0.040239165923    12.000000000000
         C           -0.532156671502    -0.481346275962     0.073072334077    12.000000000000
         C            1.965962528498    -0.131184575962     0.019403834077    12.000000000000
         H            0.466487528498     1.087638424038    -0.966198165923     1.007825032230
         H            0.472725528498     1.227455424038     0.788441834077     1.007825032230
         H           -0.467382471502    -1.206995575962    -0.806325165923     1.007825032230
         H           -0.458199471502    -1.095963575962     0.958495834077     1.007825032230
         H            2.108309528498    -0.824852575962    -0.814814165923     1.007825032230
         H            2.756581528498     0.621709424038    -0.033285165923     1.007825032230
         H            2.099701528498    -0.692905575962     0.949089834077     1.007825032230
         H           -1.906326671502     0.683015824038     0.676628834077     1.007825032230

  Basis Set: AUG-CC-PVTZ
    Blend: AUG-CC-PVTZ
  Basis Set: (AUG-CC-PVTZ AUX)
    Blend: AUG-CC-PVTZ-JKFIT
	 Reference Energy          =    -193.1875878407579705 [Eh]
	 Singles Energy            =      -0.0000000000000000 [Eh]
	 Same-Spin Energy          =      -0.1910153027367985 [Eh]
	 Opposite-Spin Energy      =      -0.6726675846001697 [Eh]
	 Correlation Energy        =      -0.8636828873369682 [Eh]
	 Total Energy              =    -194.0512707280949485 [Eh]

	 ================> DF-SCS-MP2 Energies <==================
	-----------------------------------------------------------
	 SCS Same-Spin Scale       =       0.3333333333333333 [-]
	 SCS Opposite-Spin Scale   =       1.2000000000000000 [-]
	 SCS Same-Spin Energy      =      -0.0636717675789328 [Eh]
	 SCS Opposite-Spin Energy  =      -0.8072011015202036 [Eh]
	 SCS Correlation Energy    =      -0.8708728690991364 [Eh]
	 SCS Total Energy          =    -194.0584607098571155 [Eh]
	-----------------------------------------------------------

  Dipole Moment: [D]
     X:     1.4050      Y:     0.3854      Z:     1.1849     Total:     1.8779

*** Psi4 exiting successfully. Buy a developer a beer!
