                               Psi4 1.3.2 release

  ==> Input File <==

--------------------------------------------------------------------------
#psi4
#
memory 32 gb

molecule  {
0 1
  O       -1.9055520     0.0929760    -0.0899000
  C        0.5130240     0.5226370    -0.0435640
  C       -0.5813424    -0.5253974     0.0977428
  C        1.8943210    -0.1238280     0.0160790
  H        0.4415886     1.1249357    -0.9552070
  H        0.4010840     1.2348120     0.7851170
  H       -0.5390240    -1.1996390    -0.8096500
  H       -0.5298410    -1.0886070     0.9551710
  H        2.0366680    -0.8174960    -0.8181390
  H        2.6849400     0.6290660    -0.0366100
  H        2.0280600    -0.6855490     0.9457650
  H       -2.0090520     0.6990260     0.6628270
units angstrom
no_reorient  #important for SAPT in psi4, default
symmetry c1  #important for SAPT in psi4, default
}

set PROPERTIES_ORIGIN ["COM"]
properties('MP2/aug-cc-pvtz', properties = ['dipole'])
--------------------------------------------------------------------------

    Molecular point group: c1
  Charge       = 0
  Multiplicity = 1
  Basis Set: AUG-CC-PVTZ
    Blend: AUG-CC-PVTZ
  Basis Set: (AUG-CC-PVTZ AUX)
    Blend: AUG-CC-PVTZ-JKFIT

    Orbital Energies [Eh]
    ---------------------

    Doubly Occupied:

       1A    -20.553314     2A    -11.273375     3A    -11.225799
       4A    -11.220025     5A     -1.337306     6A     -1.056614
       7A     -0.917674     8A     -0.817272     9A     -0.689787
      10A     -0.622837    11A     -0.598097    12A     -0.583907
      13A     -0.536684    14A     -0.502298    15A     -0.500888
      16A     -0.472225    17A     -0.442963

  @DF-RHF Final Energy:  -193.18254870971083

   => Energetics <=

    Nuclear Repulsion Energy =            129.7450882789759419
    One-Electron Energy =                -519.1531435219503692
    Two-Electron Energy =                 196.2255065332636264
    Total Energy =                       -193.1825487097108294
  Basis Set: (AUG-CC-PVTZ AUX)
    Blend: AUG-CC-PVTZ-RI
    Molecular point group: c1

    Geometry (in Angstrom), charge = 0, multiplicity = 1:

       Center              X                  Y                   Z               Mass
    ------------   -----------------  -----------------  -----------------  -----------------
         O           -1.838660100773     0.095243466917    -0.092233286160    15.994914619570
         C            0.579915899227     0.524904466917    -0.045897286160    12.000000000000
         C           -0.514450500773    -0.523129933083     0.095409513840    12.000000000000
         C            1.961212899227    -0.121560533083     0.013745713840    12.000000000000
         H            0.508480499227     1.127203166917    -0.957540286160     1.007825032230
         H            0.467975899227     1.237079466917     0.782783713840     1.007825032230
         H           -0.472132100773    -1.197371533083    -0.811983286160     1.007825032230
         H           -0.462949100773    -1.086339533083     0.952837713840     1.007825032230
         H            2.103559899227    -0.815228533083    -0.820472286160     1.007825032230
         H            2.751831899227     0.631333466917    -0.038943286160     1.007825032230
         H            2.094951899227    -0.683281533083     0.943431713840     1.007825032230
         H           -1.942160100773     0.701293466917     0.660493713840     1.007825032230

  Basis Set: AUG-CC-PVTZ
    Blend: AUG-CC-PVTZ
  Basis Set: (AUG-CC-PVTZ AUX)
    Blend: AUG-CC-PVTZ-JKFIT
	 Reference Energy          =    -193.1825487097108294 [Eh]
	 Singles Energy            =      -0.0000000000000000 [Eh]
	 Same-Spin Energy          =      -0.1908683285527666 [Eh]
	 Opposite-Spin Energy      =      -0.6732040300564297 [Eh]
	 Correlation Energy        =      -0.8640723586091963 [Eh]
	 Total Energy              =    -194.0466210683200359 [Eh]

	 ================> DF-SCS-MP2 Energies <==================
	-----------------------------------------------------------
	 SCS Same-Spin Scale       =       0.3333333333333333 [-]
	 SCS Opposite-Spin Scale   =       1.2000000000000000 [-]
	 SCS Same-Spin Energy      =      -0.0636227761842555 [Eh]
	 SCS Opposite-Spin Energy  =      -0.8078448360677156 [Eh]
	 SCS Correlation Energy    =      -0.8714676122519711 [Eh]
	 SCS Total Energy          =    -194.0540163219627914 [Eh]
	-----------------------------------------------------------

  Dipole Moment: [D]
     X:     1.4782      Y:     0.3111      Z:     1.2183     Total:     1.9406

*** Psi4 exiting successfully. Buy a developer a beer!
