                               Psi4 1.3.2 release

  ==> Input File <==

--------------------------------------------------------------------------
#psi4
#
memory 32 gb

molecule  {
0 1
  O       -1.9158714     0.0703767    -0.0877450
  C        0.5307236     0.5030488    -0.0406494
  C       -0.6112230    -0.5005450     0.0281910
  C        1.8943210    -0.1238280     0.0160790
  H        0.3948460     1.0949950    -0.9695230
  H        0.4010840     1.2348120     0.7851170
  H       -0.5390240    -1.1996390    -0.8096500
  H       -0.5298410    -1.0886070     0.9551710
  H        2.0366680    -0.8174960    -0.8181390
  H        2.6849400     0.6290660    -0.0366100
  H        2.0280600    -0.6855490     0.9457650
  H       -2.0090520     0.6990260     0.6628270
units angstrom
no_reorient  #important for SAPT in psi4, default
symmetry c1  #important for SAPT in psi4, default
}

set PROPERTIES_ORIGIN ["COM"]
properties('MP2/aug-cc-pvtz', properties = ['dipole'])
--------------------------------------------------------------------------

    Molecular point group: c1
  Charge       = 0
  Multiplicity = 1
  Basis Set: AUG-CC-PVTZ
    Blend: AUG-CC-PVTZ
  Basis Set: (AUG-CC-PVTZ AUX)
    Blend: AUG-CC-PVTZ-JKFIT

    Orbital Energies [Eh]
    ---------------------

    Doubly Occupied:

       1A    -20.558898     2A    -11.272795     3A    -11.226117
       4A    -11.220158     5A     -1.350959     6A     -1.058273
       7A     -0.917003     8A     -0.812480     9A     -0.686144
      10A     -0.631240    11A     -0.597112    12A     -0.588012
      13A     -0.546995    14A     -0.505938    15A     -0.498336
      16A     -0.468185    17A     -0.437214

  @DF-RHF Final Energy:  -193.18964534035948

   => Energetics <=

    Nuclear Repulsion Energy =            130.1148439381358912
    One-Electron Energy =                -519.8572610065430126
    Two-Electron Energy =                 196.5527717280476452
    Total Energy =                       -193.1896453403594762
  Basis Set: (AUG-CC-PVTZ AUX)
    Blend: AUG-CC-PVTZ-RI
    Molecular point group: c1

    Geometry (in Angstrom), charge = 0, multiplicity = 1:

       Center              X                  Y                   Z               Mass
    ------------   -----------------  -----------------  -----------------  -----------------
         O           -1.843012915492     0.078113565069    -0.077097306448    15.994914619570
         C            0.603582084508     0.510785665069    -0.030001706448    12.000000000000
         C           -0.538364515492    -0.492808134931     0.038838693552    12.000000000000
         C            1.967179484508    -0.116091134931     0.026726693552    12.000000000000
         H            0.467704484508     1.102731865069    -0.958875306448     1.007825032230
         H            0.473942484508     1.242548865069     0.795764693552     1.007825032230
         H           -0.466165515492    -1.191902134931    -0.799002306448     1.007825032230
         H           -0.456982515492    -1.080870134931     0.965818693552     1.007825032230
         H            2.109526484508    -0.809759134931    -0.807491306448     1.007825032230
         H            2.757798484508     0.636802865069    -0.025962306448     1.007825032230
         H            2.100918484508    -0.677812134931     0.956412693552     1.007825032230
         H           -1.936193515492     0.706762865069     0.673474693552     1.007825032230

  Basis Set: AUG-CC-PVTZ
    Blend: AUG-CC-PVTZ
  Basis Set: (AUG-CC-PVTZ AUX)
    Blend: AUG-CC-PVTZ-JKFIT
	 Reference Energy          =    -193.1896453403594762 [Eh]
	 Singles Energy            =      -0.0000000000000000 [Eh]
	 Same-Spin Energy          =      -0.1909194249120617 [Eh]
	 Opposite-Spin Energy      =      -0.6725232725283184 [Eh]
	 Correlation Energy        =      -0.8634426974403802 [Eh]
	 Total Energy              =    -194.0530880377998528 [Eh]

	 ================> DF-SCS-MP2 Energies <==================
	-----------------------------------------------------------
	 SCS Same-Spin Scale       =       0.3333333333333333 [-]
	 SCS Opposite-Spin Scale   =       1.2000000000000000 [-]
	 SCS Same-Spin Energy      =      -0.0636398083040206 [Eh]
	 SCS Opposite-Spin Energy  =      -0.8070279270339821 [Eh]
	 SCS Correlation Energy    =      -0.8706677353380027 [Eh]
	 SCS Total Energy          =    -194.0603130756974792 [Eh]
	-----------------------------------------------------------

  Dipole Moment: [D]
     X:     1.3919      Y:     0.4080      Z:     1.1135     Total:     1.8286

*** Psi4 exiting successfully. Buy a developer a beer!
