                               Psi4 1.3.2 release

  ==> Input File <==

--------------------------------------------------------------------------
#psi4
#
memory 32 gb

molecule  {
0 1
  O       -1.8837337     0.1376253    -0.0941014
  C        0.4766029     0.5608726    -0.0493267
  C       -0.6112230    -0.5005450     0.0281910
  C        1.8943210    -0.1238280     0.0160790
  H        0.3948460     1.0949950    -0.9695230
  H        0.4010840     1.2348120     0.7851170
  H       -0.5390240    -1.1996390    -0.8096500
  H       -0.5298410    -1.0886070     0.9551710
  H        2.0366680    -0.8174960    -0.8181390
  H        2.6849400     0.6290660    -0.0366100
  H        2.0280600    -0.6855490     0.9457650
  H       -2.0090520     0.6990260     0.6628270
units angstrom
no_reorient  #important for SAPT in psi4, default
symmetry c1  #important for SAPT in psi4, default
}

set PROPERTIES_ORIGIN ["COM"]
properties('MP2/aug-cc-pvtz', properties = ['dipole'])
--------------------------------------------------------------------------

    Molecular point group: c1
  Charge       = 0
  Multiplicity = 1
  Basis Set: AUG-CC-PVTZ
    Blend: AUG-CC-PVTZ
  Basis Set: (AUG-CC-PVTZ AUX)
    Blend: AUG-CC-PVTZ-JKFIT

    Orbital Energies [Eh]
    ---------------------

    Doubly Occupied:

       1A    -20.551452     2A    -11.273489     3A    -11.220781
       4A    -11.220097     5A     -1.356007     6A     -1.047313
       7A     -0.913599     8A     -0.820925     9A     -0.692586
      10A     -0.632134    11A     -0.597487    12A     -0.583510
      13A     -0.540871    14A     -0.506156    15A     -0.493033
      16A     -0.477469    17A     -0.434367

  @DF-RHF Final Energy:  -193.19010718460072

   => Energetics <=

    Nuclear Repulsion Energy =            130.2040672486595838
    One-Electron Energy =                -520.0658010017482411
    Two-Electron Energy =                 196.6716265684879090
    Total Energy =                       -193.1901071846007198
  Basis Set: (AUG-CC-PVTZ AUX)
    Blend: AUG-CC-PVTZ-RI
    Molecular point group: c1

    Geometry (in Angstrom), charge = 0, multiplicity = 1:

       Center              X                  Y                   Z               Mass
    ------------   -----------------  -----------------  -----------------  -----------------
         O           -1.808620566217     0.115898388240    -0.080027029941    15.994914619570
         C            0.551716033783     0.539145688240    -0.035252329941    12.000000000000
         C           -0.536109866217    -0.522271911760     0.042265370059    12.000000000000
         C            1.969434133783    -0.145554911760     0.030153370059    12.000000000000
         H            0.469959133783     1.073268088240    -0.955448629941     1.007825032230
         H            0.476197133783     1.213085088240     0.799191370059     1.007825032230
         H           -0.463910866217    -1.221365911760    -0.795575629941     1.007825032230
         H           -0.454727866217    -1.110333911760     0.969245370059     1.007825032230
         H            2.111781133783    -0.839222911760    -0.804064629941     1.007825032230
         H            2.760053133783     0.607339088240    -0.022535629941     1.007825032230
         H            2.103173133783    -0.707275911760     0.959839370059     1.007825032230
         H           -1.933938866217     0.677299088240     0.676901370059     1.007825032230

  Basis Set: AUG-CC-PVTZ
    Blend: AUG-CC-PVTZ
  Basis Set: (AUG-CC-PVTZ AUX)
    Blend: AUG-CC-PVTZ-JKFIT
	 Reference Energy          =    -193.1901071846007198 [Eh]
	 Singles Energy            =      -0.0000000000000000 [Eh]
	 Same-Spin Energy          =      -0.1901159850811485 [Eh]
	 Opposite-Spin Energy      =      -0.6710649839561060 [Eh]
	 Correlation Energy        =      -0.8611809690372545 [Eh]
	 Total Energy              =    -194.0512881536379837 [Eh]

	 ================> DF-SCS-MP2 Energies <==================
	-----------------------------------------------------------
	 SCS Same-Spin Scale       =       0.3333333333333333 [-]
	 SCS Opposite-Spin Scale   =       1.2000000000000000 [-]
	 SCS Same-Spin Energy      =      -0.0633719950270495 [Eh]
	 SCS Opposite-Spin Energy  =      -0.8052779807473273 [Eh]
	 SCS Correlation Energy    =      -0.8686499757743767 [Eh]
	 SCS Total Energy          =    -194.0587571603751087 [Eh]
	-----------------------------------------------------------

  Dipole Moment: [D]
     X:     1.2717      Y:     0.2725      Z:     1.1616     Total:     1.7438

*** Psi4 exiting successfully. Buy a developer a beer!
