                               Psi4 1.3.2 release

  ==> Input File <==

--------------------------------------------------------------------------
#psi4
#
memory 32 gb

molecule  {
0 1
  O       -1.9055520     0.0929760    -0.0899000
  C        0.5130240     0.5226370    -0.0435640
  C       -0.6064548    -0.5048838     0.0398018
  C        1.8943210    -0.1238280     0.0160790
  H        0.4026174     1.1000963    -0.9673123
  H        0.4010840     1.2348120     0.7851170
  H       -0.5390240    -1.1996390    -0.8096500
  H       -0.5298410    -1.0886070     0.9551710
  H        2.0366680    -0.8174960    -0.8181390
  H        2.6849400     0.6290660    -0.0366100
  H        2.0280600    -0.6855490     0.9457650
  H       -2.0090520     0.6990260     0.6628270
units angstrom
no_reorient  #important for SAPT in psi4, default
symmetry c1  #important for SAPT in psi4, default
}

set PROPERTIES_ORIGIN ["COM"]
properties('MP2/aug-cc-pvtz', properties = ['dipole'])
--------------------------------------------------------------------------

    Molecular point group: c1
  Charge       = 0
  Multiplicity = 1
  Basis Set: AUG-CC-PVTZ
    Blend: AUG-CC-PVTZ
  Basis Set: (AUG-CC-PVTZ AUX)
    Blend: AUG-CC-PVTZ-JKFIT

    Orbital Energies [Eh]
    ---------------------

    Doubly Occupied:

       1A    -20.555765     2A    -11.272828     3A    -11.224260
       4A    -11.220203     5A     -1.349967     6A     -1.054593
       7A     -0.915961     8A     -0.815419     9A     -0.688552
      10A     -0.629641    11A     -0.595545    12A     -0.587130
      13A     -0.543609    14A     -0.501517    15A     -0.500652
      16A     -0.472067    17A     -0.438924

  @DF-RHF Final Energy:  -193.19145963776486

   => Energetics <=

    Nuclear Repulsion Energy =            130.0699096300428721
    One-Electron Energy =                -519.7894708443157015
    Two-Electron Energy =                 196.5281015765079928
    Total Energy =                       -193.1914596377648650
  Basis Set: (AUG-CC-PVTZ AUX)
    Blend: AUG-CC-PVTZ-RI
    Molecular point group: c1

    Geometry (in Angstrom), charge = 0, multiplicity = 1:

       Center              X                  Y                   Z               Mass
    ------------   -----------------  -----------------  -----------------  -----------------
         O           -1.832988454992     0.091561505861    -0.080453044739    15.994914619570
         C            0.585587545008     0.521222505861    -0.034117044739    12.000000000000
         C           -0.533891254992    -0.506298294139     0.049248755261    12.000000000000
         C            1.966884545008    -0.125242494139     0.025525955261    12.000000000000
         H            0.475180945008     1.098681805861    -0.957865344739     1.007825032230
         H            0.473647545008     1.233397505861     0.794563955261     1.007825032230
         H           -0.466460454992    -1.201053494139    -0.800203044739     1.007825032230
         H           -0.457277454992    -1.090021494139     0.964617955261     1.007825032230
         H            2.109231545008    -0.818910494139    -0.808692044739     1.007825032230
         H            2.757503545008     0.627651505861    -0.027163044739     1.007825032230
         H            2.100623545008    -0.686963494139     0.955211955261     1.007825032230
         H           -1.936488454992     0.697611505861     0.672273955261     1.007825032230

  Basis Set: AUG-CC-PVTZ
    Blend: AUG-CC-PVTZ
  Basis Set: (AUG-CC-PVTZ AUX)
    Blend: AUG-CC-PVTZ-JKFIT
	 Reference Energy          =    -193.1914596377648650 [Eh]
	 Singles Energy            =      -0.0000000000000000 [Eh]
	 Same-Spin Energy          =      -0.1906055600836940 [Eh]
	 Opposite-Spin Energy      =      -0.6720441774015344 [Eh]
	 Correlation Energy        =      -0.8626497374852284 [Eh]
	 Total Energy              =    -194.0541093752501070 [Eh]

	 ================> DF-SCS-MP2 Energies <==================
	-----------------------------------------------------------
	 SCS Same-Spin Scale       =       0.3333333333333333 [-]
	 SCS Opposite-Spin Scale   =       1.2000000000000000 [-]
	 SCS Same-Spin Energy      =      -0.0635351866945647 [Eh]
	 SCS Opposite-Spin Energy  =      -0.8064530128818413 [Eh]
	 SCS Correlation Energy    =      -0.8699881995764061 [Eh]
	 SCS Total Energy          =    -194.0614478373412624 [Eh]
	-----------------------------------------------------------

  Dipole Moment: [D]
     X:     1.3765      Y:     0.3532      Z:     1.1465     Total:     1.8259

*** Psi4 exiting successfully. Buy a developer a beer!
