                               Psi4 1.3.2 release

  ==> Input File <==

--------------------------------------------------------------------------
#psi4
#
memory 32 gb

molecule  {
0 1
  O       -1.8722414     0.1596618    -0.0961465
  C        0.4578925     0.5795083    -0.0521731
  C       -0.6112230    -0.5005450     0.0281910
  C        1.8943210    -0.1238280     0.0160790
  H        0.3948460     1.0949950    -0.9695230
  H        0.4010840     1.2348120     0.7851170
  H       -0.5390240    -1.1996390    -0.8096500
  H       -0.5298410    -1.0886070     0.9551710
  H        2.0366680    -0.8174960    -0.8181390
  H        2.6849400     0.6290660    -0.0366100
  H        2.0280600    -0.6855490     0.9457650
  H       -2.0090520     0.6990260     0.6628270
units angstrom
no_reorient  #important for SAPT in psi4, default
symmetry c1  #important for SAPT in psi4, default
}

set PROPERTIES_ORIGIN ["COM"]
properties('MP2/aug-cc-pvtz', properties = ['dipole'])
--------------------------------------------------------------------------

    Molecular point group: c1
  Charge       = 0
  Multiplicity = 1
  Basis Set: AUG-CC-PVTZ
    Blend: AUG-CC-PVTZ
  Basis Set: (AUG-CC-PVTZ AUX)
    Blend: AUG-CC-PVTZ-JKFIT

    Orbital Energies [Eh]
    ---------------------

    Doubly Occupied:

       1A    -20.549233     2A    -11.273919     3A    -11.220062
       4A    -11.219301     5A     -1.357837     6A     -1.044288
       7A     -0.912503     8A     -0.823533     9A     -0.694855
      10A     -0.633029    11A     -0.598447    12A     -0.582038
      13A     -0.538974    14A     -0.508747    15A     -0.491044
      16A     -0.478103    17A     -0.431224

  @DF-RHF Final Energy:  -193.18639402796833

   => Energetics <=

    Nuclear Repulsion Energy =            130.2518309917832369
    One-Electron Energy =                -520.1621761967860493
    Two-Electron Energy =                 196.7239511770345075
    Total Energy =                       -193.1863940279683334
  Basis Set: (AUG-CC-PVTZ AUX)
    Blend: AUG-CC-PVTZ-RI
    Molecular point group: c1

    Geometry (in Angstrom), charge = 0, multiplicity = 1:

       Center              X                  Y                   Z               Mass
    ------------   -----------------  -----------------  -----------------  -----------------
         O           -1.796450475222     0.128342411142    -0.080958730560    15.994914619570
         C            0.533683424778     0.548188911142    -0.036985330560    12.000000000000
         C           -0.535432075222    -0.531864388858     0.043378769440    12.000000000000
         C            1.970111924778    -0.155147388858     0.031266769440    12.000000000000
         H            0.470636924778     1.063675611142    -0.954335230560     1.007825032230
         H            0.476874924778     1.203492611142     0.800304769440     1.007825032230
         H           -0.463233075222    -1.230958388858    -0.794462230560     1.007825032230
         H           -0.454050075222    -1.119926388858     0.970358769440     1.007825032230
         H            2.112458924778    -0.848815388858    -0.802951230560     1.007825032230
         H            2.760730924778     0.597746611142    -0.021422230560     1.007825032230
         H            2.103850924778    -0.716868388858     0.960952769440     1.007825032230
         H           -1.933261075222     0.667706611142     0.678014769440     1.007825032230

  Basis Set: AUG-CC-PVTZ
    Blend: AUG-CC-PVTZ
  Basis Set: (AUG-CC-PVTZ AUX)
    Blend: AUG-CC-PVTZ-JKFIT
	 Reference Energy          =    -193.1863940279683334 [Eh]
	 Singles Energy            =      -0.0000000000000000 [Eh]
	 Same-Spin Energy          =      -0.1899861230371175 [Eh]
	 Opposite-Spin Energy      =      -0.6708730539062242 [Eh]
	 Correlation Energy        =      -0.8608591769433417 [Eh]
	 Total Energy              =    -194.0472532049116694 [Eh]

	 ================> DF-SCS-MP2 Energies <==================
	-----------------------------------------------------------
	 SCS Same-Spin Scale       =       0.3333333333333333 [-]
	 SCS Opposite-Spin Scale   =       1.2000000000000000 [-]
	 SCS Same-Spin Energy      =      -0.0633287076790392 [Eh]
	 SCS Opposite-Spin Energy  =      -0.8050476646874690 [Eh]
	 SCS Correlation Energy    =      -0.8683763723665082 [Eh]
	 SCS Total Energy          =    -194.0547704003348315 [Eh]
	-----------------------------------------------------------

  Dipole Moment: [D]
     X:     1.2224      Y:     0.2247      Z:     1.1769     Total:     1.7117

*** Psi4 exiting successfully. Buy a developer a beer!
