                               Psi4 1.3.2 release

  ==> Input File <==

--------------------------------------------------------------------------
#psi4
#
memory 32 gb

molecule  {
0 1
  O       -1.9055520     0.0929760    -0.0899000
  C        0.5130240     0.5226370    -0.0435640
  C       -0.5560043    -0.5577778     0.0330125
  C        1.8584553    -0.1950362     0.0213626
  H        0.3948460     1.0949950    -0.9695230
  H        0.4010840     1.2348120     0.7851170
  H       -0.5390240    -1.1996390    -0.8096500
  H       -0.5298410    -1.0886070     0.9551710
  H        2.0366680    -0.8174960    -0.8181390
  H        2.6849400     0.6290660    -0.0366100
  H        2.0280600    -0.6855490     0.9457650
  H       -2.0090520     0.6990260     0.6628270
units angstrom
no_reorient  #important for SAPT in psi4, default
symmetry c1  #important for SAPT in psi4, default
}

set PROPERTIES_ORIGIN ["COM"]
properties('MP2/aug-cc-pvtz', properties = ['dipole'])
--------------------------------------------------------------------------

    Molecular point group: c1
  Charge       = 0
  Multiplicity = 1
  Basis Set: AUG-CC-PVTZ
    Blend: AUG-CC-PVTZ
  Basis Set: (AUG-CC-PVTZ AUX)
    Blend: AUG-CC-PVTZ-JKFIT

    Orbital Energies [Eh]
    ---------------------

    Doubly Occupied:

       1A    -20.545846     2A    -11.271339     3A    -11.227251
       4A    -11.221759     5A     -1.323316     6A     -1.060206
       7A     -0.917476     8A     -0.820422     9A     -0.683782
      10A     -0.628319    11A     -0.588958    12A     -0.581580
      13A     -0.541607    14A     -0.508007    15A     -0.499013
      16A     -0.477858    17A     -0.432498

  @DF-RHF Final Energy:  -193.17814426584587

   => Energetics <=

    Nuclear Repulsion Energy =            129.7791569886466334
    One-Electron Energy =                -519.2561290728345966
    Two-Electron Energy =                 196.2988278183421187
    Total Energy =                       -193.1781442658458730
  Basis Set: (AUG-CC-PVTZ AUX)
    Blend: AUG-CC-PVTZ-RI
    Molecular point group: c1

    Geometry (in Angstrom), charge = 0, multiplicity = 1:

       Center              X                  Y                   Z               Mass
    ------------   -----------------  -----------------  -----------------  -----------------
         O           -1.835772209679     0.116443781141    -0.080115095378    15.994914619570
         C            0.582803790321     0.546104781141    -0.033779095378    12.000000000000
         C           -0.486224509679    -0.534310018859     0.042797404622    12.000000000000
         C            1.928235090321    -0.171568418859     0.031147504622    12.000000000000
         H            0.464625790321     1.118462781141    -0.959738095378     1.007825032230
         H            0.470863790321     1.258279781141     0.794901904622     1.007825032230
         H           -0.469244209679    -1.176171218859    -0.799865095378     1.007825032230
         H           -0.460061209679    -1.065139218859     0.964955904622     1.007825032230
         H            2.106447790321    -0.794028218859    -0.808354095378     1.007825032230
         H            2.754719790321     0.652533781141    -0.026825095378     1.007825032230
         H            2.097839790321    -0.662081218859     0.955549904622     1.007825032230
         H           -1.939272209679     0.722493781141     0.672611904622     1.007825032230

  Basis Set: AUG-CC-PVTZ
    Blend: AUG-CC-PVTZ
  Basis Set: (AUG-CC-PVTZ AUX)
    Blend: AUG-CC-PVTZ-JKFIT
	 Reference Energy          =    -193.1781442658458730 [Eh]
	 Singles Energy            =      -0.0000000000000000 [Eh]
	 Same-Spin Energy          =      -0.1909251863368969 [Eh]
	 Opposite-Spin Energy      =      -0.6736045323610538 [Eh]
	 Correlation Energy        =      -0.8645297186979507 [Eh]
	 Total Energy              =    -194.0426739845438249 [Eh]

	 ================> DF-SCS-MP2 Energies <==================
	-----------------------------------------------------------
	 SCS Same-Spin Scale       =       0.3333333333333333 [-]
	 SCS Opposite-Spin Scale   =       1.2000000000000000 [-]
	 SCS Same-Spin Energy      =      -0.0636417287789656 [Eh]
	 SCS Opposite-Spin Energy  =      -0.8083254388332645 [Eh]
	 SCS Correlation Energy    =      -0.8719671676122301 [Eh]
	 SCS Total Energy          =    -194.0501114334581132 [Eh]
	-----------------------------------------------------------

  Dipole Moment: [D]
     X:     1.5930      Y:     0.2138      Z:     1.1453     Total:     1.9736

*** Psi4 exiting successfully. Buy a developer a beer!
