                               Psi4 1.3.2 release

  ==> Input File <==

--------------------------------------------------------------------------
#psi4
#
memory 32 gb

molecule  {
0 1
  O       -1.9055520     0.0929760    -0.0899000
  C        0.5130240     0.5226370    -0.0435640
  C       -0.6073129    -0.4873557     0.0489904
  C        1.8943210    -0.1238280     0.0160790
  H        0.3948460     1.0949950    -0.9695230
  H        0.4010840     1.2348120     0.7851170
  H       -0.5390240    -1.1996390    -0.8096500
  H       -0.5298410    -1.0886070     0.9551710
  H        2.0366680    -0.8174960    -0.8181390
  H        2.6849400     0.6290660    -0.0366100
  H        2.0280600    -0.6855490     0.9457650
  H       -1.9935235     0.6947908     0.6681809
units angstrom
no_reorient  #important for SAPT in psi4, default
symmetry c1  #important for SAPT in psi4, default
}

set PROPERTIES_ORIGIN ["COM"]
properties('MP2/aug-cc-pvtz', properties = ['dipole'])
--------------------------------------------------------------------------

    Molecular point group: c1
  Charge       = 0
  Multiplicity = 1
  Basis Set: AUG-CC-PVTZ
    Blend: AUG-CC-PVTZ
  Basis Set: (AUG-CC-PVTZ AUX)
    Blend: AUG-CC-PVTZ-JKFIT

    Orbital Energies [Eh]
    ---------------------

    Doubly Occupied:

       1A    -20.557647     2A    -11.273249     3A    -11.224134
       4A    -11.220754     5A     -1.354341     6A     -1.056013
       7A     -0.915642     8A     -0.814599     9A     -0.690024
      10A     -0.629344    11A     -0.598212    12A     -0.588790
      13A     -0.541543    14A     -0.502671    15A     -0.501511
      16A     -0.468866    17A     -0.441008

  @DF-RHF Final Energy:  -193.19049942974686

   => Energetics <=

    Nuclear Repulsion Energy =            130.2587810658013439
    One-Electron Energy =                -520.1418667488887877
    Two-Electron Energy =                 196.6925862533405507
    Total Energy =                       -193.1904994297468647
  Basis Set: (AUG-CC-PVTZ AUX)
    Blend: AUG-CC-PVTZ-RI
    Molecular point group: c1

    Geometry (in Angstrom), charge = 0, multiplicity = 1:

       Center              X                  Y                   Z               Mass
    ------------   -----------------  -----------------  -----------------  -----------------
         O           -1.832947171225     0.088215918852    -0.082341750855    15.994914619570
         C            0.585628828775     0.517876918852    -0.036005750855    12.000000000000
         C           -0.534708071225    -0.492115781148     0.056548649145    12.000000000000
         C            1.966925828775    -0.128588081148     0.023637249145    12.000000000000
         H            0.467450828775     1.090234918852    -0.961964750855     1.007825032230
         H            0.473688828775     1.230051918852     0.792675249145     1.007825032230
         H           -0.466419171225    -1.204399081148    -0.802091750855     1.007825032230
         H           -0.457236171225    -1.093367081148     0.962729249145     1.007825032230
         H            2.109272828775    -0.822256081148    -0.810580750855     1.007825032230
         H            2.757544828775     0.624305918852    -0.029051750855     1.007825032230
         H            2.100664828775    -0.690309081148     0.953323249145     1.007825032230
         H           -1.920918671225     0.690030718852     0.675739149145     1.007825032230

  Basis Set: AUG-CC-PVTZ
    Blend: AUG-CC-PVTZ
  Basis Set: (AUG-CC-PVTZ AUX)
    Blend: AUG-CC-PVTZ-JKFIT
	 Reference Energy          =    -193.1904994297468647 [Eh]
	 Singles Energy            =      -0.0000000000000000 [Eh]
	 Same-Spin Energy          =      -0.1907818019494900 [Eh]
	 Opposite-Spin Energy      =      -0.6722361433279763 [Eh]
	 Correlation Energy        =      -0.8630179452774662 [Eh]
	 Total Energy              =    -194.0535173750243416 [Eh]

	 ================> DF-SCS-MP2 Energies <==================
	-----------------------------------------------------------
	 SCS Same-Spin Scale       =       0.3333333333333333 [-]
	 SCS Opposite-Spin Scale   =       1.2000000000000000 [-]
	 SCS Same-Spin Energy      =      -0.0635939339831633 [Eh]
	 SCS Opposite-Spin Energy  =      -0.8066833719935715 [Eh]
	 SCS Correlation Energy    =      -0.8702773059767348 [Eh]
	 SCS Total Energy          =    -194.0607767357236071 [Eh]
	-----------------------------------------------------------

  Dipole Moment: [D]
     X:     1.3812      Y:     0.3738      Z:     1.1573     Total:     1.8403

*** Psi4 exiting successfully. Buy a developer a beer!
