                               Psi4 1.3.2 release

  ==> Input File <==

--------------------------------------------------------------------------
#psi4
#
memory 32 gb

molecule  {
0 1
  O       -1.9055520     0.0929760    -0.0899000
  C        0.5130240     0.5226370    -0.0435640
  C       -0.5916401    -0.5174292     0.0745925
  C        1.8943210    -0.1238280     0.0160790
  H        0.4259796     1.1151350    -0.9602587
  H        0.4010840     1.2348120     0.7851170
  H       -0.5390240    -1.1996390    -0.8096500
  H       -0.5298410    -1.0886070     0.9551710
  H        2.0366680    -0.8174960    -0.8181390
  H        2.6849400     0.6290660    -0.0366100
  H        2.0280600    -0.6855490     0.9457650
  H       -2.0090520     0.6990260     0.6628270
units angstrom
no_reorient  #important for SAPT in psi4, default
symmetry c1  #important for SAPT in psi4, default
}

set PROPERTIES_ORIGIN ["COM"]
properties('MP2/aug-cc-pvtz', properties = ['dipole'])
--------------------------------------------------------------------------

    Molecular point group: c1
  Charge       = 0
  Multiplicity = 1
  Basis Set: AUG-CC-PVTZ
    Blend: AUG-CC-PVTZ
  Basis Set: (AUG-CC-PVTZ AUX)
    Blend: AUG-CC-PVTZ-JKFIT

    Orbital Energies [Eh]
    ---------------------

    Doubly Occupied:

       1A    -20.554252     2A    -11.272961     3A    -11.225071
       4A    -11.220068     5A     -1.342299     6A     -1.055707
       7A     -0.916756     8A     -0.816183     9A     -0.689407
      10A     -0.625268    11A     -0.595736    12A     -0.586115
      13A     -0.539530    14A     -0.501929    15A     -0.500872
      16A     -0.472108    17A     -0.442200

  @DF-RHF Final Energy:  -193.18757099256192

   => Energetics <=

    Nuclear Repulsion Energy =            129.8742278017855369
    One-Electron Energy =                -519.4106731362531946
    Two-Electron Energy =                 196.3488743419057414
    Total Energy =                       -193.1875709925619162
  Basis Set: (AUG-CC-PVTZ AUX)
    Blend: AUG-CC-PVTZ-RI
    Molecular point group: c1

    Geometry (in Angstrom), charge = 0, multiplicity = 1:

       Center              X                  Y                   Z               Mass
    ------------   -----------------  -----------------  -----------------  -----------------
         O           -1.836340598523     0.093815818614    -0.087522887631    15.994914619570
         C            0.582235401477     0.523476818614    -0.041186887631    12.000000000000
         C           -0.522428698523    -0.516589381386     0.076969612369    12.000000000000
         C            1.963532401477    -0.122988181386     0.018456112369    12.000000000000
         H            0.495191001477     1.115974818614    -0.957881587631     1.007825032230
         H            0.470295401477     1.235651818614     0.787494112369     1.007825032230
         H           -0.469812598523    -1.198799181386    -0.807272887631     1.007825032230
         H           -0.460629598523    -1.087767181386     0.957548112369     1.007825032230
         H            2.105879401477    -0.816656181386    -0.815761887631     1.007825032230
         H            2.754151401477     0.629905818614    -0.034232887631     1.007825032230
         H            2.097271401477    -0.684709181386     0.948142112369     1.007825032230
         H           -1.939840598523     0.699865818614     0.665204112369     1.007825032230

  Basis Set: AUG-CC-PVTZ
    Blend: AUG-CC-PVTZ
  Basis Set: (AUG-CC-PVTZ AUX)
    Blend: AUG-CC-PVTZ-JKFIT
	 Reference Energy          =    -193.1875709925619162 [Eh]
	 Singles Energy            =      -0.0000000000000000 [Eh]
	 Same-Spin Energy          =      -0.1907327877777938 [Eh]
	 Opposite-Spin Energy      =      -0.6726601268532637 [Eh]
	 Correlation Energy        =      -0.8633929146310575 [Eh]
	 Total Energy              =    -194.0509639071929655 [Eh]

	 ================> DF-SCS-MP2 Energies <==================
	-----------------------------------------------------------
	 SCS Same-Spin Scale       =       0.3333333333333333 [-]
	 SCS Opposite-Spin Scale   =       1.2000000000000000 [-]
	 SCS Same-Spin Energy      =      -0.0635775959259313 [Eh]
	 SCS Opposite-Spin Energy  =      -0.8071921522239164 [Eh]
	 SCS Correlation Energy    =      -0.8707697481498476 [Eh]
	 SCS Total Energy          =    -194.0583407407117704 [Eh]
	-----------------------------------------------------------

  Dipole Moment: [D]
     X:     1.4378      Y:     0.3250      Z:     1.1917     Total:     1.8955

*** Psi4 exiting successfully. Buy a developer a beer!
