                               Psi4 1.3.2 release

  ==> Input File <==

--------------------------------------------------------------------------
#psi4
#
memory 32 gb

molecule  {
0 1
  O       -1.9055520     0.0929760    -0.0899000
  C        0.5130240     0.5226370    -0.0435640
  C       -0.6112230    -0.5005450     0.0281910
  C        1.8943210    -0.1238280     0.0160790
  H        0.3948460     1.0949950    -0.9695230
  H        0.4010840     1.2348120     0.7851170
  H       -0.5390240    -1.1996390    -0.8096500
  H       -0.5298410    -1.0886070     0.9551710
  H        2.0366680    -0.8174960    -0.8181390
  H        2.6849400     0.6290660    -0.0366100
  H        2.0280600    -0.6855490     0.9457650
  H       -1.9877537     0.5743127     0.5079304
units angstrom
no_reorient  #important for SAPT in psi4, default
symmetry c1  #important for SAPT in psi4, default
}

set PROPERTIES_ORIGIN ["COM"]
properties('MP2/aug-cc-pvtz', properties = ['dipole'])
--------------------------------------------------------------------------

    Molecular point group: c1
  Charge       = 0
  Multiplicity = 1
  Basis Set: AUG-CC-PVTZ
    Blend: AUG-CC-PVTZ
  Basis Set: (AUG-CC-PVTZ AUX)
    Blend: AUG-CC-PVTZ-JKFIT

    Orbital Energies [Eh]
    ---------------------

    Doubly Occupied:

       1A    -20.533909     2A    -11.275091     3A    -11.225447
       4A    -11.221345     5A     -1.414416     6A     -1.060099
       7A     -0.930641     8A     -0.825536     9A     -0.717009
      10A     -0.640324    11A     -0.601602    12A     -0.590603
      13A     -0.550064    14A     -0.506411    15A     -0.503204
      16A     -0.475794    17A     -0.442613

  @DF-RHF Final Energy:  -193.14500756164131

   => Energetics <=

    Nuclear Repulsion Energy =            131.4594602229449265
    One-Electron Energy =                -522.1807182824500160
    Two-Electron Energy =                 197.5762504978637821
    Total Energy =                       -193.1450075616413073
  Basis Set: (AUG-CC-PVTZ AUX)
    Blend: AUG-CC-PVTZ-RI
    Molecular point group: c1

    Geometry (in Angstrom), charge = 0, multiplicity = 1:

       Center              X                  Y                   Z               Mass
    ------------   -----------------  -----------------  -----------------  -----------------
         O           -1.832262723139     0.092872995415    -0.075496691312    15.994914619570
         C            0.586313276861     0.522533995415    -0.029160691312    12.000000000000
         C           -0.537933723139    -0.500648004585     0.042594308688    12.000000000000
         C            1.967610276861    -0.123931004585     0.030482308688    12.000000000000
         H            0.468135276861     1.094891995415    -0.955119691312     1.007825032230
         H            0.474373276861     1.234708995415     0.799520308688     1.007825032230
         H           -0.465734723139    -1.199742004585    -0.795246691312     1.007825032230
         H           -0.456551723139    -1.088710004585     0.969574308688     1.007825032230
         H            2.109957276861    -0.817599004585    -0.803735691312     1.007825032230
         H            2.758229276861     0.628962995415    -0.022206691312     1.007825032230
         H            2.101349276861    -0.685652004585     0.960168308688     1.007825032230
         H           -1.914464423139     0.574209695415     0.522333708688     1.007825032230

  Basis Set: AUG-CC-PVTZ
    Blend: AUG-CC-PVTZ
  Basis Set: (AUG-CC-PVTZ AUX)
    Blend: AUG-CC-PVTZ-JKFIT
	 Reference Energy          =    -193.1450075616413073 [Eh]
	 Singles Energy            =      -0.0000000000000000 [Eh]
	 Same-Spin Energy          =      -0.1883947077870822 [Eh]
	 Opposite-Spin Energy      =      -0.6665042275842289 [Eh]
	 Correlation Energy        =      -0.8548989353713111 [Eh]
	 Total Energy              =    -193.9999064970126312 [Eh]

	 ================> DF-SCS-MP2 Energies <==================
	-----------------------------------------------------------
	 SCS Same-Spin Scale       =       0.3333333333333333 [-]
	 SCS Opposite-Spin Scale   =       1.2000000000000000 [-]
	 SCS Same-Spin Energy      =      -0.0627982359290274 [Eh]
	 SCS Opposite-Spin Energy  =      -0.7998050731010746 [Eh]
	 SCS Correlation Energy    =      -0.8626033090301020 [Eh]
	 SCS Total Energy          =    -194.0076108706714137 [Eh]
	-----------------------------------------------------------

  Dipole Moment: [D]
     X:     1.4434      Y:     0.2629      Z:     1.0284     Total:     1.7917

*** Psi4 exiting successfully. Buy a developer a beer!
