                               Psi4 1.3.2 release

  ==> Input File <==

--------------------------------------------------------------------------
#psi4
#
memory 32 gb

molecule  {
0 1
  O       -1.9055520     0.0929760    -0.0899000
  C        0.5130240     0.5226370    -0.0435640
  C       -0.5931518    -0.5199421     0.0298207
  C        1.8827818    -0.1477707     0.0178591
  H        0.3948460     1.0949950    -0.9695230
  H        0.4010840     1.2348120     0.7851170
  H       -0.5390240    -1.1996390    -0.8096500
  H       -0.5298410    -1.0886070     0.9551710
  H        2.0366680    -0.8174960    -0.8181390
  H        2.6849400     0.6290660    -0.0366100
  H        2.0280600    -0.6855490     0.9457650
  H       -2.0090520     0.6990260     0.6628270
units angstrom
no_reorient  #important for SAPT in psi4, default
symmetry c1  #important for SAPT in psi4, default
}

set PROPERTIES_ORIGIN ["COM"]
properties('MP2/aug-cc-pvtz', properties = ['dipole'])
--------------------------------------------------------------------------

    Molecular point group: c1
  Charge       = 0
  Multiplicity = 1
  Basis Set: AUG-CC-PVTZ
    Blend: AUG-CC-PVTZ
  Basis Set: (AUG-CC-PVTZ AUX)
    Blend: AUG-CC-PVTZ-JKFIT

    Orbital Energies [Eh]
    ---------------------

    Doubly Occupied:

       1A    -20.552847     2A    -11.271988     3A    -11.224907
       4A    -11.220419     5A     -1.342298     6A     -1.055985
       7A     -0.916171     8A     -0.816696     9A     -0.685838
      10A     -0.630143    11A     -0.592397    12A     -0.585465
      13A     -0.542012    14A     -0.504530    15A     -0.499964
      16A     -0.476033    17A     -0.436721

  @DF-RHF Final Energy:  -193.19008196416979

   => Energetics <=

    Nuclear Repulsion Energy =            130.0050626709572725
    One-Electron Energy =                -519.6814652734100264
    Two-Electron Energy =                 196.4863206382829617
    Total Energy =                       -193.1900819641697922
  Basis Set: (AUG-CC-PVTZ AUX)
    Blend: AUG-CC-PVTZ-RI
    Molecular point group: c1

    Geometry (in Angstrom), charge = 0, multiplicity = 1:

       Center              X                  Y                   Z               Mass
    ------------   -----------------  -----------------  -----------------  -----------------
         O           -1.833210465319     0.099439840800    -0.078777317747    15.994914619570
         C            0.585365534681     0.529100840800    -0.032441317747    12.000000000000
         C           -0.520810265319    -0.513478259200     0.040943382253    12.000000000000
         C            1.955123334681    -0.141306859200     0.028981782253    12.000000000000
         H            0.467187534681     1.101458840800    -0.958400317747     1.007825032230
         H            0.473425534681     1.241275840800     0.796239682253     1.007825032230
         H           -0.466682465319    -1.193175159200    -0.798527317747     1.007825032230
         H           -0.457499465319    -1.082143159200     0.966293682253     1.007825032230
         H            2.109009534681    -0.811032159200    -0.807016317747     1.007825032230
         H            2.757281534681     0.635529840800    -0.025487317747     1.007825032230
         H            2.100401534681    -0.679085159200     0.956887682253     1.007825032230
         H           -1.936710465319     0.705489840800     0.673949682253     1.007825032230

  Basis Set: AUG-CC-PVTZ
    Blend: AUG-CC-PVTZ
  Basis Set: (AUG-CC-PVTZ AUX)
    Blend: AUG-CC-PVTZ-JKFIT
	 Reference Energy          =    -193.1900819641697922 [Eh]
	 Singles Energy            =      -0.0000000000000000 [Eh]
	 Same-Spin Energy          =      -0.1906244046630965 [Eh]
	 Opposite-Spin Energy      =      -0.6722987814776460 [Eh]
	 Correlation Energy        =      -0.8629231861407425 [Eh]
	 Total Energy              =    -194.0530051503105256 [Eh]

	 ================> DF-SCS-MP2 Energies <==================
	-----------------------------------------------------------
	 SCS Same-Spin Scale       =       0.3333333333333333 [-]
	 SCS Opposite-Spin Scale   =       1.2000000000000000 [-]
	 SCS Same-Spin Energy      =      -0.0635414682210322 [Eh]
	 SCS Opposite-Spin Energy  =      -0.8067585377731752 [Eh]
	 SCS Correlation Energy    =      -0.8703000059942073 [Eh]
	 SCS Total Energy          =    -194.0603819701640020 [Eh]
	-----------------------------------------------------------

  Dipole Moment: [D]
     X:     1.4379      Y:     0.3119      Z:     1.1362     Total:     1.8589

*** Psi4 exiting successfully. Buy a developer a beer!
