                               Psi4 1.4a3.dev225

  ==> Input File <==

--------------------------------------------------------------------------
#psi4
#
memory 32 gb

molecule  {
0 1
  O       -1.9047240     0.0931460    -0.0908470
  C        0.5131690     0.5241710    -0.0433670
  C       -0.6289263    -0.4911103     0.0258583
  C        1.8936320    -0.1245310     0.0161890
  H        0.3957570     1.0975960    -0.9686090
  H        0.4007840     1.2346420     0.7863210
  H       -0.5374450    -1.1984960    -0.8102130
  H       -0.5284920    -1.0877010     0.9544070
  H        2.0362220    -0.8155520    -0.8201750
  H        2.6863420     0.6265150    -0.0317980
  H        2.0238630    -0.6901790     0.9440150
  H       -2.0152090     0.6866180     0.6708020
units angstrom
no_reorient  #important for SAPT in psi4, default
symmetry c1  #important for SAPT in psi4, default
}

set PROPERTIES_ORIGIN ["COM"]
properties('MP2/aug-cc-pvtz', properties = ['dipole'])
--------------------------------------------------------------------------

    Molecular point group: c1
  Charge       = 0
  Multiplicity = 1
  Basis Set: AUG-CC-PVTZ
    Blend: AUG-CC-PVTZ
  Basis Set: (AUG-CC-PVTZ AUX)
    Blend: AUG-CC-PVTZ-JKFIT

    Orbital Energies [Eh]
    ---------------------

    Doubly Occupied:

       1A    -20.558633     2A    -11.273192     3A    -11.223381
       4A    -11.219853     5A     -1.361187     6A     -1.052028
       7A     -0.914742     8A     -0.815033     9A     -0.691354
      10A     -0.632296    11A     -0.599994    12A     -0.587232
      13A     -0.545236    14A     -0.501747    15A     -0.500674
      16A     -0.469613    17A     -0.434346

  @DF-RHF Final Energy:  -193.19178129036882

   => Energetics <=

    Nuclear Repulsion Energy =            130.2532899647079034
    One-Electron Energy =                -520.1290589364293737
    Two-Electron Energy =                 196.6839876813526473
    Total Energy =                       -193.1917812903688230
  Basis Set: (AUG-CC-PVTZ AUX)
    Blend: AUG-CC-PVTZ-RI
    Molecular point group: c1

    Geometry (in Angstrom), charge = 0, multiplicity = 1:

       Center              X                  Y                   Z               Mass
    ------------   -----------------  -----------------  -----------------  -----------------
         O           -1.827553549935     0.089074654317    -0.078550367050    15.994914619570
         C            0.590339450065     0.520099654317    -0.031070367050    12.000000000000
         C           -0.551755849935    -0.495181645683     0.038154932950    12.000000000000
         C            1.970802450065    -0.128602345683     0.028485632950    12.000000000000
         H            0.472927450065     1.093524654317    -0.956312367050     1.007825032230
         H            0.477954450065     1.230570654317     0.798617632950     1.007825032230
         H           -0.460274549935    -1.202567345683    -0.797916367050     1.007825032230
         H           -0.451321549935    -1.091772345683     0.966703632950     1.007825032230
         H            2.113392450065    -0.819623345683    -0.807878367050     1.007825032230
         H            2.763512450065     0.622443654317    -0.019501367050     1.007825032230
         H            2.101033450065    -0.694250345683     0.956311632950     1.007825032230
         H           -1.938038549935     0.682546654317     0.683098632950     1.007825032230

  Basis Set: AUG-CC-PVTZ
    Blend: AUG-CC-PVTZ
  Basis Set: (AUG-CC-PVTZ AUX)
    Blend: AUG-CC-PVTZ-JKFIT
	 Reference Energy          =    -193.1917812903688230 [Eh]
	 Singles Energy            =      -0.0000000000000000 [Eh]
	 Same-Spin Energy          =      -0.1905418101203907 [Eh]
	 Opposite-Spin Energy      =      -0.6715785500389793 [Eh]
	 Correlation Energy        =      -0.8621203601593700 [Eh]
	 Total Energy              =    -194.0539016505281893 [Eh]

	 ================> DF-SCS-MP2 Energies <==================
	-----------------------------------------------------------
	 SCS Same-Spin Scale       =       0.3333333333333333 [-]
	 SCS Opposite-Spin Scale   =       1.2000000000000000 [-]
	 SCS Same-Spin Energy      =      -0.0635139367067969 [Eh]
	 SCS Opposite-Spin Energy  =      -0.8058942600467751 [Eh]
	 SCS Correlation Energy    =      -0.8694081967535721 [Eh]
	 SCS Total Energy          =    -194.0611894871223910 [Eh]
	-----------------------------------------------------------

  Dipole Moment: [D]
     X:     1.2634      Y:     0.3762      Z:     1.1402     Total:     1.7429

*** Psi4 exiting successfully. Buy a developer a beer!
