                               Psi4 1.3.2 release

  ==> Input File <==

--------------------------------------------------------------------------
#psi4
#
memory 32 gb

molecule  {
0 1
  O       -1.9077166     0.0861003    -0.1000739
  C        0.5130240     0.5226370    -0.0435640
  C       -0.6112230    -0.5005450     0.0281910
  C        1.8943210    -0.1238280     0.0160790
  H        0.3948460     1.0949950    -0.9695230
  H        0.4010840     1.2348120     0.7851170
  H       -0.5478137    -1.1971611    -0.8124206
  H       -0.5298410    -1.0886070     0.9551710
  H        2.0366680    -0.8174960    -0.8181390
  H        2.6849400     0.6290660    -0.0366100
  H        2.0280600    -0.6855490     0.9457650
  H       -2.0090520     0.6990260     0.6628270
units angstrom
no_reorient  #important for SAPT in psi4, default
symmetry c1  #important for SAPT in psi4, default
}

set PROPERTIES_ORIGIN ["COM"]
properties('MP2/aug-cc-pvtz', properties = ['dipole'])
--------------------------------------------------------------------------

    Molecular point group: c1
  Charge       = 0
  Multiplicity = 1
  Basis Set: AUG-CC-PVTZ
    Blend: AUG-CC-PVTZ
  Basis Set: (AUG-CC-PVTZ AUX)
    Blend: AUG-CC-PVTZ-JKFIT

    Orbital Energies [Eh]
    ---------------------

    Doubly Occupied:

       1A    -20.557701     2A    -11.272654     3A    -11.224256
       4A    -11.220368     5A     -1.350499     6A     -1.054086
       7A     -0.915039     8A     -0.814969     9A     -0.687218
      10A     -0.629593    11A     -0.596381    12A     -0.586786
      13A     -0.543903    14A     -0.501498    15A     -0.500839
      16A     -0.472372    17A     -0.437207

  @DF-RHF Final Energy:  -193.19076221873374

   => Energetics <=

    Nuclear Repulsion Energy =            130.0617499188978456
    One-Electron Energy =                -519.7742836197550105
    Two-Electron Energy =                 196.5217714821234551
    Total Energy =                       -193.1907622187337381
  Basis Set: (AUG-CC-PVTZ AUX)
    Blend: AUG-CC-PVTZ-RI
    Molecular point group: c1

    Geometry (in Angstrom), charge = 0, multiplicity = 1:

       Center              X                  Y                   Z               Mass
    ------------   -----------------  -----------------  -----------------  -----------------
         O           -1.833345925883     0.085694082057    -0.085513837057    15.994914619570
         C            0.587394674117     0.522230782057    -0.029003937057    12.000000000000
         C           -0.536852325883    -0.500951217943     0.042751062943    12.000000000000
         C            1.968691674117    -0.124234217943     0.030639062943    12.000000000000
         H            0.469216674117     1.094588782057    -0.954962937057     1.007825032230
         H            0.475454674117     1.234405782057     0.799677062943     1.007825032230
         H           -0.473443025883    -1.197567317943    -0.797860537057     1.007825032230
         H           -0.455470325883    -1.089013217943     0.969731062943     1.007825032230
         H            2.111038674117    -0.817902217943    -0.803578937057     1.007825032230
         H            2.759310674117     0.628659782057    -0.022049937057     1.007825032230
         H            2.102430674117    -0.685955217943     0.960325062943     1.007825032230
         H           -1.934681325883     0.698619782057     0.677387062943     1.007825032230

  Basis Set: AUG-CC-PVTZ
    Blend: AUG-CC-PVTZ
  Basis Set: (AUG-CC-PVTZ AUX)
    Blend: AUG-CC-PVTZ-JKFIT
	 Reference Energy          =    -193.1907622187337381 [Eh]
	 Singles Energy            =      -0.0000000000000000 [Eh]
	 Same-Spin Energy          =      -0.1907518790623511 [Eh]
	 Opposite-Spin Energy      =      -0.6723479278781858 [Eh]
	 Correlation Energy        =      -0.8630998069405368 [Eh]
	 Total Energy              =    -194.0538620256742774 [Eh]

	 ================> DF-SCS-MP2 Energies <==================
	-----------------------------------------------------------
	 SCS Same-Spin Scale       =       0.3333333333333333 [-]
	 SCS Opposite-Spin Scale   =       1.2000000000000000 [-]
	 SCS Same-Spin Energy      =      -0.0635839596874503 [Eh]
	 SCS Opposite-Spin Energy  =      -0.8068175134538229 [Eh]
	 SCS Correlation Energy    =      -0.8704014731412733 [Eh]
	 SCS Total Energy          =    -194.0611636918750094 [Eh]
	-----------------------------------------------------------

  Dipole Moment: [D]
     X:     1.3569      Y:     0.3762      Z:     1.1416     Total:     1.8127

*** Psi4 exiting successfully. Buy a developer a beer!
