                               Psi4 1.3.2 release

  ==> Input File <==

--------------------------------------------------------------------------
#psi4
#
memory 32 gb

molecule  {
0 1
  O       -1.9055520     0.0929760    -0.0899000
  C        0.5130240     0.5226370    -0.0435640
  C       -0.6016013    -0.5091443     0.0514062
  C        1.8943210    -0.1238280     0.0160790
  H        0.4103972     1.1051537    -0.9650312
  H        0.4010840     1.2348120     0.7851170
  H       -0.5390240    -1.1996390    -0.8096500
  H       -0.5298410    -1.0886070     0.9551710
  H        2.0366680    -0.8174960    -0.8181390
  H        2.6849400     0.6290660    -0.0366100
  H        2.0280600    -0.6855490     0.9457650
  H       -2.0090520     0.6990260     0.6628270
units angstrom
no_reorient  #important for SAPT in psi4, default
symmetry c1  #important for SAPT in psi4, default
}

set PROPERTIES_ORIGIN ["COM"]
properties('MP2/aug-cc-pvtz', properties = ['dipole'])
--------------------------------------------------------------------------

    Molecular point group: c1
  Charge       = 0
  Multiplicity = 1
  Basis Set: AUG-CC-PVTZ
    Blend: AUG-CC-PVTZ
  Basis Set: (AUG-CC-PVTZ AUX)
    Blend: AUG-CC-PVTZ-JKFIT

    Orbital Energies [Eh]
    ---------------------

    Doubly Occupied:

       1A    -20.555244     2A    -11.272805     3A    -11.224493
       4A    -11.220149     5A     -1.347388     6A     -1.054931
       7A     -0.916152     8A     -0.815560     9A     -0.688865
      10A     -0.628097    11A     -0.594990    12A     -0.587266
      13A     -0.542285    14A     -0.501601    15A     -0.500775
      16A     -0.472031    17A     -0.440327

  @DF-RHF Final Energy:  -193.19063356337591

   => Energetics <=

    Nuclear Repulsion Energy =            130.0045308364179846
    One-Electron Energy =                -519.6644122618104120
    Two-Electron Energy =                 196.4692478620165161
    Total Energy =                       -193.1906335633759113
  Basis Set: (AUG-CC-PVTZ AUX)
    Blend: AUG-CC-PVTZ-RI
    Molecular point group: c1

    Geometry (in Angstrom), charge = 0, multiplicity = 1:

       Center              X                  Y                   Z               Mass
    ------------   -----------------  -----------------  -----------------  -----------------
         O           -1.834088778196     0.092327921617    -0.082809981252    15.994914619570
         C            0.584487221804     0.521988921617    -0.036473981252    12.000000000000
         C           -0.530138078196    -0.509792378383     0.058496218748    12.000000000000
         C            1.965784221804    -0.124476078383     0.023169018748    12.000000000000
         H            0.481860421804     1.104505621617    -0.957941181252     1.007825032230
         H            0.472547221804     1.234163921617     0.792207018748     1.007825032230
         H           -0.467560778196    -1.200287078383    -0.802559981252     1.007825032230
         H           -0.458377778196    -1.089255078383     0.962261018748     1.007825032230
         H            2.108131221804    -0.818144078383    -0.811048981252     1.007825032230
         H            2.756403221804     0.628417921617    -0.029519981252     1.007825032230
         H            2.099523221804    -0.686197078383     0.952855018748     1.007825032230
         H           -1.937588778196     0.698377921617     0.669917018748     1.007825032230

  Basis Set: AUG-CC-PVTZ
    Blend: AUG-CC-PVTZ
  Basis Set: (AUG-CC-PVTZ AUX)
    Blend: AUG-CC-PVTZ-JKFIT
	 Reference Energy          =    -193.1906335633759113 [Eh]
	 Singles Energy            =      -0.0000000000000000 [Eh]
	 Same-Spin Energy          =      -0.1906379126335954 [Eh]
	 Opposite-Spin Energy      =      -0.6722233344460103 [Eh]
	 Correlation Energy        =      -0.8628612470796058 [Eh]
	 Total Energy              =    -194.0534948104555042 [Eh]

	 ================> DF-SCS-MP2 Energies <==================
	-----------------------------------------------------------
	 SCS Same-Spin Scale       =       0.3333333333333333 [-]
	 SCS Opposite-Spin Scale   =       1.2000000000000000 [-]
	 SCS Same-Spin Energy      =      -0.0635459708778651 [Eh]
	 SCS Opposite-Spin Energy  =      -0.8066680013352124 [Eh]
	 SCS Correlation Energy    =      -0.8702139722130775 [Eh]
	 SCS Total Energy          =    -194.0608475355889766 [Eh]
	-----------------------------------------------------------

  Dipole Moment: [D]
     X:     1.3970      Y:     0.3427      Z:     1.1623     Total:     1.8494

*** Psi4 exiting successfully. Buy a developer a beer!
