                               Psi4 1.3.2 release

  ==> Input File <==

--------------------------------------------------------------------------
#psi4
#
memory 32 gb

molecule  {
0 1
  O       -1.9055520     0.0929760    -0.0899000
  C        0.5130240     0.5226370    -0.0435640
  C       -0.6133260    -0.5070721     0.0177774
  C        1.8943210    -0.1238280     0.0160790
  H        0.3948460     1.0949950    -0.9695230
  H        0.4010840     1.2348120     0.7851170
  H       -0.5390240    -1.1996390    -0.8096500
  H       -0.5298410    -1.0886070     0.9551710
  H        2.0366680    -0.8174960    -0.8181390
  H        2.6849400     0.6290660    -0.0366100
  H        2.0280600    -0.6855490     0.9457650
  H       -2.0168047     0.7010744     0.6600639
units angstrom
no_reorient  #important for SAPT in psi4, default
symmetry c1  #important for SAPT in psi4, default
}

set PROPERTIES_ORIGIN ["COM"]
properties('MP2/aug-cc-pvtz', properties = ['dipole'])
--------------------------------------------------------------------------

    Molecular point group: c1
  Charge       = 0
  Multiplicity = 1
  Basis Set: AUG-CC-PVTZ
    Blend: AUG-CC-PVTZ
  Basis Set: (AUG-CC-PVTZ AUX)
    Blend: AUG-CC-PVTZ-JKFIT

    Orbital Energies [Eh]
    ---------------------

    Doubly Occupied:

       1A    -20.555654     2A    -11.272852     3A    -11.224072
       4A    -11.220028     5A     -1.351722     6A     -1.053446
       7A     -0.916033     8A     -0.815831     9A     -0.687257
      10A     -0.632377    11A     -0.596003    12A     -0.585591
      13A     -0.546595    14A     -0.501538    15A     -0.499358
      16A     -0.473417    17A     -0.435237

  @DF-RHF Final Energy:  -193.19187509159627

   => Energetics <=

    Nuclear Repulsion Energy =            130.0725680988156228
    One-Electron Energy =                -519.7948644955114332
    Two-Electron Energy =                 196.5304213050995372
    Total Energy =                       -193.1918750915962733
  Basis Set: (AUG-CC-PVTZ AUX)
    Blend: AUG-CC-PVTZ-RI
    Molecular point group: c1

    Geometry (in Angstrom), charge = 0, multiplicity = 1:

       Center              X                  Y                   Z               Mass
    ------------   -----------------  -----------------  -----------------  -----------------
         O           -1.831355021161     0.092049977438    -0.075968917804    15.994914619570
         C            0.587220978839     0.521710977438    -0.029632917804    12.000000000000
         C           -0.539129021161    -0.507998122562     0.031708482196    12.000000000000
         C            1.968517978839    -0.124754022562     0.030010082196    12.000000000000
         H            0.469042978839     1.094068977438    -0.955591917804     1.007825032230
         H            0.475280978839     1.233885977438     0.799048082196     1.007825032230
         H           -0.464827021161    -1.200565022562    -0.795718917804     1.007825032230
         H           -0.455644021161    -1.089533022562     0.969102082196     1.007825032230
         H            2.110864978839    -0.818422022562    -0.804207917804     1.007825032230
         H            2.759136978839     0.628139977438    -0.022678917804     1.007825032230
         H            2.102256978839    -0.686475022562     0.959696082196     1.007825032230
         H           -1.942607721161     0.700148377438     0.673994982196     1.007825032230

  Basis Set: AUG-CC-PVTZ
    Blend: AUG-CC-PVTZ
  Basis Set: (AUG-CC-PVTZ AUX)
    Blend: AUG-CC-PVTZ-JKFIT
	 Reference Energy          =    -193.1918750915962733 [Eh]
	 Singles Energy            =      -0.0000000000000000 [Eh]
	 Same-Spin Energy          =      -0.1904970591588075 [Eh]
	 Opposite-Spin Energy      =      -0.6717510507598112 [Eh]
	 Correlation Energy        =      -0.8622481099186188 [Eh]
	 Total Energy              =    -194.0541232015148978 [Eh]

	 ================> DF-SCS-MP2 Energies <==================
	-----------------------------------------------------------
	 SCS Same-Spin Scale       =       0.3333333333333333 [-]
	 SCS Opposite-Spin Scale   =       1.2000000000000000 [-]
	 SCS Same-Spin Energy      =      -0.0634990197196025 [Eh]
	 SCS Opposite-Spin Energy  =      -0.8061012609117735 [Eh]
	 SCS Correlation Energy    =      -0.8696002806313760 [Eh]
	 SCS Total Energy          =    -194.0614753722276475 [Eh]
	-----------------------------------------------------------

  Dipole Moment: [D]
     X:     1.3425      Y:     0.3610      Z:     1.1162     Total:     1.7829

*** Psi4 exiting successfully. Buy a developer a beer!
