                               Psi4 1.3.2 release

  ==> Input File <==

--------------------------------------------------------------------------
#psi4
#
memory 32 gb

molecule  {
0 1
  O       -1.9055520     0.0929760    -0.0899000
  C        0.5130240     0.5226370    -0.0435640
  C       -0.5206351    -0.5420845     0.0364560
  C        1.8943210    -0.1238280     0.0160790
  H        0.3948460     1.0949950    -0.9695230
  H        0.4010840     1.2348120     0.7851170
  H       -0.5390240    -1.1996390    -0.8096500
  H       -0.5298410    -1.0886070     0.9551710
  H        2.0366680    -0.8174960    -0.8181390
  H        2.6849400     0.6290660    -0.0366100
  H        2.0280600    -0.6855490     0.9457650
  H       -2.0090520     0.6990260     0.6628270
units angstrom
no_reorient  #important for SAPT in psi4, default
symmetry c1  #important for SAPT in psi4, default
}

set PROPERTIES_ORIGIN ["COM"]
properties('MP2/aug-cc-pvtz', properties = ['dipole'])
--------------------------------------------------------------------------

    Molecular point group: c1
  Charge       = 0
  Multiplicity = 1
  Basis Set: AUG-CC-PVTZ
    Blend: AUG-CC-PVTZ
  Basis Set: (AUG-CC-PVTZ AUX)
    Blend: AUG-CC-PVTZ-JKFIT

    Orbital Energies [Eh]
    ---------------------

    Doubly Occupied:

       1A    -20.544575     2A    -11.273766     3A    -11.226543
       4A    -11.222097     5A     -1.316450     6A     -1.065710
       7A     -0.920434     8A     -0.818429     9A     -0.680676
      10A     -0.626889    11A     -0.591168    12A     -0.577672
      13A     -0.543772    14A     -0.507733    15A     -0.491386
      16A     -0.478337    17A     -0.443799

  @DF-RHF Final Energy:  -193.18220756653358

   => Energetics <=

    Nuclear Repulsion Energy =            129.7055899546088540
    One-Electron Energy =                -519.1167248485421624
    Two-Electron Energy =                 196.2289273273997310
    Total Energy =                       -193.1822075665335774
  Basis Set: (AUG-CC-PVTZ AUX)
    Blend: AUG-CC-PVTZ-RI
    Molecular point group: c1

    Geometry (in Angstrom), charge = 0, multiplicity = 1:

       Center              X                  Y                   Z               Mass
    ------------   -----------------  -----------------  -----------------  -----------------
         O           -1.850005545869     0.099080125617    -0.079747427817    15.994914619570
         C            0.568570454131     0.528741125617    -0.033411427817    12.000000000000
         C           -0.465088645869    -0.535980374383     0.046608572183    12.000000000000
         C            1.949867454131    -0.117723874383     0.026231572183    12.000000000000
         H            0.450392454131     1.101099125617    -0.959370427817     1.007825032230
         H            0.456630454131     1.240916125617     0.795269572183     1.007825032230
         H           -0.483477545869    -1.193534874383    -0.799497427817     1.007825032230
         H           -0.474294545869    -1.082502874383     0.965323572183     1.007825032230
         H            2.092214454131    -0.811391874383    -0.807986427817     1.007825032230
         H            2.740486454131     0.635170125617    -0.026457427817     1.007825032230
         H            2.083606454131    -0.679444874383     0.955917572183     1.007825032230
         H           -1.953505545869     0.705130125617     0.672979572183     1.007825032230

  Basis Set: AUG-CC-PVTZ
    Blend: AUG-CC-PVTZ
  Basis Set: (AUG-CC-PVTZ AUX)
    Blend: AUG-CC-PVTZ-JKFIT
	 Reference Energy          =    -193.1822075665335774 [Eh]
	 Singles Energy            =      -0.0000000000000000 [Eh]
	 Same-Spin Energy          =      -0.1911564685468934 [Eh]
	 Opposite-Spin Energy      =      -0.6739907969197066 [Eh]
	 Correlation Energy        =      -0.8651472654666001 [Eh]
	 Total Energy              =    -194.0473548320001669 [Eh]

	 ================> DF-SCS-MP2 Energies <==================
	-----------------------------------------------------------
	 SCS Same-Spin Scale       =       0.3333333333333333 [-]
	 SCS Opposite-Spin Scale   =       1.2000000000000000 [-]
	 SCS Same-Spin Energy      =      -0.0637188228489645 [Eh]
	 SCS Opposite-Spin Energy  =      -0.8087889563036480 [Eh]
	 SCS Correlation Energy    =      -0.8725077791526125 [Eh]
	 SCS Total Energy          =    -194.0547153456861906 [Eh]
	-----------------------------------------------------------

  Dipole Moment: [D]
     X:     1.7147      Y:     0.2458      Z:     1.1434     Total:     2.0756

*** Psi4 exiting successfully. Buy a developer a beer!
