                               Psi4 1.3.2 release

  ==> Input File <==

--------------------------------------------------------------------------
#psi4
#
memory 32 gb

molecule  {
0 1
  O       -1.9055520     0.0929760    -0.0899000
  C        0.5130240     0.5226370    -0.0435640
  C       -0.6006801    -0.4604509     0.0904559
  C        1.8943210    -0.1238280     0.0160790
  H        0.3948460     1.0949950    -0.9695230
  H        0.4010840     1.2348120     0.7851170
  H       -0.5390240    -1.1996390    -0.8096500
  H       -0.5298410    -1.0886070     0.9551710
  H        2.0366680    -0.8174960    -0.8181390
  H        2.6849400     0.6290660    -0.0366100
  H        2.0280600    -0.6855490     0.9457650
  H       -1.9623908     0.6857719     0.6781945
units angstrom
no_reorient  #important for SAPT in psi4, default
symmetry c1  #important for SAPT in psi4, default
}

set PROPERTIES_ORIGIN ["COM"]
properties('MP2/aug-cc-pvtz', properties = ['dipole'])
--------------------------------------------------------------------------

    Molecular point group: c1
  Charge       = 0
  Multiplicity = 1
  Basis Set: AUG-CC-PVTZ
    Blend: AUG-CC-PVTZ
  Basis Set: (AUG-CC-PVTZ AUX)
    Blend: AUG-CC-PVTZ-JKFIT

    Orbital Energies [Eh]
    ---------------------

    Doubly Occupied:

       1A    -20.560506     2A    -11.274703     3A    -11.224593
       4A    -11.221765     5A     -1.358238     6A     -1.059574
       7A     -0.915901     8A     -0.813471     9A     -0.693067
      10A     -0.626470    11A     -0.602643    12A     -0.593426
      13A     -0.536024    14A     -0.506845    15A     -0.501836
      16A     -0.459049    17A     -0.448008

  @DF-RHF Final Energy:  -193.18319349126125

   => Energetics <=

    Nuclear Repulsion Energy =            130.4957441703948575
    One-Electron Energy =                -520.5656375615328670
    Two-Electron Energy =                 196.8866998998767599
    Total Energy =                       -193.1831934912612496
  Basis Set: (AUG-CC-PVTZ AUX)
    Blend: AUG-CC-PVTZ-RI
    Molecular point group: c1

    Geometry (in Angstrom), charge = 0, multiplicity = 1:

       Center              X                  Y                   Z               Mass
    ------------   -----------------  -----------------  -----------------  -----------------
         O           -1.834794898601     0.082991458142    -0.090794947058    15.994914619570
         C            0.583781101399     0.512652458142    -0.044458947058    12.000000000000
         C           -0.529922998601    -0.470435441858     0.089560952942    12.000000000000
         C            1.965078101399    -0.133812541858     0.015184052942    12.000000000000
         H            0.465603101399     1.085010458142    -0.970417947058     1.007825032230
         H            0.471841101399     1.224827458142     0.784222052942     1.007825032230
         H           -0.468266898601    -1.209623541858    -0.810544947058     1.007825032230
         H           -0.459083898601    -1.098591541858     0.954276052942     1.007825032230
         H            2.107425101399    -0.827480541858    -0.819033947058     1.007825032230
         H            2.755697101399     0.619081458142    -0.037504947058     1.007825032230
         H            2.098817101399    -0.695533541858     0.944870052942     1.007825032230
         H           -1.891633698601     0.675787358142     0.677299552942     1.007825032230

  Basis Set: AUG-CC-PVTZ
    Blend: AUG-CC-PVTZ
  Basis Set: (AUG-CC-PVTZ AUX)
    Blend: AUG-CC-PVTZ-JKFIT
	 Reference Energy          =    -193.1831934912612496 [Eh]
	 Singles Energy            =      -0.0000000000000000 [Eh]
	 Same-Spin Energy          =      -0.1912832491831045 [Eh]
	 Opposite-Spin Energy      =      -0.6731824628920446 [Eh]
	 Correlation Energy        =      -0.8644657120751491 [Eh]
	 Total Energy              =    -194.0476592033363943 [Eh]

	 ================> DF-SCS-MP2 Energies <==================
	-----------------------------------------------------------
	 SCS Same-Spin Scale       =       0.3333333333333333 [-]
	 SCS Opposite-Spin Scale   =       1.2000000000000000 [-]
	 SCS Same-Spin Energy      =      -0.0637610830610348 [Eh]
	 SCS Opposite-Spin Energy  =      -0.8078189554704536 [Eh]
	 SCS Correlation Energy    =      -0.8715800385314885 [Eh]
	 SCS Total Energy          =    -194.0547735297927261 [Eh]
	-----------------------------------------------------------

  Dipole Moment: [D]
     X:     1.4271      Y:     0.3995      Z:     1.2126     Total:     1.9149

*** Psi4 exiting successfully. Buy a developer a beer!
