                               Psi4 1.3.2 release

  ==> Input File <==

--------------------------------------------------------------------------
#psi4
#
memory 32 gb

molecule  {
0 1
  O       -1.9055520     0.0929760    -0.0899000
  C        0.5130240     0.5226370    -0.0435640
  C       -0.6155274    -0.5135535     0.0073556
  C        1.8943210    -0.1238280     0.0160790
  H        0.3948460     1.0949950    -0.9695230
  H        0.4010840     1.2348120     0.7851170
  H       -0.5390240    -1.1996390    -0.8096500
  H       -0.5298410    -1.0886070     0.9551710
  H        2.0366680    -0.8174960    -0.8181390
  H        2.6849400     0.6290660    -0.0366100
  H        2.0280600    -0.6855490     0.9457650
  H       -2.0245490     0.7030766     0.6572438
units angstrom
no_reorient  #important for SAPT in psi4, default
symmetry c1  #important for SAPT in psi4, default
}

set PROPERTIES_ORIGIN ["COM"]
properties('MP2/aug-cc-pvtz', properties = ['dipole'])
--------------------------------------------------------------------------

    Molecular point group: c1
  Charge       = 0
  Multiplicity = 1
  Basis Set: AUG-CC-PVTZ
    Blend: AUG-CC-PVTZ
  Basis Set: (AUG-CC-PVTZ AUX)
    Blend: AUG-CC-PVTZ-JKFIT

    Orbital Energies [Eh]
    ---------------------

    Doubly Occupied:

       1A    -20.555019     2A    -11.272847     3A    -11.224103
       4A    -11.219792     5A     -1.350903     6A     -1.052614
       7A     -0.916296     8A     -0.816301     9A     -0.686252
      10A     -0.633610    11A     -0.595564    12A     -0.584564
      13A     -0.548258    14A     -0.501578    15A     -0.498267
      16A     -0.474401    17A     -0.433235

  @DF-RHF Final Energy:  -193.19148684914239

   => Energetics <=

    Nuclear Repulsion Energy =            130.0092101278822554
    One-Electron Energy =                -519.6741860976782164
    Two-Electron Energy =                 196.4734891206535394
    Total Energy =                       -193.1914868491423931
  Basis Set: (AUG-CC-PVTZ AUX)
    Blend: AUG-CC-PVTZ-RI
    Molecular point group: c1

    Geometry (in Angstrom), charge = 0, multiplicity = 1:

       Center              X                  Y                   Z               Mass
    ------------   -----------------  -----------------  -----------------  -----------------
         O           -1.830785205719     0.093311417125    -0.073839229827    15.994914619570
         C            0.587790794281     0.522972417125    -0.027503229827    12.000000000000
         C           -0.540760605719    -0.513218082875     0.023416370173    12.000000000000
         C            1.969087794281    -0.123492582875     0.032139770173    12.000000000000
         H            0.469612794281     1.095330417125    -0.953462229827     1.007825032230
         H            0.475850794281     1.235147417125     0.801177770173     1.007825032230
         H           -0.464257205719    -1.199303582875    -0.793589229827     1.007825032230
         H           -0.455074205719    -1.088271582875     0.971231770173     1.007825032230
         H            2.111434794281    -0.817160582875    -0.802078229827     1.007825032230
         H            2.759706794281     0.629401417125    -0.020549229827     1.007825032230
         H            2.102826794281    -0.685213582875     0.961825770173     1.007825032230
         H           -1.949782205719     0.703412017125     0.673304570173     1.007825032230

  Basis Set: AUG-CC-PVTZ
    Blend: AUG-CC-PVTZ
  Basis Set: (AUG-CC-PVTZ AUX)
    Blend: AUG-CC-PVTZ-JKFIT
	 Reference Energy          =    -193.1914868491423931 [Eh]
	 Singles Energy            =      -0.0000000000000000 [Eh]
	 Same-Spin Energy          =      -0.1904198439328598 [Eh]
	 Opposite-Spin Energy      =      -0.6716339245002620 [Eh]
	 Correlation Energy        =      -0.8620537684331218 [Eh]
	 Total Energy              =    -194.0535406175755213 [Eh]

	 ================> DF-SCS-MP2 Energies <==================
	-----------------------------------------------------------
	 SCS Same-Spin Scale       =       0.3333333333333333 [-]
	 SCS Opposite-Spin Scale   =       1.2000000000000000 [-]
	 SCS Same-Spin Energy      =      -0.0634732813109533 [Eh]
	 SCS Opposite-Spin Energy  =      -0.8059607094003144 [Eh]
	 SCS Correlation Energy    =      -0.8694339907112676 [Eh]
	 SCS Total Energy          =    -194.0609208398536509 [Eh]
	-----------------------------------------------------------

  Dipole Moment: [D]
     X:     1.3288      Y:     0.3580      Z:     1.1027     Total:     1.7634

*** Psi4 exiting successfully. Buy a developer a beer!
