                               Psi4 1.3.2 release

  ==> Input File <==

--------------------------------------------------------------------------
#psi4
#
memory 32 gb

molecule  {
0 1
  O       -1.9055520     0.0929760    -0.0899000
  C        0.5130240     0.5226370    -0.0435640
  C       -0.7923987    -0.4174660     0.0116610
  C        1.8943210    -0.1238280     0.0160790
  H        0.3948460     1.0949950    -0.9695230
  H        0.4010840     1.2348120     0.7851170
  H       -0.5390240    -1.1996390    -0.8096500
  H       -0.5298410    -1.0886070     0.9551710
  H        2.0366680    -0.8174960    -0.8181390
  H        2.6849400     0.6290660    -0.0366100
  H        2.0280600    -0.6855490     0.9457650
  H       -2.0090520     0.6990260     0.6628270
units angstrom
no_reorient  #important for SAPT in psi4, default
symmetry c1  #important for SAPT in psi4, default
}

set PROPERTIES_ORIGIN ["COM"]
properties('MP2/aug-cc-pvtz', properties = ['dipole'])
--------------------------------------------------------------------------

    Molecular point group: c1
  Charge       = 0
  Multiplicity = 1
  Basis Set: AUG-CC-PVTZ
    Blend: AUG-CC-PVTZ
  Basis Set: (AUG-CC-PVTZ AUX)
    Blend: AUG-CC-PVTZ-JKFIT

    Orbital Energies [Eh]
    ---------------------

    Doubly Occupied:

       1A    -20.581104     2A    -11.283666     3A    -11.219311
       4A    -11.217328     5A     -1.458084     6A     -1.034081
       7A     -0.907845     8A     -0.825640     9A     -0.720179
      10A     -0.664217    11A     -0.633858    12A     -0.596058
      13A     -0.551352    14A     -0.504095    15A     -0.493934
      16A     -0.434938    17A     -0.395007

  @DF-RHF Final Energy:  -193.14727390241069

   => Energetics <=

    Nuclear Repulsion Energy =            131.4398464260607966
    One-Electron Energy =                -522.1328476453857093
    Two-Electron Energy =                 197.5457273169142240
    Total Energy =                       -193.1472739024106886
  Basis Set: (AUG-CC-PVTZ AUX)
    Blend: AUG-CC-PVTZ-RI
    Molecular point group: c1

    Geometry (in Angstrom), charge = 0, multiplicity = 1:

       Center              X                  Y                   Z               Mass
    ------------   -----------------  -----------------  -----------------  -----------------
         O           -1.795704877474     0.074180294129    -0.074793176870    15.994914619570
         C            0.622871122526     0.503841294129    -0.028457176870    12.000000000000
         C           -0.682551577474    -0.436261705871     0.026767823130    12.000000000000
         C            2.004168122526    -0.142623705871     0.031185823130    12.000000000000
         H            0.504693122526     1.076199294129    -0.954416176870     1.007825032230
         H            0.510931122526     1.216016294129     0.800223823130     1.007825032230
         H           -0.429176877474    -1.218434705871    -0.794543176870     1.007825032230
         H           -0.419993877474    -1.107402705871     0.970277823130     1.007825032230
         H            2.146515122526    -0.836291705871    -0.803032176870     1.007825032230
         H            2.794787122526     0.610270294129    -0.021503176870     1.007825032230
         H            2.137907122526    -0.704344705871     0.960871823130     1.007825032230
         H           -1.899204877474     0.680230294129     0.677933823130     1.007825032230

  Basis Set: AUG-CC-PVTZ
    Blend: AUG-CC-PVTZ
  Basis Set: (AUG-CC-PVTZ AUX)
    Blend: AUG-CC-PVTZ-JKFIT
	 Reference Energy          =    -193.1472739024106886 [Eh]
	 Singles Energy            =      -0.0000000000000000 [Eh]
	 Same-Spin Energy          =      -0.1913606826255063 [Eh]
	 Opposite-Spin Energy      =      -0.6709530173553462 [Eh]
	 Correlation Energy        =      -0.8623136999808525 [Eh]
	 Total Energy              =    -194.0095876023915480 [Eh]

	 ================> DF-SCS-MP2 Energies <==================
	-----------------------------------------------------------
	 SCS Same-Spin Scale       =       0.3333333333333333 [-]
	 SCS Opposite-Spin Scale   =       1.2000000000000000 [-]
	 SCS Same-Spin Energy      =      -0.0637868942085021 [Eh]
	 SCS Opposite-Spin Energy  =      -0.8051436208264154 [Eh]
	 SCS Correlation Energy    =      -0.8689305150349176 [Eh]
	 SCS Total Energy          =    -194.0162044174456071 [Eh]
	-----------------------------------------------------------

  Dipole Moment: [D]
     X:     0.4717      Y:     0.7356      Z:     1.0480     Total:     1.3645

*** Psi4 exiting successfully. Buy a developer a beer!
