                               Psi4 1.3.2 release

  ==> Input File <==

--------------------------------------------------------------------------
#psi4
#
memory 32 gb

molecule  {
0 1
  O       -1.9136173     0.0652074    -0.1305339
  C        0.5130240     0.5226370    -0.0435640
  C       -0.6112230    -0.5005450     0.0281910
  C        1.8943210    -0.1238280     0.0160790
  H        0.3948460     1.0949950    -0.9695230
  H        0.4010840     1.2348120     0.7851170
  H       -0.5742089    -1.1894100    -0.8203476
  H       -0.5298410    -1.0886070     0.9551710
  H        2.0366680    -0.8174960    -0.8181390
  H        2.6849400     0.6290660    -0.0366100
  H        2.0280600    -0.6855490     0.9457650
  H       -2.0090520     0.6990260     0.6628270
units angstrom
no_reorient  #important for SAPT in psi4, default
symmetry c1  #important for SAPT in psi4, default
}

set PROPERTIES_ORIGIN ["COM"]
properties('MP2/aug-cc-pvtz', properties = ['dipole'])
--------------------------------------------------------------------------

    Molecular point group: c1
  Charge       = 0
  Multiplicity = 1
  Basis Set: AUG-CC-PVTZ
    Blend: AUG-CC-PVTZ
  Basis Set: (AUG-CC-PVTZ AUX)
    Blend: AUG-CC-PVTZ-JKFIT

    Orbital Energies [Eh]
    ---------------------

    Doubly Occupied:

       1A    -20.561792     2A    -11.271989     3A    -11.224846
       4A    -11.220684     5A     -1.344865     6A     -1.053576
       7A     -0.912869     8A     -0.813771     9A     -0.684734
      10A     -0.624901    11A     -0.595716    12A     -0.587165
      13A     -0.540583    14A     -0.502003    15A     -0.501315
      16A     -0.472557    17A     -0.437305

  @DF-RHF Final Energy:  -193.18551840295785

   => Energetics <=

    Nuclear Repulsion Energy =            129.8524303669787514
    One-Electron Energy =                -519.3745599809437863
    Two-Electron Energy =                 196.3366112110071811
    Total Energy =                       -193.1855184029578538
  Basis Set: (AUG-CC-PVTZ AUX)
    Blend: AUG-CC-PVTZ-RI
    Molecular point group: c1

    Geometry (in Angstrom), charge = 0, multiplicity = 1:

       Center              X                  Y                   Z               Mass
    ------------   -----------------  -----------------  -----------------  -----------------
         O           -1.837232174632     0.070235446190    -0.107728505406    15.994914619570
         C            0.589409125368     0.527665046190    -0.020758605406    12.000000000000
         C           -0.534837874632    -0.495516953810     0.050996394594    12.000000000000
         C            1.970706125368    -0.118799953810     0.038884394594    12.000000000000
         H            0.471231125368     1.100023046190    -0.946717605406     1.007825032230
         H            0.477469125368     1.239840046190     0.807922394594     1.007825032230
         H           -0.497823774632    -1.184381953810    -0.797542205406     1.007825032230
         H           -0.453455874632    -1.083578953810     0.977976394594     1.007825032230
         H            2.113053125368    -0.812467953810    -0.795333605406     1.007825032230
         H            2.761325125368     0.634094046190    -0.013804605406     1.007825032230
         H            2.104445125368    -0.680520953810     0.968570394594     1.007825032230
         H           -1.932666874632     0.704054046190     0.685632394594     1.007825032230

  Basis Set: AUG-CC-PVTZ
    Blend: AUG-CC-PVTZ
  Basis Set: (AUG-CC-PVTZ AUX)
    Blend: AUG-CC-PVTZ-JKFIT
	 Reference Energy          =    -193.1855184029578538 [Eh]
	 Singles Energy            =      -0.0000000000000000 [Eh]
	 Same-Spin Energy          =      -0.1912881534371620 [Eh]
	 Opposite-Spin Energy      =      -0.6738123404164801 [Eh]
	 Correlation Energy        =      -0.8651004938536422 [Eh]
	 Total Energy              =    -194.0506188968114998 [Eh]

	 ================> DF-SCS-MP2 Energies <==================
	-----------------------------------------------------------
	 SCS Same-Spin Scale       =       0.3333333333333333 [-]
	 SCS Opposite-Spin Scale   =       1.2000000000000000 [-]
	 SCS Same-Spin Energy      =      -0.0637627178123873 [Eh]
	 SCS Opposite-Spin Energy  =      -0.8085748084997760 [Eh]
	 SCS Correlation Energy    =      -0.8723375263121633 [Eh]
	 SCS Total Energy          =    -194.0578559292700049 [Eh]
	-----------------------------------------------------------

  Dipole Moment: [D]
     X:     1.3608      Y:     0.4094      Z:     1.1749     Total:     1.8439

*** Psi4 exiting successfully. Buy a developer a beer!
