                               Psi4 1.3.2 release

  ==> Input File <==

--------------------------------------------------------------------------
#psi4
#
memory 32 gb

molecule  {
0 1
  O       -1.9055520     0.0929760    -0.0899000
  C        0.5130240     0.5226370    -0.0435640
  C       -0.6463325    -0.4608218     0.0248665
  C        1.9161338    -0.0753592     0.0124648
  H        0.3948460     1.0949950    -0.9695230
  H        0.4010840     1.2348120     0.7851170
  H       -0.5390240    -1.1996390    -0.8096500
  H       -0.5298410    -1.0886070     0.9551710
  H        2.0366680    -0.8174960    -0.8181390
  H        2.6849400     0.6290660    -0.0366100
  H        2.0280600    -0.6855490     0.9457650
  H       -2.0090520     0.6990260     0.6628270
units angstrom
no_reorient  #important for SAPT in psi4, default
symmetry c1  #important for SAPT in psi4, default
}

set PROPERTIES_ORIGIN ["COM"]
properties('MP2/aug-cc-pvtz', properties = ['dipole'])
--------------------------------------------------------------------------

    Molecular point group: c1
  Charge       = 0
  Multiplicity = 1
  Basis Set: AUG-CC-PVTZ
    Blend: AUG-CC-PVTZ
  Basis Set: (AUG-CC-PVTZ AUX)
    Blend: AUG-CC-PVTZ-JKFIT

    Orbital Energies [Eh]
    ---------------------

    Doubly Occupied:

       1A    -20.563268     2A    -11.275980     3A    -11.223096
       4A    -11.220938     5A     -1.374842     6A     -1.051720
       7A     -0.915955     8A     -0.814365     9A     -0.694768
      10A     -0.635007    11A     -0.606738    12A     -0.589117
      13A     -0.556112    14A     -0.498475    15A     -0.493357
      16A     -0.462527    17A     -0.434585

  @DF-RHF Final Energy:  -193.18580589108061

   => Energetics <=

    Nuclear Repulsion Energy =            130.4327887896516529
    One-Electron Energy =                -520.4154904876874070
    Two-Electron Energy =                 196.7968958069551206
    Total Energy =                       -193.1858058910806051
  Basis Set: (AUG-CC-PVTZ AUX)
    Blend: AUG-CC-PVTZ-RI
    Molecular point group: c1

    Geometry (in Angstrom), charge = 0, multiplicity = 1:

       Center              X                  Y                   Z               Mass
    ------------   -----------------  -----------------  -----------------  -----------------
         O           -1.829248523163     0.073158673436    -0.076709599822    15.994914619570
         C            0.589327476837     0.502819673436    -0.030373599822    12.000000000000
         C           -0.570029023163    -0.480639126564     0.038056900178    12.000000000000
         C            1.992437276837    -0.095176526564     0.025655200178    12.000000000000
         H            0.471149476837     1.075177673436    -0.956332599822     1.007825032230
         H            0.477387476837     1.214994673436     0.798307400178     1.007825032230
         H           -0.462720523163    -1.219456326564    -0.796459599822     1.007825032230
         H           -0.453537523163    -1.108424326564     0.968361400178     1.007825032230
         H            2.112971476837    -0.837313326564    -0.804948599822     1.007825032230
         H            2.761243476837     0.609248673436    -0.023419599822     1.007825032230
         H            2.104363476837    -0.705366326564     0.958955400178     1.007825032230
         H           -1.932748523163     0.679208673436     0.676017400178     1.007825032230

  Basis Set: AUG-CC-PVTZ
    Blend: AUG-CC-PVTZ
  Basis Set: (AUG-CC-PVTZ AUX)
    Blend: AUG-CC-PVTZ-JKFIT
	 Reference Energy          =    -193.1858058910806051 [Eh]
	 Singles Energy            =      -0.0000000000000000 [Eh]
	 Same-Spin Energy          =      -0.1907189027324583 [Eh]
	 Opposite-Spin Energy      =      -0.6715854616407544 [Eh]
	 Correlation Energy        =      -0.8623043643732127 [Eh]
	 Total Energy              =    -194.0481102554538211 [Eh]

	 ================> DF-SCS-MP2 Energies <==================
	-----------------------------------------------------------
	 SCS Same-Spin Scale       =       0.3333333333333333 [-]
	 SCS Opposite-Spin Scale   =       1.2000000000000000 [-]
	 SCS Same-Spin Energy      =      -0.0635729675774861 [Eh]
	 SCS Opposite-Spin Energy  =      -0.8059025539689052 [Eh]
	 SCS Correlation Energy    =      -0.8694755215463913 [Eh]
	 SCS Total Energy          =    -194.0552814126269823 [Eh]
	-----------------------------------------------------------

  Dipole Moment: [D]
     X:     1.1800      Y:     0.4792      Z:     1.1131     Total:     1.6914

*** Psi4 exiting successfully. Buy a developer a beer!
