                               Psi4 1.4a3.dev225

  ==> Input File <==

--------------------------------------------------------------------------
#psi4
#
memory 32 gb

molecule  {
0 1
  O       -1.9047240     0.0931460    -0.0908470
  C        0.5131690     0.5241710    -0.0433670
  C       -0.6108050    -0.4994090     0.0275160
  C        1.8936320    -0.1245310     0.0161890
  H        0.3957570     1.0975960    -0.9686090
  H        0.4007840     1.2346420     0.7863210
  H       -0.5374450    -1.1984960    -0.8102130
  H       -0.5284920    -1.0877010     0.9544070
  H        2.0362220    -0.8155520    -0.8201750
  H        2.6863420     0.6265150    -0.0317980
  H        2.0238630    -0.6901790     0.9440150
  H       -2.0095248     0.6560854     0.6316172
units angstrom
no_reorient  #important for SAPT in psi4, default
symmetry c1  #important for SAPT in psi4, default
}

set PROPERTIES_ORIGIN ["COM"]
properties('MP2/aug-cc-pvtz', properties = ['dipole'])
--------------------------------------------------------------------------

    Molecular point group: c1
  Charge       = 0
  Multiplicity = 1
  Basis Set: AUG-CC-PVTZ
    Blend: AUG-CC-PVTZ
  Basis Set: (AUG-CC-PVTZ AUX)
    Blend: AUG-CC-PVTZ-JKFIT

    Orbital Energies [Eh]
    ---------------------

    Doubly Occupied:

       1A    -20.551423     2A    -11.273314     3A    -11.224152
       4A    -11.220407     5A     -1.364842     6A     -1.055422
       7A     -0.918715     8A     -0.817491     9A     -0.695828
      10A     -0.633785    11A     -0.597675    12A     -0.587846
      13A     -0.545785    14A     -0.502383    15A     -0.501662
      16A     -0.473122    17A     -0.438196

  @DF-RHF Final Energy:  -193.19242725518541

   => Energetics <=

    Nuclear Repulsion Energy =            130.4391702261504804
    One-Electron Energy =                -520.4590962977873687
    Two-Electron Energy =                 196.8274988164514525
    Total Energy =                       -193.1924272551854074
  Basis Set: (AUG-CC-PVTZ AUX)
    Blend: AUG-CC-PVTZ-RI
    Molecular point group: c1

    Geometry (in Angstrom), charge = 0, multiplicity = 1:

       Center              X                  Y                   Z               Mass
    ------------   -----------------  -----------------  -----------------  -----------------
         O           -1.831269725662     0.091245172342    -0.078224029499    15.994914619570
         C            0.586623274338     0.522270172342    -0.030744029499    12.000000000000
         C           -0.537350725662    -0.501309827658     0.040138970501    12.000000000000
         C            1.967086274338    -0.126431827658     0.028811970501    12.000000000000
         H            0.469211274338     1.095695172342    -0.955986029499     1.007825032230
         H            0.474238274338     1.232741172342     0.798943970501     1.007825032230
         H           -0.463990725662    -1.200396827658    -0.797590029499     1.007825032230
         H           -0.455037725662    -1.089601827658     0.967029970501     1.007825032230
         H            2.109676274338    -0.817452827658    -0.807552029499     1.007825032230
         H            2.759796274338     0.624614172342    -0.019175029499     1.007825032230
         H            2.097317274338    -0.692079827658     0.956637970501     1.007825032230
         H           -1.936070525662     0.654184572342     0.644240170501     1.007825032230

  Basis Set: AUG-CC-PVTZ
    Blend: AUG-CC-PVTZ
  Basis Set: (AUG-CC-PVTZ AUX)
    Blend: AUG-CC-PVTZ-JKFIT
	 Reference Energy          =    -193.1924272551854074 [Eh]
	 Singles Energy            =      -0.0000000000000000 [Eh]
	 Same-Spin Energy          =      -0.1900286187135838 [Eh]
	 Opposite-Spin Energy      =      -0.6704025376490933 [Eh]
	 Correlation Energy        =      -0.8604311563626772 [Eh]
	 Total Energy              =    -194.0528584115480726 [Eh]

	 ================> DF-SCS-MP2 Energies <==================
	-----------------------------------------------------------
	 SCS Same-Spin Scale       =       0.3333333333333333 [-]
	 SCS Opposite-Spin Scale   =       1.2000000000000000 [-]
	 SCS Same-Spin Energy      =      -0.0633428729045279 [Eh]
	 SCS Opposite-Spin Energy  =      -0.8044830451789119 [Eh]
	 SCS Correlation Energy    =      -0.8678259180834398 [Eh]
	 SCS Total Energy          =    -194.0602531732688476 [Eh]
	-----------------------------------------------------------

  Dipole Moment: [D]
     X:     1.3582      Y:     0.3259      Z:     1.1201     Total:     1.7904

*** Psi4 exiting successfully. Buy a developer a beer!
