                               Psi4 1.3.2 release

  ==> Input File <==

--------------------------------------------------------------------------
#psi4
#
memory 32 gb

molecule  {
0 1
  O       -1.9055520     0.0929760    -0.0899000
  C        0.5130240     0.5226370    -0.0435640
  C       -0.4300473    -0.5836240     0.0447210
  C        1.8943210    -0.1238280     0.0160790
  H        0.3948460     1.0949950    -0.9695230
  H        0.4010840     1.2348120     0.7851170
  H       -0.5390240    -1.1996390    -0.8096500
  H       -0.5298410    -1.0886070     0.9551710
  H        2.0366680    -0.8174960    -0.8181390
  H        2.6849400     0.6290660    -0.0366100
  H        2.0280600    -0.6855490     0.9457650
  H       -2.0090520     0.6990260     0.6628270
units angstrom
no_reorient  #important for SAPT in psi4, default
symmetry c1  #important for SAPT in psi4, default
}

set PROPERTIES_ORIGIN ["COM"]
properties('MP2/aug-cc-pvtz', properties = ['dipole'])
--------------------------------------------------------------------------

    Molecular point group: c1
  Charge       = 0
  Multiplicity = 1
  Basis Set: AUG-CC-PVTZ
    Blend: AUG-CC-PVTZ
  Basis Set: (AUG-CC-PVTZ AUX)
    Blend: AUG-CC-PVTZ-JKFIT

    Orbital Energies [Eh]
    ---------------------

    Doubly Occupied:

       1A    -20.531507     2A    -11.278610     3A    -11.229673
       4A    -11.224724     5A     -1.287061     6A     -1.077930
       7A     -0.924538     8A     -0.823192     9A     -0.681429
      10A     -0.626260    11A     -0.593133    12A     -0.566296
      13A     -0.545556    14A     -0.516855    15A     -0.492020
      16A     -0.462731    17A     -0.439408

  @DF-RHF Final Energy:  -193.16032162930108

   => Energetics <=

    Nuclear Repulsion Energy =            129.3526408593029657
    One-Electron Energy =                -518.4240751089291734
    Two-Electron Energy =                 195.9111126203251558
    Total Energy =                       -193.1603216293010803
  Basis Set: (AUG-CC-PVTZ AUX)
    Blend: AUG-CC-PVTZ-RI
    Molecular point group: c1

    Geometry (in Angstrom), charge = 0, multiplicity = 1:

       Center              X                  Y                   Z               Mass
    ------------   -----------------  -----------------  -----------------  -----------------
         O           -1.868105755347     0.107380069446    -0.081398844800    15.994914619570
         C            0.550470244653     0.537041069446    -0.035062844800    12.000000000000
         C           -0.392601055347    -0.569219930554     0.053222155200    12.000000000000
         C            1.931767244653    -0.109423930554     0.024580155200    12.000000000000
         H            0.432292244653     1.109399069446    -0.961021844800     1.007825032230
         H            0.438530244653     1.249216069446     0.793618155200     1.007825032230
         H           -0.501577755347    -1.185234930554    -0.801148844800     1.007825032230
         H           -0.492394755347    -1.074202930554     0.963672155200     1.007825032230
         H            2.074114244653    -0.803091930554    -0.809637844800     1.007825032230
         H            2.722386244653     0.643470069446    -0.028108844800     1.007825032230
         H            2.065506244653    -0.671144930554     0.954266155200     1.007825032230
         H           -1.971605755347     0.713430069446     0.671328155200     1.007825032230

  Basis Set: AUG-CC-PVTZ
    Blend: AUG-CC-PVTZ
  Basis Set: (AUG-CC-PVTZ AUX)
    Blend: AUG-CC-PVTZ-JKFIT
	 Reference Energy          =    -193.1603216293010803 [Eh]
	 Singles Energy            =      -0.0000000000000000 [Eh]
	 Same-Spin Energy          =      -0.1922540767654716 [Eh]
	 Opposite-Spin Energy      =      -0.6769346163354548 [Eh]
	 Correlation Energy        =      -0.8691886931009264 [Eh]
	 Total Energy              =    -194.0295103224020181 [Eh]

	 ================> DF-SCS-MP2 Energies <==================
	-----------------------------------------------------------
	 SCS Same-Spin Scale       =       0.3333333333333333 [-]
	 SCS Opposite-Spin Scale   =       1.2000000000000000 [-]
	 SCS Same-Spin Energy      =      -0.0640846922551572 [Eh]
	 SCS Opposite-Spin Energy  =      -0.8123215396025457 [Eh]
	 SCS Correlation Energy    =      -0.8764062318577029 [Eh]
	 SCS Total Energy          =    -194.0367278611587949 [Eh]
	-----------------------------------------------------------

  Dipole Moment: [D]
     X:     2.0522      Y:     0.1550      Z:     1.1458     Total:     2.3555

*** Psi4 exiting successfully. Buy a developer a beer!
