                               Psi4 1.3.2 release

  ==> Input File <==

--------------------------------------------------------------------------
#psi4
#
memory 32 gb

molecule  {
0 1
  C       -1.1305119     0.2078742     0.0000058
  S        0.6615660    -0.0865840     0.0000000
  H        0.8972680     1.2330000     0.0000410
  H       -1.5244520     0.5227560    -0.8922320
  H       -1.5245050    -1.0058990    -0.0005000
  H       -1.5245280     0.5218550     0.8927100
units angstrom
no_reorient  #important for SAPT in psi4, default
symmetry c1  #important for SAPT in psi4, default
}

set PROPERTIES_ORIGIN ["COM"]
properties('MP2/aug-cc-pvtz', properties = ['dipole'])
--------------------------------------------------------------------------

    Molecular point group: c1
  Charge       = 0
  Multiplicity = 1
  Basis Set: AUG-CC-PVTZ
    Blend: AUG-CC-PVTZ
  Basis Set: (AUG-CC-PVTZ AUX)
    Blend: AUG-CC-PVTZ-JKFIT

    Orbital Energies [Eh]
    ---------------------

    Doubly Occupied:

       1A    -91.958356     2A    -11.263380     3A     -8.958983
       4A     -6.640298     5A     -6.639202     6A     -6.638135
       7A     -1.039367     8A     -0.868865     9A     -0.634037
      10A     -0.586243    11A     -0.489086    12A     -0.461303
      13A     -0.364062

  @DF-RHF Final Energy:  -437.72655718377564

   => Energetics <=

    Nuclear Repulsion Energy =             56.3345009474349823
    One-Electron Energy =                -715.0394828922752595
    Two-Electron Energy =                 220.9784247610646446
    Total Energy =                       -437.7265571837756397
  Basis Set: (AUG-CC-PVTZ AUX)
    Blend: AUG-CC-PVTZ-RI
    Molecular point group: c1

    Geometry (in Angstrom), charge = 0, multiplicity = 1:

       Center              X                  Y                   Z               Mass
    ------------   -----------------  -----------------  -----------------  -----------------
         C           -1.211350158162     0.186878095988     0.000003951199    12.000000000000
         S            0.580727741838    -0.107580104012    -0.000001848801    31.972071174400
         H            0.816429741838     1.212003895988     0.000039151199     1.007825032230
         H           -1.605290258162     0.501759895988    -0.892233848801     1.007825032230
         H           -1.605343258162    -1.026895104012    -0.000501848801     1.007825032230
         H           -1.605366258162     0.500858895988     0.892708151199     1.007825032230

  Basis Set: AUG-CC-PVTZ
    Blend: AUG-CC-PVTZ
  Basis Set: (AUG-CC-PVTZ AUX)
    Blend: AUG-CC-PVTZ-JKFIT
	 Reference Energy          =    -437.7265571837756397 [Eh]
	 Singles Energy            =      -0.0000000000000000 [Eh]
	 Same-Spin Energy          =      -0.0945835490593605 [Eh]
	 Opposite-Spin Energy      =      -0.3373073937436650 [Eh]
	 Correlation Energy        =      -0.4318909428030255 [Eh]
	 Total Energy              =    -438.1584481265786621 [Eh]

	 ================> DF-SCS-MP2 Energies <==================
	-----------------------------------------------------------
	 SCS Same-Spin Scale       =       0.3333333333333333 [-]
	 SCS Opposite-Spin Scale   =       1.2000000000000000 [-]
	 SCS Same-Spin Energy      =      -0.0315278496864535 [Eh]
	 SCS Opposite-Spin Energy  =      -0.4047688724923980 [Eh]
	 SCS Correlation Energy    =      -0.4362967221788515 [Eh]
	 SCS Total Energy          =    -438.1628539059544778 [Eh]
	-----------------------------------------------------------

  Dipole Moment: [D]
     X:    -1.2091      Y:     0.7842      Z:     0.0000     Total:     1.4411

*** Psi4 exiting successfully. Buy a developer a beer!
