                               Psi4 1.4a3.dev225

  ==> Input File <==

--------------------------------------------------------------------------
#psi4
#
memory 32 gb

molecule  {
0 1
  C       -1.1514980     0.0189760     0.0000000
  S        0.6615760    -0.0865720     0.0000000
  H        0.9005937     1.2527469     0.0000010
  H       -1.5245560     0.5221240    -0.8925240
  H       -1.5241930    -1.0059720    -0.0000190
  H       -1.5245560     0.5220900     0.8925430
units angstrom
no_reorient  #important for SAPT in psi4, default
symmetry c1  #important for SAPT in psi4, default
}

set PROPERTIES_ORIGIN ["COM"]
properties('MP2/aug-cc-pvtz', properties = ['dipole'])
--------------------------------------------------------------------------

    Molecular point group: c1
  Charge       = 0
  Multiplicity = 1
  Basis Set: AUG-CC-PVTZ
    Blend: AUG-CC-PVTZ
  Basis Set: (AUG-CC-PVTZ AUX)
    Blend: AUG-CC-PVTZ-JKFIT

    Orbital Energies [Eh]
    ---------------------

    Doubly Occupied:

       1A    -91.955626     2A    -11.259024     3A     -8.956188
       4A     -6.637528     5A     -6.636563     6A     -6.635508
       7A     -1.036287     8A     -0.864694     9A     -0.606494
      10A     -0.590953    11A     -0.526625    12A     -0.459648
      13A     -0.357475

  @DF-RHF Final Energy:  -437.75702613223154

   => Energetics <=

    Nuclear Repulsion Energy =             56.2196149462631354
    One-Electron Energy =                -714.9080540953273157
    Two-Electron Energy =                 220.9314130168325789
    Total Energy =                       -437.7570261322315446
  Basis Set: (AUG-CC-PVTZ AUX)
    Blend: AUG-CC-PVTZ-RI
    Molecular point group: c1

    Geometry (in Angstrom), charge = 0, multiplicity = 1:

       Center              X                  Y                   Z               Mass
    ------------   -----------------  -----------------  -----------------  -----------------
         C           -1.227170363760     0.044788420718    -0.000000020995    12.000000000000
         S            0.585903636240    -0.060759579282    -0.000000020995    31.972071174400
         H            0.824921336240     1.278559320718     0.000000979005     1.007825032230
         H           -1.600228363760     0.547936420718    -0.892524020995     1.007825032230
         H           -1.599865363760    -0.980159579282    -0.000019020995     1.007825032230
         H           -1.600228363760     0.547902420718     0.892542979005     1.007825032230

  Basis Set: AUG-CC-PVTZ
    Blend: AUG-CC-PVTZ
  Basis Set: (AUG-CC-PVTZ AUX)
    Blend: AUG-CC-PVTZ-JKFIT
	 Reference Energy          =    -437.7570261322315446 [Eh]
	 Singles Energy            =      -0.0000000000000000 [Eh]
	 Same-Spin Energy          =      -0.0936427251053293 [Eh]
	 Opposite-Spin Energy      =      -0.3349741944963987 [Eh]
	 Correlation Energy        =      -0.4286169196017280 [Eh]
	 Total Energy              =    -438.1856430518332672 [Eh]

	 ================> DF-SCS-MP2 Energies <==================
	-----------------------------------------------------------
	 SCS Same-Spin Scale       =       0.3333333333333333 [-]
	 SCS Opposite-Spin Scale   =       1.2000000000000000 [-]
	 SCS Same-Spin Energy      =      -0.0312142417017764 [Eh]
	 SCS Opposite-Spin Energy  =      -0.4019690333956784 [Eh]
	 SCS Correlation Energy    =      -0.4331832750974548 [Eh]
	 SCS Total Energy          =    -438.1902094073290073 [Eh]
	-----------------------------------------------------------

  Dipole Moment: [D]
     X:    -1.3340      Y:     0.7715      Z:     0.0000     Total:     1.5410

*** Psi4 exiting successfully. Buy a developer a beer!
