                               Psi4 1.3.2 release

  ==> Input File <==

--------------------------------------------------------------------------
#psi4
#
memory 32 gb

molecule  {
0 1
  C       -1.1514740     0.0189380     0.0000000
  S        0.8612281    -0.0982047     0.0000000
  H        0.8972680     1.2330000     0.0000410
  H       -1.5244520     0.5227560    -0.8922320
  H       -1.5245050    -1.0058990    -0.0005000
  H       -1.5245280     0.5218550     0.8927100
units angstrom
no_reorient  #important for SAPT in psi4, default
symmetry c1  #important for SAPT in psi4, default
}

set PROPERTIES_ORIGIN ["COM"]
properties('MP2/aug-cc-pvtz', properties = ['dipole'])
--------------------------------------------------------------------------

    Molecular point group: c1
  Charge       = 0
  Multiplicity = 1
  Basis Set: AUG-CC-PVTZ
    Blend: AUG-CC-PVTZ
  Basis Set: (AUG-CC-PVTZ AUX)
    Blend: AUG-CC-PVTZ-JKFIT

    Orbital Energies [Eh]
    ---------------------

    Doubly Occupied:

       1A    -91.961035     2A    -11.274538     3A     -8.959621
       4A     -6.640725     5A     -6.639749     6A     -6.638704
       7A     -1.002090     8A     -0.881489     9A     -0.594574
      10A     -0.585596    11A     -0.512487    12A     -0.452078
      13A     -0.362853

  @DF-RHF Final Energy:  -437.74297369115624

   => Energetics <=

    Nuclear Repulsion Energy =             52.8499342172787223
    One-Electron Energy =                -708.1747382419748646
    Two-Electron Energy =                 217.5818303335399264
    Total Energy =                       -437.7429736911562372
  Basis Set: (AUG-CC-PVTZ AUX)
    Blend: AUG-CC-PVTZ-RI
    Molecular point group: c1

    Geometry (in Angstrom), charge = 0, multiplicity = 1:

       Center              X                  Y                   Z               Mass
    ------------   -----------------  -----------------  -----------------  -----------------
         C           -1.360054654280     0.052912456927    -0.000000398903    12.000000000000
         S            0.652647445720    -0.064230243073    -0.000000398903    31.972071174400
         H            0.688687345720     1.266974456927     0.000040601097     1.007825032230
         H           -1.733032654280     0.556730456927    -0.892232398903     1.007825032230
         H           -1.733085654280    -0.971924543073    -0.000500398903     1.007825032230
         H           -1.733108654280     0.555829456927     0.892709601097     1.007825032230

  Basis Set: AUG-CC-PVTZ
    Blend: AUG-CC-PVTZ
  Basis Set: (AUG-CC-PVTZ AUX)
    Blend: AUG-CC-PVTZ-JKFIT
	 Reference Energy          =    -437.7429736911562372 [Eh]
	 Singles Energy            =      -0.0000000000000000 [Eh]
	 Same-Spin Energy          =      -0.0929684120148166 [Eh]
	 Opposite-Spin Energy      =      -0.3365288047924122 [Eh]
	 Correlation Energy        =      -0.4294972168072288 [Eh]
	 Total Energy              =    -438.1724709079634863 [Eh]

	 ================> DF-SCS-MP2 Energies <==================
	-----------------------------------------------------------
	 SCS Same-Spin Scale       =       0.3333333333333333 [-]
	 SCS Opposite-Spin Scale   =       1.2000000000000000 [-]
	 SCS Same-Spin Energy      =      -0.0309894706716055 [Eh]
	 SCS Opposite-Spin Energy  =      -0.4038345657508947 [Eh]
	 SCS Correlation Energy    =      -0.4348240364225002 [Eh]
	 SCS Total Energy          =    -438.1777977275787634 [Eh]
	-----------------------------------------------------------

  Dipole Moment: [D]
     X:    -1.4524      Y:     0.7245      Z:     0.0000     Total:     1.6231

*** Psi4 exiting successfully. Buy a developer a beer!
