                               Psi4 1.3.2 release

  ==> Input File <==

--------------------------------------------------------------------------
#psi4
#
memory 32 gb

molecule  {
0 1
  C       -1.1514740     0.0189380     0.0000000
  S        0.6606442    -0.0262835    -0.1114977
  H        0.8972680     1.2330000     0.0000410
  H       -1.5244520     0.5227560    -0.8922320
  H       -1.5245050    -1.0058990    -0.0005000
  H       -1.5245280     0.5218550     0.8927100
units angstrom
no_reorient  #important for SAPT in psi4, default
symmetry c1  #important for SAPT in psi4, default
}

set PROPERTIES_ORIGIN ["COM"]
properties('MP2/aug-cc-pvtz', properties = ['dipole'])
--------------------------------------------------------------------------

    Molecular point group: c1
  Charge       = 0
  Multiplicity = 1
  Basis Set: AUG-CC-PVTZ
    Blend: AUG-CC-PVTZ
  Basis Set: (AUG-CC-PVTZ AUX)
    Blend: AUG-CC-PVTZ-JKFIT

    Orbital Energies [Eh]
    ---------------------

    Doubly Occupied:

       1A    -91.949154     2A    -11.259439     3A     -8.951788
       4A     -6.633351     5A     -6.632195     6A     -6.631083
       7A     -1.040179     8A     -0.873696     9A     -0.608569
      10A     -0.591528    11A     -0.538911    12A     -0.457175
      13A     -0.356863

  @DF-RHF Final Energy:  -437.75582973568919

   => Energetics <=

    Nuclear Repulsion Energy =             56.5891874809411419
    One-Electron Energy =                -715.6421681683602856
    Two-Electron Energy =                 221.2971509517299467
    Total Energy =                       -437.7558297356891899
  Basis Set: (AUG-CC-PVTZ AUX)
    Blend: AUG-CC-PVTZ-RI
    Molecular point group: c1

    Geometry (in Angstrom), charge = 0, multiplicity = 1:

       Center              X                  Y                   Z               Mass
    ------------   -----------------  -----------------  -----------------  -----------------
         C           -1.226458147345     0.005010202087     0.074261310294    12.000000000000
         S            0.585660052655    -0.040211297913    -0.037236389706    31.972071174400
         H            0.822283852655     1.219072202087     0.074302310294     1.007825032230
         H           -1.599436147345     0.508828202087    -0.817970689706     1.007825032230
         H           -1.599489147345    -1.019826797913     0.073761310294     1.007825032230
         H           -1.599512147345     0.507927202087     0.966971310294     1.007825032230

  Basis Set: AUG-CC-PVTZ
    Blend: AUG-CC-PVTZ
  Basis Set: (AUG-CC-PVTZ AUX)
    Blend: AUG-CC-PVTZ-JKFIT
	 Reference Energy          =    -437.7558297356891899 [Eh]
	 Singles Energy            =      -0.0000000000000000 [Eh]
	 Same-Spin Energy          =      -0.0936336434010309 [Eh]
	 Opposite-Spin Energy      =      -0.3345502298756292 [Eh]
	 Correlation Energy        =      -0.4281838732766601 [Eh]
	 Total Energy              =    -438.1840136089658699 [Eh]

	 ================> DF-SCS-MP2 Energies <==================
	-----------------------------------------------------------
	 SCS Same-Spin Scale       =       0.3333333333333333 [-]
	 SCS Opposite-Spin Scale   =       1.2000000000000000 [-]
	 SCS Same-Spin Energy      =      -0.0312112144670103 [Eh]
	 SCS Opposite-Spin Energy  =      -0.4014602758507550 [Eh]
	 SCS Correlation Energy    =      -0.4326714903177653 [Eh]
	 SCS Total Energy          =    -438.1885012260069630 [Eh]
	-----------------------------------------------------------

  Dipole Moment: [D]
     X:    -1.3632      Y:     0.7610      Z:     0.1270     Total:     1.5663

*** Psi4 exiting successfully. Buy a developer a beer!
