                               Psi4 1.4a3.dev225

  ==> Input File <==

--------------------------------------------------------------------------
#psi4
#
memory 32 gb

molecule  {
0 1
  C       -1.1514980     0.0189760     0.0000000
  S        0.7114915    -0.0894778     0.0000000
  H        0.8970800     1.2330580     0.0000010
  H       -1.5245560     0.5221240    -0.8925240
  H       -1.5241930    -1.0059720    -0.0000190
  H       -1.5245560     0.5220900     0.8925430
units angstrom
no_reorient  #important for SAPT in psi4, default
symmetry c1  #important for SAPT in psi4, default
}

set PROPERTIES_ORIGIN ["COM"]
properties('MP2/aug-cc-pvtz', properties = ['dipole'])
--------------------------------------------------------------------------

    Molecular point group: c1
  Charge       = 0
  Multiplicity = 1
  Basis Set: AUG-CC-PVTZ
    Blend: AUG-CC-PVTZ
  Basis Set: (AUG-CC-PVTZ AUX)
    Blend: AUG-CC-PVTZ-JKFIT

    Orbital Energies [Eh]
    ---------------------

    Doubly Occupied:

       1A    -91.956121     2A    -11.262775     3A     -8.956432
       4A     -6.637751     5A     -6.636746     6A     -6.635703
       7A     -1.027000     8A     -0.870943     9A     -0.603298
      10A     -0.588655    11A     -0.522710    12A     -0.460732
      13A     -0.359398

  @DF-RHF Final Energy:  -437.75619400560237

   => Energetics <=

    Nuclear Repulsion Energy =             55.4020638301498138
    One-Electron Energy =                -713.2799852965968057
    Two-Electron Energy =                 220.1217274608446530
    Total Energy =                       -437.7561940056023104
  Basis Set: (AUG-CC-PVTZ AUX)
    Blend: AUG-CC-PVTZ-RI
    Molecular point group: c1

    Geometry (in Angstrom), charge = 0, multiplicity = 1:

       Center              X                  Y                   Z               Mass
    ------------   -----------------  -----------------  -----------------  -----------------
         C           -1.260342215667     0.047137160143    -0.000000020995    12.000000000000
         S            0.602647284333    -0.061316639857    -0.000000020995    31.972071174400
         H            0.788235784333     1.261219160143     0.000000979005     1.007825032230
         H           -1.633400215667     0.550285160143    -0.892524020995     1.007825032230
         H           -1.633037215667    -0.977810839857    -0.000019020995     1.007825032230
         H           -1.633400215667     0.550251160143     0.892542979005     1.007825032230

  Basis Set: AUG-CC-PVTZ
    Blend: AUG-CC-PVTZ
  Basis Set: (AUG-CC-PVTZ AUX)
    Blend: AUG-CC-PVTZ-JKFIT
	 Reference Energy          =    -437.7561940056023673 [Eh]
	 Singles Energy            =      -0.0000000000000000 [Eh]
	 Same-Spin Energy          =      -0.0934102000072093 [Eh]
	 Opposite-Spin Energy      =      -0.3351311828737734 [Eh]
	 Correlation Energy        =      -0.4285413828809826 [Eh]
	 Total Energy              =    -438.1847353884833751 [Eh]

	 ================> DF-SCS-MP2 Energies <==================
	-----------------------------------------------------------
	 SCS Same-Spin Scale       =       0.3333333333333333 [-]
	 SCS Opposite-Spin Scale   =       1.2000000000000000 [-]
	 SCS Same-Spin Energy      =      -0.0311367333357364 [Eh]
	 SCS Opposite-Spin Energy  =      -0.4021574194485280 [Eh]
	 SCS Correlation Energy    =      -0.4332941527842644 [Eh]
	 SCS Total Energy          =    -438.1894881583866095 [Eh]
	-----------------------------------------------------------

  Dipole Moment: [D]
     X:    -1.3528      Y:     0.7610      Z:     0.0000     Total:     1.5522

*** Psi4 exiting successfully. Buy a developer a beer!
