                               Psi4 1.4a3.dev225

  ==> Input File <==

--------------------------------------------------------------------------
#psi4
#
memory 32 gb

molecule  {
0 1
  C       -1.1514980     0.0189760     0.0000000
  S        0.6615760    -0.0865720     0.0000000
  H        0.8882957     1.1838357     0.0000010
  H       -1.5245560     0.5221240    -0.8925240
  H       -1.5241930    -1.0059720    -0.0000190
  H       -1.5245560     0.5220900     0.8925430
units angstrom
no_reorient  #important for SAPT in psi4, default
symmetry c1  #important for SAPT in psi4, default
}

set PROPERTIES_ORIGIN ["COM"]
properties('MP2/aug-cc-pvtz', properties = ['dipole'])
--------------------------------------------------------------------------

    Molecular point group: c1
  Charge       = 0
  Multiplicity = 1
  Basis Set: AUG-CC-PVTZ
    Blend: AUG-CC-PVTZ
  Basis Set: (AUG-CC-PVTZ AUX)
    Blend: AUG-CC-PVTZ-JKFIT

    Orbital Energies [Eh]
    ---------------------

    Doubly Occupied:

       1A    -91.949993     2A    -11.258857     3A     -8.952444
       4A     -6.633974     5A     -6.632821     6A     -6.631709
       7A     -1.040197     8A     -0.872465     9A     -0.609769
      10A     -0.590939    11A     -0.532584    12A     -0.461238
      13A     -0.357665

  @DF-RHF Final Energy:  -437.75665971502855

   => Energetics <=

    Nuclear Repulsion Energy =             56.5899017068623351
    One-Electron Energy =                -715.6438143365146516
    Two-Electron Energy =                 221.2972529146238116
    Total Energy =                       -437.7566597150285475
  Basis Set: (AUG-CC-PVTZ AUX)
    Blend: AUG-CC-PVTZ-RI
    Molecular point group: c1

    Geometry (in Angstrom), charge = 0, multiplicity = 1:

       Center              X                  Y                   Z               Mass
    ------------   -----------------  -----------------  -----------------  -----------------
         C           -1.226912168723     0.046235203110    -0.000000020995    12.000000000000
         S            0.586161831277    -0.059312796890    -0.000000020995    31.972071174400
         H            0.812881531277     1.211094903110     0.000000979005     1.007825032230
         H           -1.599970168723     0.549383203110    -0.892524020995     1.007825032230
         H           -1.599607168723    -0.978712796890    -0.000019020995     1.007825032230
         H           -1.599970168723     0.549349203110     0.892542979005     1.007825032230

  Basis Set: AUG-CC-PVTZ
    Blend: AUG-CC-PVTZ
  Basis Set: (AUG-CC-PVTZ AUX)
    Blend: AUG-CC-PVTZ-JKFIT
	 Reference Energy          =    -437.7566597150285475 [Eh]
	 Singles Energy            =      -0.0000000000000000 [Eh]
	 Same-Spin Energy          =      -0.0937075562635020 [Eh]
	 Opposite-Spin Energy      =      -0.3347026117965336 [Eh]
	 Correlation Energy        =      -0.4284101680600356 [Eh]
	 Total Energy              =    -438.1850698830886017 [Eh]

	 ================> DF-SCS-MP2 Energies <==================
	-----------------------------------------------------------
	 SCS Same-Spin Scale       =       0.3333333333333333 [-]
	 SCS Opposite-Spin Scale   =       1.2000000000000000 [-]
	 SCS Same-Spin Energy      =      -0.0312358520878340 [Eh]
	 SCS Opposite-Spin Energy  =      -0.4016431341558403 [Eh]
	 SCS Correlation Energy    =      -0.4328789862436743 [Eh]
	 SCS Total Energy          =    -438.1895387012722267 [Eh]
	-----------------------------------------------------------

  Dipole Moment: [D]
     X:    -1.3296      Y:     0.7794      Z:     0.0000     Total:     1.5412

*** Psi4 exiting successfully. Buy a developer a beer!
