                               Psi4 1.4a3.dev225

  ==> Input File <==

--------------------------------------------------------------------------
#psi4
#
memory 32 gb

molecule  {
0 1
  C       -1.1514980     0.0189760     0.0000000
  S        0.6815422    -0.0877343     0.0000000
  H        0.8970800     1.2330580     0.0000010
  H       -1.5245560     0.5221240    -0.8925240
  H       -1.5241930    -1.0059720    -0.0000190
  H       -1.5245560     0.5220900     0.8925430
units angstrom
no_reorient  #important for SAPT in psi4, default
symmetry c1  #important for SAPT in psi4, default
}

set PROPERTIES_ORIGIN ["COM"]
properties('MP2/aug-cc-pvtz', properties = ['dipole'])
--------------------------------------------------------------------------

    Molecular point group: c1
  Charge       = 0
  Multiplicity = 1
  Basis Set: AUG-CC-PVTZ
    Blend: AUG-CC-PVTZ
  Basis Set: (AUG-CC-PVTZ AUX)
    Blend: AUG-CC-PVTZ-JKFIT

    Orbital Energies [Eh]
    ---------------------

    Doubly Occupied:

       1A    -91.954917     2A    -11.260484     3A     -8.955663
       4A     -6.637022     5A     -6.636019     6A     -6.634961
       7A     -1.033039     8A     -0.868495     9A     -0.605684
      10A     -0.589942    11A     -0.525984    12A     -0.460577
      13A     -0.358315

  @DF-RHF Final Energy:  -437.75719483777112

   => Energetics <=

    Nuclear Repulsion Energy =             55.9492546194972107
    One-Electron Energy =                -714.3706928346161931
    Two-Electron Energy =                 220.6642433773478729
    Total Energy =                       -437.7571948377711237
  Basis Set: (AUG-CC-PVTZ AUX)
    Blend: AUG-CC-PVTZ-RI
    Molecular point group: c1

    Geometry (in Angstrom), charge = 0, multiplicity = 1:

       Center              X                  Y                   Z               Mass
    ------------   -----------------  -----------------  -----------------  -----------------
         C           -1.240394842696     0.045975922826    -0.000000020995    12.000000000000
         S            0.592645357304    -0.060734377174    -0.000000020995    31.972071174400
         H            0.808183157304     1.260057922826     0.000000979005     1.007825032230
         H           -1.613452842696     0.549123922826    -0.892524020995     1.007825032230
         H           -1.613089842696    -0.978972077174    -0.000019020995     1.007825032230
         H           -1.613452842696     0.549089922826     0.892542979005     1.007825032230

  Basis Set: AUG-CC-PVTZ
    Blend: AUG-CC-PVTZ
  Basis Set: (AUG-CC-PVTZ AUX)
    Blend: AUG-CC-PVTZ-JKFIT
	 Reference Energy          =    -437.7571948377711237 [Eh]
	 Singles Energy            =      -0.0000000000000000 [Eh]
	 Same-Spin Energy          =      -0.0935522918824771 [Eh]
	 Opposite-Spin Energy      =      -0.3349661136246835 [Eh]
	 Correlation Energy        =      -0.4285184055071606 [Eh]
	 Total Energy              =    -438.1857132432782578 [Eh]

	 ================> DF-SCS-MP2 Energies <==================
	-----------------------------------------------------------
	 SCS Same-Spin Scale       =       0.3333333333333333 [-]
	 SCS Opposite-Spin Scale   =       1.2000000000000000 [-]
	 SCS Same-Spin Energy      =      -0.0311840972941590 [Eh]
	 SCS Opposite-Spin Energy  =      -0.4019593363496202 [Eh]
	 SCS Correlation Energy    =      -0.4331434336437793 [Eh]
	 SCS Total Energy          =    -438.1903382714149302 [Eh]
	-----------------------------------------------------------

  Dipole Moment: [D]
     X:    -1.3398      Y:     0.7689      Z:     0.0000     Total:     1.5447

*** Psi4 exiting successfully. Buy a developer a beer!
