                               Psi4 1.3.2 release

  ==> Input File <==

--------------------------------------------------------------------------
#psi4
#
memory 32 gb

molecule  {
0 1
  C       -1.1544184    -0.1077903    -0.0000039
  S        0.6615660    -0.0865840     0.0000000
  H        0.8972680     1.2330000     0.0000410
  H       -1.5244520     0.5227560    -0.8922320
  H       -1.5245050    -1.0058990    -0.0005000
  H       -1.5245280     0.5218550     0.8927100
units angstrom
no_reorient  #important for SAPT in psi4, default
symmetry c1  #important for SAPT in psi4, default
}

set PROPERTIES_ORIGIN ["COM"]
properties('MP2/aug-cc-pvtz', properties = ['dipole'])
--------------------------------------------------------------------------

    Molecular point group: c1
  Charge       = 0
  Multiplicity = 1
  Basis Set: AUG-CC-PVTZ
    Blend: AUG-CC-PVTZ
  Basis Set: (AUG-CC-PVTZ AUX)
    Blend: AUG-CC-PVTZ-JKFIT

    Orbital Energies [Eh]
    ---------------------

    Doubly Occupied:

       1A    -91.953857     2A    -11.261432     3A     -8.954991
       4A     -6.636403     5A     -6.635508     6A     -6.634399
       7A     -1.039068     8A     -0.872856     9A     -0.625241
      10A     -0.559562    11A     -0.556256    12A     -0.450617
      13A     -0.352970

  @DF-RHF Final Energy:  -437.73852306077936

   => Energetics <=

    Nuclear Repulsion Energy =             56.3230698865621449
    One-Electron Energy =                -715.0568630294108061
    Two-Electron Energy =                 220.9952700820692542
    Total Energy =                       -437.7385230607793574
  Basis Set: (AUG-CC-PVTZ AUX)
    Blend: AUG-CC-PVTZ-RI
    Molecular point group: c1

    Geometry (in Angstrom), charge = 0, multiplicity = 1:

       Center              X                  Y                   Z               Mass
    ------------   -----------------  -----------------  -----------------  -----------------
         C           -1.229280452903    -0.049875821335    -0.000003323971    12.000000000000
         S            0.586703947097    -0.028669521335     0.000000576029    31.972071174400
         H            0.822405947097     1.290914478665     0.000041576029     1.007825032230
         H           -1.599314052903     0.580670478665    -0.892231423971     1.007825032230
         H           -1.599367052903    -0.947984521335    -0.000499423971     1.007825032230
         H           -1.599390052903     0.579769478665     0.892710576029     1.007825032230

  Basis Set: AUG-CC-PVTZ
    Blend: AUG-CC-PVTZ
  Basis Set: (AUG-CC-PVTZ AUX)
    Blend: AUG-CC-PVTZ-JKFIT
	 Reference Energy          =    -437.7385230607793574 [Eh]
	 Singles Energy            =      -0.0000000000000000 [Eh]
	 Same-Spin Energy          =      -0.0936010809086380 [Eh]
	 Opposite-Spin Energy      =      -0.3352091996401851 [Eh]
	 Correlation Energy        =      -0.4288102805488232 [Eh]
	 Total Energy              =    -438.1673333413281739 [Eh]

	 ================> DF-SCS-MP2 Energies <==================
	-----------------------------------------------------------
	 SCS Same-Spin Scale       =       0.3333333333333333 [-]
	 SCS Opposite-Spin Scale   =       1.2000000000000000 [-]
	 SCS Same-Spin Energy      =      -0.0312003603028793 [Eh]
	 SCS Opposite-Spin Energy  =      -0.4022510395682222 [Eh]
	 SCS Correlation Energy    =      -0.4334513998711015 [Eh]
	 SCS Total Energy          =    -438.1719744606504605 [Eh]
	-----------------------------------------------------------

  Dipole Moment: [D]
     X:    -1.3554      Y:     0.7962      Z:     0.0000     Total:     1.5720

*** Psi4 exiting successfully. Buy a developer a beer!
