                               Psi4 1.4a3.dev225

  ==> Input File <==

--------------------------------------------------------------------------
#psi4
#
memory 32 gb

molecule  {
0 1
  C       -1.1514980     0.0189760     0.0000000
  S        0.6116605    -0.0836662     0.0000000
  H        0.8970800     1.2330580     0.0000010
  H       -1.5245560     0.5221240    -0.8925240
  H       -1.5241930    -1.0059720    -0.0000190
  H       -1.5245560     0.5220900     0.8925430
units angstrom
no_reorient  #important for SAPT in psi4, default
symmetry c1  #important for SAPT in psi4, default
}

set PROPERTIES_ORIGIN ["COM"]
properties('MP2/aug-cc-pvtz', properties = ['dipole'])
--------------------------------------------------------------------------

    Molecular point group: c1
  Charge       = 0
  Multiplicity = 1
  Basis Set: AUG-CC-PVTZ
    Blend: AUG-CC-PVTZ
  Basis Set: (AUG-CC-PVTZ AUX)
    Blend: AUG-CC-PVTZ-JKFIT

    Orbital Energies [Eh]
    ---------------------

    Doubly Occupied:

       1A    -91.951769     2A    -11.255230     3A     -8.953701
       4A     -6.635163     5A     -6.634144     6A     -6.633036
       7A     -1.048741     8A     -0.862342     9A     -0.612042
      10A     -0.593977    11A     -0.534857    12A     -0.458048
      13A     -0.355194

  @DF-RHF Final Energy:  -437.75645870463370

   => Energetics <=

    Nuclear Repulsion Energy =             57.2821119867377178
    One-Electron Energy =                -717.0206506194130043
    Two-Electron Energy =                 221.9820799280415713
    Total Energy =                       -437.7564587046337010
  Basis Set: (AUG-CC-PVTZ AUX)
    Blend: AUG-CC-PVTZ-RI
    Molecular point group: c1

    Geometry (in Angstrom), charge = 0, multiplicity = 1:

       Center              X                  Y                   Z               Mass
    ------------   -----------------  -----------------  -----------------  -----------------
         C           -1.193850972432     0.043266413489    -0.000000020995    12.000000000000
         S            0.569307527568    -0.059375786511    -0.000000020995    31.972071174400
         H            0.854727027568     1.257348413489     0.000000979005     1.007825032230
         H           -1.566908972432     0.546414413489    -0.892524020995     1.007825032230
         H           -1.566545972432    -0.981681586511    -0.000019020995     1.007825032230
         H           -1.566908972432     0.546380413489     0.892542979005     1.007825032230

  Basis Set: AUG-CC-PVTZ
    Blend: AUG-CC-PVTZ
  Basis Set: (AUG-CC-PVTZ AUX)
    Blend: AUG-CC-PVTZ-JKFIT
	 Reference Energy          =    -437.7564587046337010 [Eh]
	 Singles Energy            =      -0.0000000000000000 [Eh]
	 Same-Spin Energy          =      -0.0939701229397418 [Eh]
	 Opposite-Spin Energy      =      -0.3347522526091091 [Eh]
	 Correlation Energy        =      -0.4287223755488509 [Eh]
	 Total Energy              =    -438.1851810801825309 [Eh]

	 ================> DF-SCS-MP2 Energies <==================
	-----------------------------------------------------------
	 SCS Same-Spin Scale       =       0.3333333333333333 [-]
	 SCS Opposite-Spin Scale   =       1.2000000000000000 [-]
	 SCS Same-Spin Energy      =      -0.0313233743132473 [Eh]
	 SCS Opposite-Spin Energy  =      -0.4017027031309309 [Eh]
	 SCS Correlation Energy    =      -0.4330260774441781 [Eh]
	 SCS Total Energy          =    -438.1894847820778978 [Eh]
	-----------------------------------------------------------

  Dipole Moment: [D]
     X:    -1.3197      Y:     0.7863      Z:     0.0000     Total:     1.5361

*** Psi4 exiting successfully. Buy a developer a beer!
