                               Psi4 1.3.2 release

  ==> Input File <==

--------------------------------------------------------------------------
#psi4
#
memory 32 gb

molecule  {
0 1
  C       -1.1514740     0.0189380     0.0000000
  S        0.6463974    -0.1759797     0.1670767
  H        0.8972680     1.2330000     0.0000410
  H       -1.5244520     0.5227560    -0.8922320
  H       -1.5245050    -1.0058990    -0.0005000
  H       -1.5245280     0.5218550     0.8927100
units angstrom
no_reorient  #important for SAPT in psi4, default
symmetry c1  #important for SAPT in psi4, default
}

set PROPERTIES_ORIGIN ["COM"]
properties('MP2/aug-cc-pvtz', properties = ['dipole'])
--------------------------------------------------------------------------

    Molecular point group: c1
  Charge       = 0
  Multiplicity = 1
  Basis Set: AUG-CC-PVTZ
    Blend: AUG-CC-PVTZ
  Basis Set: (AUG-CC-PVTZ AUX)
    Blend: AUG-CC-PVTZ-JKFIT

    Orbital Energies [Eh]
    ---------------------

    Doubly Occupied:

       1A    -91.962366     2A    -11.258304     3A     -8.961201
       4A     -6.642379     5A     -6.641419     6A     -6.640424
       7A     -1.033902     8A     -0.856228     9A     -0.605917
      10A     -0.590574    11A     -0.507927    12A     -0.464551
      13A     -0.357949

  @DF-RHF Final Energy:  -437.74940837357059

   => Energetics <=

    Nuclear Repulsion Energy =             55.9059512589131486
    One-Electron Energy =                -714.2644353885709734
    Two-Electron Energy =                 220.6090757560872646
    Total Energy =                       -437.7494083735706454
  Basis Set: (AUG-CC-PVTZ AUX)
    Blend: AUG-CC-PVTZ-RI
    Molecular point group: c1

    Geometry (in Angstrom), charge = 0, multiplicity = 1:

       Center              X                  Y                   Z               Mass
    ------------   -----------------  -----------------  -----------------  -----------------
         C           -1.216969236644     0.104713565225    -0.111279836137    12.000000000000
         S            0.580902163356    -0.090204134775     0.055796863863    31.972071174400
         H            0.831772763356     1.318775565225    -0.111238836137     1.007825032230
         H           -1.589947236644     0.608531565225    -1.003511836137     1.007825032230
         H           -1.590000236644    -0.920123434775    -0.111779836137     1.007825032230
         H           -1.590023236644     0.607630565225     0.781430163863     1.007825032230

  Basis Set: AUG-CC-PVTZ
    Blend: AUG-CC-PVTZ
  Basis Set: (AUG-CC-PVTZ AUX)
    Blend: AUG-CC-PVTZ-JKFIT
	 Reference Energy          =    -437.7494083735705885 [Eh]
	 Singles Energy            =      -0.0000000000000000 [Eh]
	 Same-Spin Energy          =      -0.0938837322829848 [Eh]
	 Opposite-Spin Energy      =      -0.3360080990673104 [Eh]
	 Correlation Energy        =      -0.4298918313502952 [Eh]
	 Total Energy              =    -438.1793002049208781 [Eh]

	 ================> DF-SCS-MP2 Energies <==================
	-----------------------------------------------------------
	 SCS Same-Spin Scale       =       0.3333333333333333 [-]
	 SCS Opposite-Spin Scale   =       1.2000000000000000 [-]
	 SCS Same-Spin Energy      =      -0.0312945774276616 [Eh]
	 SCS Opposite-Spin Energy  =      -0.4032097188807724 [Eh]
	 SCS Correlation Energy    =      -0.4345042963084340 [Eh]
	 SCS Total Energy          =    -438.1839126698790210 [Eh]
	-----------------------------------------------------------

  Dipole Moment: [D]
     X:    -1.2854      Y:     0.7755      Z:    -0.1652     Total:     1.5103

*** Psi4 exiting successfully. Buy a developer a beer!
