                               Psi4 1.3.2 release

  ==> Input File <==

--------------------------------------------------------------------------
#psi4
#
memory 32 gb

molecule  {
0 1
  C       -1.1525720    -0.1711543    -0.0000058
  S        0.6615660    -0.0865840     0.0000000
  H        0.8972680     1.2330000     0.0000410
  H       -1.5244520     0.5227560    -0.8922320
  H       -1.5245050    -1.0058990    -0.0005000
  H       -1.5245280     0.5218550     0.8927100
units angstrom
no_reorient  #important for SAPT in psi4, default
symmetry c1  #important for SAPT in psi4, default
}

set PROPERTIES_ORIGIN ["COM"]
properties('MP2/aug-cc-pvtz', properties = ['dipole'])
--------------------------------------------------------------------------

    Molecular point group: c1
  Charge       = 0
  Multiplicity = 1
  Basis Set: AUG-CC-PVTZ
    Blend: AUG-CC-PVTZ
  Basis Set: (AUG-CC-PVTZ AUX)
    Blend: AUG-CC-PVTZ-JKFIT

    Orbital Energies [Eh]
    ---------------------

    Doubly Occupied:

       1A    -91.954661     2A    -11.264192     3A     -8.955754
       4A     -6.637171     5A     -6.636341     6A     -6.635203
       7A     -1.041223     8A     -0.879665     9A     -0.634030
      10A     -0.566577    11A     -0.544618    12A     -0.445939
      13A     -0.350586

  @DF-RHF Final Energy:  -437.71145095667225

   => Energetics <=

    Nuclear Repulsion Energy =             56.3429172391634268
    One-Electron Energy =                -715.0168170237935783
    Two-Electron Energy =                 220.9624488279578998
    Total Energy =                       -437.7114509566722518
  Basis Set: (AUG-CC-PVTZ AUX)
    Blend: AUG-CC-PVTZ-RI
    Molecular point group: c1

    Geometry (in Angstrom), charge = 0, multiplicity = 1:

       Center              X                  Y                   Z               Mass
    ------------   -----------------  -----------------  -----------------  -----------------
         C           -1.227895620485    -0.097399933858    -0.000004749005    12.000000000000
         S            0.586242379515    -0.012829633858     0.000001050995    31.972071174400
         H            0.821944379515     1.306754366142     0.000042050995     1.007825032230
         H           -1.599775620485     0.596510366142    -0.892230949005     1.007825032230
         H           -1.599828620485    -0.932144633858    -0.000498949005     1.007825032230
         H           -1.599851620485     0.595609366142     0.892711050995     1.007825032230

  Basis Set: AUG-CC-PVTZ
    Blend: AUG-CC-PVTZ
  Basis Set: (AUG-CC-PVTZ AUX)
    Blend: AUG-CC-PVTZ-JKFIT
	 Reference Energy          =    -437.7114509566722518 [Eh]
	 Singles Energy            =      -0.0000000000000000 [Eh]
	 Same-Spin Energy          =      -0.0937626955087580 [Eh]
	 Opposite-Spin Energy      =      -0.3360862931861031 [Eh]
	 Correlation Energy        =      -0.4298489886948611 [Eh]
	 Total Energy              =    -438.1412999453671091 [Eh]

	 ================> DF-SCS-MP2 Energies <==================
	-----------------------------------------------------------
	 SCS Same-Spin Scale       =       0.3333333333333333 [-]
	 SCS Opposite-Spin Scale   =       1.2000000000000000 [-]
	 SCS Same-Spin Energy      =      -0.0312542318362527 [Eh]
	 SCS Opposite-Spin Energy  =      -0.4033035518233237 [Eh]
	 SCS Correlation Energy    =      -0.4345577836595764 [Eh]
	 SCS Total Energy          =    -438.1460087403318084 [Eh]
	-----------------------------------------------------------

  Dipole Moment: [D]
     X:    -1.3446      Y:     0.8179      Z:     0.0000     Total:     1.5738

*** Psi4 exiting successfully. Buy a developer a beer!
