                               Psi4 1.3.2 release

  ==> Input File <==

--------------------------------------------------------------------------
#psi4
#
memory 32 gb

molecule  {
0 1
  C       -1.1540522    -0.0444005    -0.0000020
  S        0.6615660    -0.0865840     0.0000000
  H        0.8972680     1.2330000     0.0000410
  H       -1.5244520     0.5227560    -0.8922320
  H       -1.5245050    -1.0058990    -0.0005000
  H       -1.5245280     0.5218550     0.8927100
units angstrom
no_reorient  #important for SAPT in psi4, default
symmetry c1  #important for SAPT in psi4, default
}

set PROPERTIES_ORIGIN ["COM"]
properties('MP2/aug-cc-pvtz', properties = ['dipole'])
--------------------------------------------------------------------------

    Molecular point group: c1
  Charge       = 0
  Multiplicity = 1
  Basis Set: AUG-CC-PVTZ
    Blend: AUG-CC-PVTZ
  Basis Set: (AUG-CC-PVTZ AUX)
    Blend: AUG-CC-PVTZ-JKFIT

    Orbital Energies [Eh]
    ---------------------

    Doubly Occupied:

       1A    -91.953669     2A    -11.259695     3A     -8.954790
       4A     -6.636191     5A     -6.635239     6A     -6.634153
       7A     -1.037792     8A     -0.868711     9A     -0.616129
      10A     -0.575131    11A     -0.543439    12A     -0.455382
      13A     -0.355265

  @DF-RHF Final Energy:  -437.75319776533308

   => Energetics <=

    Nuclear Repulsion Energy =             56.3176722808176464
    One-Electron Energy =                -715.0905644079592776
    Two-Electron Energy =                 221.0196943618085470
    Total Energy =                       -437.7531977653330841
  Basis Set: (AUG-CC-PVTZ AUX)
    Blend: AUG-CC-PVTZ-RI
    Molecular point group: c1

    Geometry (in Angstrom), charge = 0, multiplicity = 1:

       Center              X                  Y                   Z               Mass
    ------------   -----------------  -----------------  -----------------  -----------------
         C           -1.229005796474    -0.002332358360    -0.000001898938    12.000000000000
         S            0.586612403526    -0.044515858360     0.000000101062    31.972071174400
         H            0.822314403526     1.275068141640     0.000041101062     1.007825032230
         H           -1.599405596474     0.564824141640    -0.892231898938     1.007825032230
         H           -1.599458596474    -0.963830858360    -0.000499898938     1.007825032230
         H           -1.599481596474     0.563923141640     0.892710101062     1.007825032230

  Basis Set: AUG-CC-PVTZ
    Blend: AUG-CC-PVTZ
  Basis Set: (AUG-CC-PVTZ AUX)
    Blend: AUG-CC-PVTZ-JKFIT
	 Reference Energy          =    -437.7531977653330841 [Eh]
	 Singles Energy            =      -0.0000000000000000 [Eh]
	 Same-Spin Energy          =      -0.0935679757218267 [Eh]
	 Opposite-Spin Energy      =      -0.3348187906536236 [Eh]
	 Correlation Energy        =      -0.4283867663754503 [Eh]
	 Total Energy              =    -438.1815845317085518 [Eh]

	 ================> DF-SCS-MP2 Energies <==================
	-----------------------------------------------------------
	 SCS Same-Spin Scale       =       0.3333333333333333 [-]
	 SCS Opposite-Spin Scale   =       1.2000000000000000 [-]
	 SCS Same-Spin Energy      =      -0.0311893252406089 [Eh]
	 SCS Opposite-Spin Energy  =      -0.4017825487843483 [Eh]
	 SCS Correlation Energy    =      -0.4329718740249572 [Eh]
	 SCS Total Energy          =    -438.1861696393580132 [Eh]
	-----------------------------------------------------------

  Dipole Moment: [D]
     X:    -1.3511      Y:     0.7816      Z:     0.0000     Total:     1.5609

*** Psi4 exiting successfully. Buy a developer a beer!
