                               Psi4 1.3.2 release

  ==> Input File <==

--------------------------------------------------------------------------
#psi4
#
memory 32 gb

molecule  {
0 1
  C       -1.1514740     0.0189380     0.0000000
  S        0.6615660    -0.0865840     0.0000000
  H        0.8796845     1.1345580     0.0000379
  H       -1.5244520     0.5227560    -0.8922320
  H       -1.5245050    -1.0058990    -0.0005000
  H       -1.5245280     0.5218550     0.8927100
units angstrom
no_reorient  #important for SAPT in psi4, default
symmetry c1  #important for SAPT in psi4, default
}

set PROPERTIES_ORIGIN ["COM"]
properties('MP2/aug-cc-pvtz', properties = ['dipole'])
--------------------------------------------------------------------------

    Molecular point group: c1
  Charge       = 0
  Multiplicity = 1
  Basis Set: AUG-CC-PVTZ
    Blend: AUG-CC-PVTZ
  Basis Set: (AUG-CC-PVTZ AUX)
    Blend: AUG-CC-PVTZ-JKFIT

    Orbital Energies [Eh]
    ---------------------

    Doubly Occupied:

       1A    -91.945644     2A    -11.258790     3A     -8.949743
       4A     -6.631470     5A     -6.630051     6A     -6.628905
       7A     -1.043768     8A     -0.878663     9A     -0.612323
      10A     -0.590923    11A     -0.536617    12A     -0.462131
      13A     -0.357902

  @DF-RHF Final Energy:  -437.75259052792569

   => Energetics <=

    Nuclear Repulsion Energy =             56.8778345405907046
    One-Electron Energy =                -716.2069882381360912
    Two-Electron Energy =                 221.5765631696197318
    Total Energy =                       -437.7525905279256904
  Basis Set: (AUG-CC-PVTZ AUX)
    Blend: AUG-CC-PVTZ-RI
    Molecular point group: c1

    Geometry (in Angstrom), charge = 0, multiplicity = 1:

       Center              X                  Y                   Z               Mass
    ------------   -----------------  -----------------  -----------------  -----------------
         C           -1.226702937730     0.047239406716    -0.000000333819    12.000000000000
         S            0.586337062270    -0.058282593284    -0.000000333819    31.972071174400
         H            0.804455562270     1.162859406716     0.000037566181     1.007825032230
         H           -1.599680937730     0.551057406716    -0.892232333819     1.007825032230
         H           -1.599733937730    -0.977597593284    -0.000500333819     1.007825032230
         H           -1.599756937730     0.550156406716     0.892709666181     1.007825032230

  Basis Set: AUG-CC-PVTZ
    Blend: AUG-CC-PVTZ
  Basis Set: (AUG-CC-PVTZ AUX)
    Blend: AUG-CC-PVTZ-JKFIT
	 Reference Energy          =    -437.7525905279256904 [Eh]
	 Singles Energy            =      -0.0000000000000000 [Eh]
	 Same-Spin Energy          =      -0.0937688920555907 [Eh]
	 Opposite-Spin Energy      =      -0.3346112996240804 [Eh]
	 Correlation Energy        =      -0.4283801916796711 [Eh]
	 Total Energy              =    -438.1809707196053409 [Eh]

	 ================> DF-SCS-MP2 Energies <==================
	-----------------------------------------------------------
	 SCS Same-Spin Scale       =       0.3333333333333333 [-]
	 SCS Opposite-Spin Scale   =       1.2000000000000000 [-]
	 SCS Same-Spin Energy      =      -0.0312562973518636 [Eh]
	 SCS Opposite-Spin Energy  =      -0.4015335595488965 [Eh]
	 SCS Correlation Energy    =      -0.4327898569007601 [Eh]
	 SCS Total Energy          =    -438.1853803848264306 [Eh]
	-----------------------------------------------------------

  Dipole Moment: [D]
     X:    -1.3279      Y:     0.7836      Z:     0.0000     Total:     1.5419

*** Psi4 exiting successfully. Buy a developer a beer!
