                               Psi4 1.3.2 release

  ==> Input File <==

--------------------------------------------------------------------------
#psi4
#
memory 32 gb

molecule  {
0 1
  C       -1.1514740     0.0189380     0.0000000
  S        0.6615660    -0.0865840     0.0000000
  H        0.8972680     1.2330000     0.0000410
  H       -1.5244520     0.5227560    -0.8922320
  H       -1.5245050    -1.0058990    -0.0005000
  H       -1.5245280     0.5218550     0.8927100
units angstrom
no_reorient  #important for SAPT in psi4, default
symmetry c1  #important for SAPT in psi4, default
}

set PROPERTIES_ORIGIN ["COM"]
properties('MP2/aug-cc-pvtz', properties = ['dipole'])
--------------------------------------------------------------------------

    Molecular point group: c1
  Charge       = 0
  Multiplicity = 1
  Basis Set: AUG-CC-PVTZ
    Blend: AUG-CC-PVTZ
  Basis Set: (AUG-CC-PVTZ AUX)
    Blend: AUG-CC-PVTZ-JKFIT

    Orbital Energies [Eh]
    ---------------------

    Doubly Occupied:

       1A    -91.954067     2A    -11.258979     3A     -8.955126
       4A     -6.636513     5A     -6.635511     6A     -6.634440
       7A     -1.037289     8A     -0.866800     9A     -0.607390
      10A     -0.590900    11A     -0.528413    12A     -0.460132
      13A     -0.357505

  @DF-RHF Final Energy:  -437.75745553898042

   => Energetics <=

    Nuclear Repulsion Energy =             56.3217657826979803
    One-Electron Energy =                -715.1123150388506247
    Two-Electron Energy =                 221.0330937171721928
    Total Energy =                       -437.7574555389804800
  Basis Set: (AUG-CC-PVTZ AUX)
    Blend: AUG-CC-PVTZ-RI
    Molecular point group: c1

    Geometry (in Angstrom), charge = 0, multiplicity = 1:

       Center              X                  Y                   Z               Mass
    ------------   -----------------  -----------------  -----------------  -----------------
         C           -1.227072101207     0.045172628714    -0.000000398903    12.000000000000
         S            0.585967898793    -0.060349371286    -0.000000398903    31.972071174400
         H            0.821669898793     1.259234628714     0.000040601097     1.007825032230
         H           -1.600050101207     0.548990628714    -0.892232398903     1.007825032230
         H           -1.600103101207    -0.979664371286    -0.000500398903     1.007825032230
         H           -1.600126101207     0.548089628714     0.892709601097     1.007825032230

  Basis Set: AUG-CC-PVTZ
    Blend: AUG-CC-PVTZ
  Basis Set: (AUG-CC-PVTZ AUX)
    Blend: AUG-CC-PVTZ-JKFIT
	 Reference Energy          =    -437.7574555389804232 [Eh]
	 Singles Energy            =      -0.0000000000000000 [Eh]
	 Same-Spin Energy          =      -0.0936582737945316 [Eh]
	 Opposite-Spin Energy      =      -0.3348790698284069 [Eh]
	 Correlation Energy        =      -0.4285373436229385 [Eh]
	 Total Energy              =    -438.1859928826033865 [Eh]

	 ================> DF-SCS-MP2 Energies <==================
	-----------------------------------------------------------
	 SCS Same-Spin Scale       =       0.3333333333333333 [-]
	 SCS Opposite-Spin Scale   =       1.2000000000000000 [-]
	 SCS Same-Spin Energy      =      -0.0312194245981772 [Eh]
	 SCS Opposite-Spin Energy  =      -0.4018548837940882 [Eh]
	 SCS Correlation Energy    =      -0.4330743083922655 [Eh]
	 SCS Total Energy          =    -438.1905298473727157 [Eh]
	-----------------------------------------------------------

  Dipole Moment: [D]
     X:    -1.3325      Y:     0.7743      Z:     0.0000     Total:     1.5411

*** Psi4 exiting successfully. Buy a developer a beer!
