                               Psi4 1.3.2 release

  ==> Input File <==

--------------------------------------------------------------------------
#psi4
#
memory 32 gb

molecule  {
0 1
  C       -1.1466869     0.0821479     0.0000020
  S        0.6615660    -0.0865840     0.0000000
  H        0.8972680     1.2330000     0.0000410
  H       -1.5244520     0.5227560    -0.8922320
  H       -1.5245050    -1.0058990    -0.0005000
  H       -1.5245280     0.5218550     0.8927100
units angstrom
no_reorient  #important for SAPT in psi4, default
symmetry c1  #important for SAPT in psi4, default
}

set PROPERTIES_ORIGIN ["COM"]
properties('MP2/aug-cc-pvtz', properties = ['dipole'])
--------------------------------------------------------------------------

    Molecular point group: c1
  Charge       = 0
  Multiplicity = 1
  Basis Set: AUG-CC-PVTZ
    Blend: AUG-CC-PVTZ
  Basis Set: (AUG-CC-PVTZ AUX)
    Blend: AUG-CC-PVTZ-JKFIT

    Orbital Energies [Eh]
    ---------------------

    Doubly Occupied:

       1A    -91.955018     2A    -11.259328     3A     -8.955969
       4A     -6.637337     5A     -6.636294     6A     -6.635231
       7A     -1.037452     8A     -0.866552     9A     -0.606362
      10A     -0.599446    11A     -0.512072    12A     -0.464480
      13A     -0.359714

  @DF-RHF Final Energy:  -437.75320923645609

   => Energetics <=

    Nuclear Repulsion Energy =             56.3298007734655428
    One-Electron Energy =                -715.1155116666078584
    Two-Electron Energy =                 221.0325016566862359
    Total Energy =                       -437.7532092364560867
  Basis Set: (AUG-CC-PVTZ AUX)
    Blend: AUG-CC-PVTZ-RI
    Molecular point group: c1

    Geometry (in Angstrom), charge = 0, multiplicity = 1:

       Center              X                  Y                   Z               Mass
    ------------   -----------------  -----------------  -----------------  -----------------
         C           -1.223481692157     0.092581163531     0.000001101132    12.000000000000
         S            0.584771207843    -0.076150736469    -0.000000898868    31.972071174400
         H            0.820473207843     1.243433263531     0.000040101132     1.007825032230
         H           -1.601246792157     0.533189263531    -0.892232898868     1.007825032230
         H           -1.601299792157    -0.995465736469    -0.000500898868     1.007825032230
         H           -1.601322792157     0.532288263531     0.892709101132     1.007825032230

  Basis Set: AUG-CC-PVTZ
    Blend: AUG-CC-PVTZ
  Basis Set: (AUG-CC-PVTZ AUX)
    Blend: AUG-CC-PVTZ-JKFIT
	 Reference Energy          =    -437.7532092364560867 [Eh]
	 Singles Energy            =      -0.0000000000000000 [Eh]
	 Same-Spin Energy          =      -0.0938638627686826 [Eh]
	 Opposite-Spin Energy      =      -0.3353416051015610 [Eh]
	 Correlation Energy        =      -0.4292054678702436 [Eh]
	 Total Energy              =    -438.1824147043263338 [Eh]

	 ================> DF-SCS-MP2 Energies <==================
	-----------------------------------------------------------
	 SCS Same-Spin Scale       =       0.3333333333333333 [-]
	 SCS Opposite-Spin Scale   =       1.2000000000000000 [-]
	 SCS Same-Spin Energy      =      -0.0312879542562275 [Eh]
	 SCS Opposite-Spin Energy  =      -0.4024099261218732 [Eh]
	 SCS Correlation Energy    =      -0.4336978803781007 [Eh]
	 SCS Total Energy          =    -438.1869071168341634 [Eh]
	-----------------------------------------------------------

  Dipole Moment: [D]
     X:    -1.3010      Y:     0.7735      Z:     0.0000     Total:     1.5136

*** Psi4 exiting successfully. Buy a developer a beer!
