                               Psi4 1.3.2 release

  ==> Input File <==

--------------------------------------------------------------------------
#psi4
#
memory 32 gb

molecule  {
0 1
  C       -1.1530395    -0.0127200    -0.0000010
  S        0.6615660    -0.0865840     0.0000000
  H        0.8972680     1.2330000     0.0000410
  H       -1.5244520     0.5227560    -0.8922320
  H       -1.5245050    -1.0058990    -0.0005000
  H       -1.5245280     0.5218550     0.8927100
units angstrom
no_reorient  #important for SAPT in psi4, default
symmetry c1  #important for SAPT in psi4, default
}

set PROPERTIES_ORIGIN ["COM"]
properties('MP2/aug-cc-pvtz', properties = ['dipole'])
--------------------------------------------------------------------------

    Molecular point group: c1
  Charge       = 0
  Multiplicity = 1
  Basis Set: AUG-CC-PVTZ
    Blend: AUG-CC-PVTZ
  Basis Set: (AUG-CC-PVTZ AUX)
    Blend: AUG-CC-PVTZ-JKFIT

    Orbital Energies [Eh]
    ---------------------

    Doubly Occupied:

       1A    -91.953797     2A    -11.259207     3A     -8.954893
       4A     -6.636287     5A     -6.635309     6A     -6.634231
       7A     -1.037450     8A     -0.867511     9A     -0.611678
      10A     -0.583021    11A     -0.536165    12A     -0.457772
      13A     -0.356390

  @DF-RHF Final Energy:  -437.75650768509564

   => Energetics <=

    Nuclear Repulsion Energy =             56.3188689633311625
    One-Electron Energy =                -715.1033308330979708
    Two-Electron Energy =                 221.0279541846711311
    Total Energy =                       -437.7565076850956984
  Basis Set: (AUG-CC-PVTZ AUX)
    Blend: AUG-CC-PVTZ-RI
    Molecular point group: c1

    Geometry (in Angstrom), charge = 0, multiplicity = 1:

       Center              X                  Y                   Z               Mass
    ------------   -----------------  -----------------  -----------------  -----------------
         C           -1.228246253693     0.021428572875    -0.000001148920    12.000000000000
         S            0.586359246307    -0.052435427125    -0.000000148920    31.972071174400
         H            0.822061246307     1.267148572875     0.000040851080     1.007825032230
         H           -1.599658753693     0.556904572875    -0.892232148920     1.007825032230
         H           -1.599711753693    -0.971750427125    -0.000500148920     1.007825032230
         H           -1.599734753693     0.556003572875     0.892709851080     1.007825032230

  Basis Set: AUG-CC-PVTZ
    Blend: AUG-CC-PVTZ
  Basis Set: (AUG-CC-PVTZ AUX)
    Blend: AUG-CC-PVTZ-JKFIT
	 Reference Energy          =    -437.7565076850956416 [Eh]
	 Singles Energy            =      -0.0000000000000000 [Eh]
	 Same-Spin Energy          =      -0.0935981438688638 [Eh]
	 Opposite-Spin Energy      =      -0.3347955323800347 [Eh]
	 Correlation Energy        =      -0.4283936762488986 [Eh]
	 Total Energy              =    -438.1849013613445436 [Eh]

	 ================> DF-SCS-MP2 Energies <==================
	-----------------------------------------------------------
	 SCS Same-Spin Scale       =       0.3333333333333333 [-]
	 SCS Opposite-Spin Scale   =       1.2000000000000000 [-]
	 SCS Same-Spin Energy      =      -0.0311993812896213 [Eh]
	 SCS Opposite-Spin Energy  =      -0.4017546388560417 [Eh]
	 SCS Correlation Energy    =      -0.4329540201456630 [Eh]
	 SCS Total Energy          =    -438.1894617052412855 [Eh]
	-----------------------------------------------------------

  Dipole Moment: [D]
     X:    -1.3435      Y:     0.7771      Z:     0.0000     Total:     1.5520

*** Psi4 exiting successfully. Buy a developer a beer!
