                               Psi4 1.3.2 release

  ==> Input File <==

--------------------------------------------------------------------------
#psi4
#
memory 32 gb

molecule  {
0 1
  C       -1.1514740     0.0189380     0.0000000
  S        0.5617349    -0.0807737     0.0000000
  H        0.8972680     1.2330000     0.0000410
  H       -1.5244520     0.5227560    -0.8922320
  H       -1.5245050    -1.0058990    -0.0005000
  H       -1.5245280     0.5218550     0.8927100
units angstrom
no_reorient  #important for SAPT in psi4, default
symmetry c1  #important for SAPT in psi4, default
}

set PROPERTIES_ORIGIN ["COM"]
properties('MP2/aug-cc-pvtz', properties = ['dipole'])
--------------------------------------------------------------------------

    Molecular point group: c1
  Charge       = 0
  Multiplicity = 1
  Basis Set: AUG-CC-PVTZ
    Blend: AUG-CC-PVTZ
  Basis Set: (AUG-CC-PVTZ AUX)
    Blend: AUG-CC-PVTZ-JKFIT

    Orbital Energies [Eh]
    ---------------------

    Doubly Occupied:

       1A    -91.949201     2A    -11.251580     3A     -8.952163
       4A     -6.633724     5A     -6.632640     6A     -6.631494
       7A     -1.061457     8A     -0.857568     9A     -0.617230
      10A     -0.597791    11A     -0.541988    12A     -0.454665
      13A     -0.352405

  @DF-RHF Final Energy:  -437.75265037465181

   => Energetics <=

    Nuclear Repulsion Energy =             58.2873634766307234
    One-Electron Energy =                -719.0122156586029405
    Two-Electron Energy =                 222.9722018073204026
    Total Energy =                       -437.7526503746518074
  Basis Set: (AUG-CC-PVTZ AUX)
    Blend: AUG-CC-PVTZ-RI
    Molecular point group: c1

    Geometry (in Angstrom), charge = 0, multiplicity = 1:

       Center              X                  Y                   Z               Mass
    ------------   -----------------  -----------------  -----------------  -----------------
         C           -1.160580791368     0.041302747910    -0.000000398903    12.000000000000
         S            0.552628108632    -0.058408952090    -0.000000398903    31.972071174400
         H            0.888161208632     1.255364747910     0.000040601097     1.007825032230
         H           -1.533558791368     0.545120747910    -0.892232398903     1.007825032230
         H           -1.533611791368    -0.983534252090    -0.000500398903     1.007825032230
         H           -1.533634791368     0.544219747910     0.892709601097     1.007825032230

  Basis Set: AUG-CC-PVTZ
    Blend: AUG-CC-PVTZ
  Basis Set: (AUG-CC-PVTZ AUX)
    Blend: AUG-CC-PVTZ-JKFIT
	 Reference Energy          =    -437.7526503746518074 [Eh]
	 Singles Energy            =      -0.0000000000000000 [Eh]
	 Same-Spin Energy          =      -0.0943519497108326 [Eh]
	 Opposite-Spin Energy      =      -0.3347593012733739 [Eh]
	 Correlation Energy        =      -0.4291112509842065 [Eh]
	 Total Energy              =    -438.1817616256359997 [Eh]

	 ================> DF-SCS-MP2 Energies <==================
	-----------------------------------------------------------
	 SCS Same-Spin Scale       =       0.3333333333333333 [-]
	 SCS Opposite-Spin Scale   =       1.2000000000000000 [-]
	 SCS Same-Spin Energy      =      -0.0314506499036109 [Eh]
	 SCS Opposite-Spin Energy  =      -0.4017111615280487 [Eh]
	 SCS Correlation Energy    =      -0.4331618114316595 [Eh]
	 SCS Total Energy          =    -438.1858121860834672 [Eh]
	-----------------------------------------------------------

  Dipole Moment: [D]
     X:    -1.3149      Y:     0.7971      Z:    -0.0000     Total:     1.5376

*** Psi4 exiting successfully. Buy a developer a beer!
