                               Psi4 1.3.2 release

  ==> Input File <==

--------------------------------------------------------------------------
#psi4
#
memory 32 gb

molecule  {
0 1
  C       -1.1514740     0.0189380     0.0000000
  S        0.6568706     0.0039678    -0.1670767
  H        0.8972680     1.2330000     0.0000410
  H       -1.5244520     0.5227560    -0.8922320
  H       -1.5245050    -1.0058990    -0.0005000
  H       -1.5245280     0.5218550     0.8927100
units angstrom
no_reorient  #important for SAPT in psi4, default
symmetry c1  #important for SAPT in psi4, default
}

set PROPERTIES_ORIGIN ["COM"]
properties('MP2/aug-cc-pvtz', properties = ['dipole'])
--------------------------------------------------------------------------

    Molecular point group: c1
  Charge       = 0
  Multiplicity = 1
  Basis Set: AUG-CC-PVTZ
    Blend: AUG-CC-PVTZ
  Basis Set: (AUG-CC-PVTZ AUX)
    Blend: AUG-CC-PVTZ-JKFIT

    Orbital Energies [Eh]
    ---------------------

    Doubly Occupied:

       1A    -91.947005     2A    -11.259618     3A     -8.950397
       4A     -6.632056     5A     -6.630791     6A     -6.629665
       7A     -1.041686     8A     -0.876819     9A     -0.609383
      10A     -0.591896    11A     -0.542771    12A     -0.455949
      13A     -0.356388

  @DF-RHF Final Energy:  -437.75334657296537

   => Energetics <=

    Nuclear Repulsion Energy =             56.7132997127917093
    One-Electron Energy =                -715.8844461331449338
    Two-Electron Energy =                 221.4177998473878972
    Total Energy =                       -437.7533465729653699
  Basis Set: (AUG-CC-PVTZ AUX)
    Blend: AUG-CC-PVTZ-RI
    Molecular point group: c1

    Geometry (in Angstrom), charge = 0, multiplicity = 1:

       Center              X                  Y                   Z               Mass
    ------------   -----------------  -----------------  -----------------  -----------------
         C           -1.223944786210    -0.015138314371     0.111279038332    12.000000000000
         S            0.584399813790    -0.030108514371    -0.055797661668    31.972071174400
         H            0.824797213790     1.198923685629     0.111320038332     1.007825032230
         H           -1.596922786210     0.488679685629    -0.780952961668     1.007825032230
         H           -1.596975786210    -1.039975314371     0.110779038332     1.007825032230
         H           -1.596998786210     0.487778685629     1.003989038332     1.007825032230

  Basis Set: AUG-CC-PVTZ
    Blend: AUG-CC-PVTZ
  Basis Set: (AUG-CC-PVTZ AUX)
    Blend: AUG-CC-PVTZ-JKFIT
	 Reference Energy          =    -437.7533465729653699 [Eh]
	 Singles Energy            =      -0.0000000000000000 [Eh]
	 Same-Spin Energy          =      -0.0936553630460915 [Eh]
	 Opposite-Spin Energy      =      -0.3344911053165707 [Eh]
	 Correlation Energy        =      -0.4281464683626622 [Eh]
	 Total Energy              =    -438.1814930413280536 [Eh]

	 ================> DF-SCS-MP2 Energies <==================
	-----------------------------------------------------------
	 SCS Same-Spin Scale       =       0.3333333333333333 [-]
	 SCS Opposite-Spin Scale   =       1.2000000000000000 [-]
	 SCS Same-Spin Energy      =      -0.0312184543486972 [Eh]
	 SCS Opposite-Spin Energy  =      -0.4013893263798848 [Eh]
	 SCS Correlation Energy    =      -0.4326077807285820 [Eh]
	 SCS Total Energy          =    -438.1859543536939441 [Eh]
	-----------------------------------------------------------

  Dipole Moment: [D]
     X:    -1.3756      Y:     0.7494      Z:     0.1954     Total:     1.5787

*** Psi4 exiting successfully. Buy a developer a beer!
