                               Psi4 1.4a3.dev225

  ==> Input File <==

--------------------------------------------------------------------------
#psi4
#
memory 32 gb

molecule  {
0 1
  C       -1.1514980     0.0189760     0.0000000
  S        0.6416098    -0.0854097     0.0000000
  H        0.8970800     1.2330580     0.0000010
  H       -1.5245560     0.5221240    -0.8925240
  H       -1.5241930    -1.0059720    -0.0000190
  H       -1.5245560     0.5220900     0.8925430
units angstrom
no_reorient  #important for SAPT in psi4, default
symmetry c1  #important for SAPT in psi4, default
}

set PROPERTIES_ORIGIN ["COM"]
properties('MP2/aug-cc-pvtz', properties = ['dipole'])
--------------------------------------------------------------------------

    Molecular point group: c1
  Charge       = 0
  Multiplicity = 1
  Basis Set: AUG-CC-PVTZ
    Blend: AUG-CC-PVTZ
  Basis Set: (AUG-CC-PVTZ AUX)
    Blend: AUG-CC-PVTZ-JKFIT

    Orbital Energies [Eh]
    ---------------------

    Doubly Occupied:

       1A    -91.953179     2A    -11.257465     3A     -8.954570
       4A     -6.635985     5A     -6.634980     6A     -6.633895
       7A     -1.041724     8A     -0.865055     9A     -0.609184
      10A     -0.592063    11A     -0.530873    12A     -0.459475
      13A     -0.356638

  @DF-RHF Final Energy:  -437.75735618337376

   => Energetics <=

    Nuclear Repulsion Energy =             56.7008118349943828
    One-Electron Energy =                -715.8661649113082603
    Two-Electron Energy =                 221.4079968929400763
    Total Energy =                       -437.7573561833737585
  Basis Set: (AUG-CC-PVTZ AUX)
    Blend: AUG-CC-PVTZ-RI
    Molecular point group: c1

    Geometry (in Angstrom), charge = 0, multiplicity = 1:

       Center              X                  Y                   Z               Mass
    ------------   -----------------  -----------------  -----------------  -----------------
         C           -1.213798345403     0.044427650806    -0.000000020995    12.000000000000
         S            0.579309454597    -0.059958049194    -0.000000020995    31.972071174400
         H            0.834779654597     1.258509650806     0.000000979005     1.007825032230
         H           -1.586856345403     0.547575650806    -0.892524020995     1.007825032230
         H           -1.586493345403    -0.980520349194    -0.000019020995     1.007825032230
         H           -1.586856345403     0.547541650806     0.892542979005     1.007825032230

  Basis Set: AUG-CC-PVTZ
    Blend: AUG-CC-PVTZ
  Basis Set: (AUG-CC-PVTZ AUX)
    Blend: AUG-CC-PVTZ-JKFIT
	 Reference Energy          =    -437.7573561833737585 [Eh]
	 Singles Energy            =      -0.0000000000000000 [Eh]
	 Same-Spin Energy          =      -0.0937753860309173 [Eh]
	 Opposite-Spin Energy      =      -0.3348133467333274 [Eh]
	 Correlation Energy        =      -0.4285887327642446 [Eh]
	 Total Energy              =    -438.1859449161379985 [Eh]

	 ================> DF-SCS-MP2 Energies <==================
	-----------------------------------------------------------
	 SCS Same-Spin Scale       =       0.3333333333333333 [-]
	 SCS Opposite-Spin Scale   =       1.2000000000000000 [-]
	 SCS Same-Spin Energy      =      -0.0312584620103058 [Eh]
	 SCS Opposite-Spin Energy  =      -0.4017760160799928 [Eh]
	 SCS Correlation Energy    =      -0.4330344780902985 [Eh]
	 SCS Total Energy          =    -438.1903906614640505 [Eh]
	-----------------------------------------------------------

  Dipole Moment: [D]
     X:    -1.3264      Y:     0.7791      Z:     0.0000     Total:     1.5383

*** Psi4 exiting successfully. Buy a developer a beer!
