                               Psi4 1.3.2 release

  ==> Input File <==

--------------------------------------------------------------------------
#psi4
#
memory 32 gb

molecule  {
0 1
  C       -1.1514740     0.0189380     0.0000000
  S        0.6587132    -0.1165597     0.0557828
  H        0.8972680     1.2330000     0.0000410
  H       -1.5244520     0.5227560    -0.8922320
  H       -1.5245050    -1.0058990    -0.0005000
  H       -1.5245280     0.5218550     0.8927100
units angstrom
no_reorient  #important for SAPT in psi4, default
symmetry c1  #important for SAPT in psi4, default
}

set PROPERTIES_ORIGIN ["COM"]
properties('MP2/aug-cc-pvtz', properties = ['dipole'])
--------------------------------------------------------------------------

    Molecular point group: c1
  Charge       = 0
  Multiplicity = 1
  Basis Set: AUG-CC-PVTZ
    Blend: AUG-CC-PVTZ
  Basis Set: (AUG-CC-PVTZ AUX)
    Blend: AUG-CC-PVTZ-JKFIT

    Orbital Energies [Eh]
    ---------------------

    Doubly Occupied:

       1A    -91.956746     2A    -11.258735     3A     -8.957031
       4A     -6.638341     5A     -6.637376     6A     -6.636330
       7A     -1.035998     8A     -0.863218     9A     -0.606896
      10A     -0.590697    11A     -0.522046    12A     -0.461712
      13A     -0.357704

  @DF-RHF Final Energy:  -437.75625140819034

   => Energetics <=

    Nuclear Repulsion Energy =             56.1830860895082722
    One-Electron Energy =                -714.8330147782601216
    Two-Electron Energy =                 220.8936772805615192
    Total Energy =                       -437.7562514081903373
  Basis Set: (AUG-CC-PVTZ AUX)
    Blend: AUG-CC-PVTZ-RI
    Molecular point group: c1

    Geometry (in Angstrom), charge = 0, multiplicity = 1:

       Center              X                  Y                   Z               Mass
    ------------   -----------------  -----------------  -----------------  -----------------
         C           -1.225172027896     0.065137585089    -0.037153865492    12.000000000000
         S            0.585015172104    -0.070360114911     0.018628934508    31.972071174400
         H            0.823569972104     1.279199585089    -0.037112865492     1.007825032230
         H           -1.598150027896     0.568955585089    -0.929385865492     1.007825032230
         H           -1.598203027896    -0.959699414911    -0.037653865492     1.007825032230
         H           -1.598226027896     0.568054585089     0.855556134508     1.007825032230

  Basis Set: AUG-CC-PVTZ
    Blend: AUG-CC-PVTZ
  Basis Set: (AUG-CC-PVTZ AUX)
    Blend: AUG-CC-PVTZ-JKFIT
	 Reference Energy          =    -437.7562514081903373 [Eh]
	 Singles Energy            =      -0.0000000000000000 [Eh]
	 Same-Spin Energy          =      -0.0937075420113552 [Eh]
	 Opposite-Spin Energy      =      -0.3351642889629179 [Eh]
	 Correlation Energy        =      -0.4288718309742732 [Eh]
	 Total Energy              =    -438.1851232391646249 [Eh]

	 ================> DF-SCS-MP2 Energies <==================
	-----------------------------------------------------------
	 SCS Same-Spin Scale       =       0.3333333333333333 [-]
	 SCS Opposite-Spin Scale   =       1.2000000000000000 [-]
	 SCS Same-Spin Energy      =      -0.0312358473371184 [Eh]
	 SCS Opposite-Spin Energy  =      -0.4021971467555015 [Eh]
	 SCS Correlation Energy    =      -0.4334329940926199 [Eh]
	 SCS Total Energy          =    -438.1896844022829782 [Eh]
	-----------------------------------------------------------

  Dipole Moment: [D]
     X:    -1.3161      Y:     0.7768      Z:    -0.0583     Total:     1.5294

*** Psi4 exiting successfully. Buy a developer a beer!
