                               Psi4 1.3.2 release

  ==> Input File <==

--------------------------------------------------------------------------
#psi4
#
memory 32 gb

molecule  {
0 1
  C       -1.1514740     0.0189380     0.0000000
  S        0.6604155    -0.1015902     0.0278957
  H        0.8972680     1.2330000     0.0000410
  H       -1.5244520     0.5227560    -0.8922320
  H       -1.5245050    -1.0058990    -0.0005000
  H       -1.5245280     0.5218550     0.8927100
units angstrom
no_reorient  #important for SAPT in psi4, default
symmetry c1  #important for SAPT in psi4, default
}

set PROPERTIES_ORIGIN ["COM"]
properties('MP2/aug-cc-pvtz', properties = ['dipole'])
--------------------------------------------------------------------------

    Molecular point group: c1
  Charge       = 0
  Multiplicity = 1
  Basis Set: AUG-CC-PVTZ
    Blend: AUG-CC-PVTZ
  Basis Set: (AUG-CC-PVTZ AUX)
    Blend: AUG-CC-PVTZ-JKFIT

    Orbital Energies [Eh]
    ---------------------

    Doubly Occupied:

       1A    -91.955392     2A    -11.258856     3A     -8.956061
       4A     -6.637409     5A     -6.636428     6A     -6.635370
       7A     -1.036626     8A     -0.865010     9A     -0.607140
      10A     -0.590787    11A     -0.525306    12A     -0.460923
      13A     -0.357613

  @DF-RHF Final Energy:  -437.75703390378709

   => Energetics <=

    Nuclear Repulsion Energy =             56.2526147299217882
    One-Electron Energy =                -714.9734527256132424
    Two-Electron Energy =                 220.9638040919043362
    Total Energy =                       -437.7570339037871463
  Basis Set: (AUG-CC-PVTZ AUX)
    Blend: AUG-CC-PVTZ-RI
    Molecular point group: c1

    Geometry (in Angstrom), charge = 0, multiplicity = 1:

       Center              X                  Y                   Z               Mass
    ------------   -----------------  -----------------  -----------------  -----------------
         C           -1.226305824446     0.055167328700    -0.018579996161    12.000000000000
         S            0.585583675554    -0.065360871300     0.009315703839    31.972071174400
         H            0.822436175554     1.269229328700    -0.018538996161     1.007825032230
         H           -1.599283824446     0.558985328700    -0.910811996161     1.007825032230
         H           -1.599336824446    -0.969669671300    -0.019079996161     1.007825032230
         H           -1.599359824446     0.558084328700     0.874130003839     1.007825032230

  Basis Set: AUG-CC-PVTZ
    Blend: AUG-CC-PVTZ
  Basis Set: (AUG-CC-PVTZ AUX)
    Blend: AUG-CC-PVTZ-JKFIT
	 Reference Energy          =    -437.7570339037870895 [Eh]
	 Singles Energy            =      -0.0000000000000000 [Eh]
	 Same-Spin Energy          =      -0.0936797138004570 [Eh]
	 Opposite-Spin Energy      =      -0.3350108738872996 [Eh]
	 Correlation Energy        =      -0.4286905876877566 [Eh]
	 Total Energy              =    -438.1857244914748435 [Eh]

	 ================> DF-SCS-MP2 Energies <==================
	-----------------------------------------------------------
	 SCS Same-Spin Scale       =       0.3333333333333333 [-]
	 SCS Opposite-Spin Scale   =       1.2000000000000000 [-]
	 SCS Same-Spin Energy      =      -0.0312265712668190 [Eh]
	 SCS Opposite-Spin Energy  =      -0.4020130486647595 [Eh]
	 SCS Correlation Energy    =      -0.4332396199315784 [Eh]
	 SCS Total Energy          =    -438.1902735237186448 [Eh]
	-----------------------------------------------------------

  Dipole Moment: [D]
     X:    -1.3243      Y:     0.7759      Z:    -0.0296     Total:     1.5351

*** Psi4 exiting successfully. Buy a developer a beer!
