                               Psi4 1.3.2 release

  ==> Input File <==

--------------------------------------------------------------------------
#psi4
#
memory 32 gb

molecule  {
0 1
  C       -1.1514740     0.0189380     0.0000000
  S        0.4619039    -0.0749633     0.0000000
  H        0.8972680     1.2330000     0.0000410
  H       -1.5244520     0.5227560    -0.8922320
  H       -1.5245050    -1.0058990    -0.0005000
  H       -1.5245280     0.5218550     0.8927100
units angstrom
no_reorient  #important for SAPT in psi4, default
symmetry c1  #important for SAPT in psi4, default
}

set PROPERTIES_ORIGIN ["COM"]
properties('MP2/aug-cc-pvtz', properties = ['dipole'])
--------------------------------------------------------------------------

    Molecular point group: c1
  Charge       = 0
  Multiplicity = 1
  Basis Set: AUG-CC-PVTZ
    Blend: AUG-CC-PVTZ
  Basis Set: (AUG-CC-PVTZ AUX)
    Blend: AUG-CC-PVTZ-JKFIT

    Orbital Energies [Eh]
    ---------------------

    Doubly Occupied:

       1A    -91.943155     2A    -11.244605     3A     -8.948806
       4A     -6.630699     5A     -6.629184     6A     -6.628001
       7A     -1.090994     8A     -0.847115     9A     -0.629122
      10A     -0.608259    11A     -0.557091    12A     -0.444927
      13A     -0.345316

  @DF-RHF Final Energy:  -437.73382888312472

   => Energetics <=

    Nuclear Repulsion Energy =             60.4531443323890514
    One-Electron Energy =                -723.2793984439100541
    Two-Electron Energy =                 225.0924252283963654
    Total Energy =                       -437.7338288831247155
  Basis Set: (AUG-CC-PVTZ AUX)
    Blend: AUG-CC-PVTZ-RI
    Molecular point group: c1

    Geometry (in Angstrom), charge = 0, multiplicity = 1:

       Center              X                  Y                   Z               Mass
    ------------   -----------------  -----------------  -----------------  -----------------
         C           -1.094089548134     0.037432800502    -0.000000398903    12.000000000000
         S            0.519288351866    -0.056468499498    -0.000000398903    31.972071174400
         H            0.954652451866     1.251494800502     0.000040601097     1.007825032230
         H           -1.467067548134     0.541250800502    -0.892232398903     1.007825032230
         H           -1.467120548134    -0.987404199498    -0.000500398903     1.007825032230
         H           -1.467143548134     0.540349800502     0.892709601097     1.007825032230

  Basis Set: AUG-CC-PVTZ
    Blend: AUG-CC-PVTZ
  Basis Set: (AUG-CC-PVTZ AUX)
    Blend: AUG-CC-PVTZ-JKFIT
	 Reference Energy          =    -437.7338288831247155 [Eh]
	 Singles Energy            =      -0.0000000000000000 [Eh]
	 Same-Spin Energy          =      -0.0953629324086190 [Eh]
	 Opposite-Spin Energy      =      -0.3352260488802490 [Eh]
	 Correlation Energy        =      -0.4305889812888680 [Eh]
	 Total Energy              =    -438.1644178644135650 [Eh]

	 ================> DF-SCS-MP2 Energies <==================
	-----------------------------------------------------------
	 SCS Same-Spin Scale       =       0.3333333333333333 [-]
	 SCS Opposite-Spin Scale   =       1.2000000000000000 [-]
	 SCS Same-Spin Energy      =      -0.0317876441362063 [Eh]
	 SCS Opposite-Spin Energy  =      -0.4022712586562988 [Eh]
	 SCS Correlation Energy    =      -0.4340589027925051 [Eh]
	 SCS Total Energy          =    -438.1678877859172303 [Eh]
	-----------------------------------------------------------

  Dipole Moment: [D]
     X:    -1.3316      Y:     0.8084      Z:    -0.0000     Total:     1.5578

*** Psi4 exiting successfully. Buy a developer a beer!
