                               Psi4 1.4a3.dev225

  ==> Input File <==

--------------------------------------------------------------------------
#psi4
#
memory 32 gb

molecule  {
0 1
  C       -1.1514980     0.0189760     0.0000000
  S        0.6615760    -0.0865720     0.0000000
  H        0.9058643     1.2822803     0.0000010
  H       -1.5245560     0.5221240    -0.8925240
  H       -1.5241930    -1.0059720    -0.0000190
  H       -1.5245560     0.5220900     0.8925430
units angstrom
no_reorient  #important for SAPT in psi4, default
symmetry c1  #important for SAPT in psi4, default
}

set PROPERTIES_ORIGIN ["COM"]
properties('MP2/aug-cc-pvtz', properties = ['dipole'])
--------------------------------------------------------------------------

    Molecular point group: c1
  Charge       = 0
  Multiplicity = 1
  Basis Set: AUG-CC-PVTZ
    Blend: AUG-CC-PVTZ
  Basis Set: (AUG-CC-PVTZ AUX)
    Blend: AUG-CC-PVTZ-JKFIT

    Orbital Energies [Eh]
    ---------------------

    Doubly Occupied:

       1A    -91.957892     2A    -11.259119     3A     -8.957766
       4A     -6.639045     5A     -6.638120     6A     -6.637087
       7A     -1.034939     8A     -0.861709     9A     -0.605220
      10A     -0.590979    11A     -0.523992    12A     -0.458821
      13A     -0.357448

  @DF-RHF Final Energy:  -437.75570682787827

   => Energetics <=

    Nuclear Repulsion Energy =             56.0714070392526267
    One-Electron Energy =                -714.6099519730640850
    Two-Electron Energy =                 220.7828381059331093
    Total Energy =                       -437.7557068278782708
  Basis Set: (AUG-CC-PVTZ AUX)
    Blend: AUG-CC-PVTZ-RI
    Molecular point group: c1

    Geometry (in Angstrom), charge = 0, multiplicity = 1:

       Center              X                  Y                   Z               Mass
    ------------   -----------------  -----------------  -----------------  -----------------
         C           -1.227281019376     0.044168370521    -0.000000020995    12.000000000000
         S            0.585792980624    -0.061379629479    -0.000000020995    31.972071174400
         H            0.830081280624     1.307472670521     0.000000979005     1.007825032230
         H           -1.600339019376     0.547316370521    -0.892524020995     1.007825032230
         H           -1.599976019376    -0.980779629479    -0.000019020995     1.007825032230
         H           -1.600339019376     0.547282370521     0.892542979005     1.007825032230

  Basis Set: AUG-CC-PVTZ
    Blend: AUG-CC-PVTZ
  Basis Set: (AUG-CC-PVTZ AUX)
    Blend: AUG-CC-PVTZ-JKFIT
	 Reference Energy          =    -437.7557068278782708 [Eh]
	 Singles Energy            =      -0.0000000000000000 [Eh]
	 Same-Spin Energy          =      -0.0936217523376840 [Eh]
	 Opposite-Spin Energy      =      -0.3351398330748318 [Eh]
	 Correlation Energy        =      -0.4287615854125158 [Eh]
	 Total Energy              =    -438.1844684132908014 [Eh]

	 ================> DF-SCS-MP2 Energies <==================
	-----------------------------------------------------------
	 SCS Same-Spin Scale       =       0.3333333333333333 [-]
	 SCS Opposite-Spin Scale   =       1.2000000000000000 [-]
	 SCS Same-Spin Energy      =      -0.0312072507792280 [Eh]
	 SCS Opposite-Spin Energy  =      -0.4021677996897981 [Eh]
	 SCS Correlation Energy    =      -0.4333750504690261 [Eh]
	 SCS Total Energy          =    -438.1890818783472810 [Eh]
	-----------------------------------------------------------

  Dipole Moment: [D]
     X:    -1.3365      Y:     0.7672      Z:     0.0000     Total:     1.5410

*** Psi4 exiting successfully. Buy a developer a beer!
