                               Psi4 1.3.2 release

  ==> Input File <==

--------------------------------------------------------------------------
#psi4
#
memory 32 gb

molecule  {
0 1
  C       -1.1514740     0.0189380     0.0000000
  S        0.6621642    -0.0715456    -0.0278957
  H        0.8972680     1.2330000     0.0000410
  H       -1.5244520     0.5227560    -0.8922320
  H       -1.5245050    -1.0058990    -0.0005000
  H       -1.5245280     0.5218550     0.8927100
units angstrom
no_reorient  #important for SAPT in psi4, default
symmetry c1  #important for SAPT in psi4, default
}

set PROPERTIES_ORIGIN ["COM"]
properties('MP2/aug-cc-pvtz', properties = ['dipole'])
--------------------------------------------------------------------------

    Molecular point group: c1
  Charge       = 0
  Multiplicity = 1
  Basis Set: AUG-CC-PVTZ
    Blend: AUG-CC-PVTZ
  Basis Set: (AUG-CC-PVTZ AUX)
    Blend: AUG-CC-PVTZ-JKFIT

    Orbital Energies [Eh]
    ---------------------

    Doubly Occupied:

       1A    -91.952776     2A    -11.259101     3A     -8.954229
       4A     -6.635657     5A     -6.634626     6A     -6.633543
       7A     -1.037981     8A     -0.868575     9A     -0.607650
      10A     -0.591033    11A     -0.531345    12A     -0.459352
      13A     -0.357378

  @DF-RHF Final Energy:  -437.75752812770384

   => Energetics <=

    Nuclear Repulsion Energy =             56.3902799738869618
    One-Electron Energy =                -715.2491260009702501
    Two-Electron Energy =                 221.1013178993793531
    Total Energy =                       -437.7575281277038926
  Basis Set: (AUG-CC-PVTZ AUX)
    Blend: AUG-CC-PVTZ-RI
    Molecular point group: c1

    Geometry (in Angstrom), charge = 0, multiplicity = 1:

       Center              X                  Y                   Z               Mass
    ------------   -----------------  -----------------  -----------------  -----------------
         C           -1.227470525160     0.035156482304     0.018579198356    12.000000000000
         S            0.586167674840    -0.055327117696    -0.009316501644    31.972071174400
         H            0.821271474840     1.249218482304     0.018620198356     1.007825032230
         H           -1.600448525160     0.538974482304    -0.873652801644     1.007825032230
         H           -1.600501525160    -0.989680517696     0.018079198356     1.007825032230
         H           -1.600524525160     0.538073482304     0.911289198356     1.007825032230

  Basis Set: AUG-CC-PVTZ
    Blend: AUG-CC-PVTZ
  Basis Set: (AUG-CC-PVTZ AUX)
    Blend: AUG-CC-PVTZ-JKFIT
	 Reference Energy          =    -437.7575281277038357 [Eh]
	 Singles Energy            =      -0.0000000000000000 [Eh]
	 Same-Spin Energy          =      -0.0936431078329451 [Eh]
	 Opposite-Spin Energy      =      -0.3347680350697665 [Eh]
	 Correlation Energy        =      -0.4284111429027116 [Eh]
	 Total Energy              =    -438.1859392706065250 [Eh]

	 ================> DF-SCS-MP2 Energies <==================
	-----------------------------------------------------------
	 SCS Same-Spin Scale       =       0.3333333333333333 [-]
	 SCS Opposite-Spin Scale   =       1.2000000000000000 [-]
	 SCS Same-Spin Energy      =      -0.0312143692776484 [Eh]
	 SCS Opposite-Spin Energy  =      -0.4017216420837198 [Eh]
	 SCS Correlation Energy    =      -0.4329360113613682 [Eh]
	 SCS Total Energy          =    -438.1904641390652273 [Eh]
	-----------------------------------------------------------

  Dipole Moment: [D]
     X:    -1.3405      Y:     0.7721      Z:     0.0305     Total:     1.5473

*** Psi4 exiting successfully. Buy a developer a beer!
