                               Psi4 1.3.2 release

  ==> Input File <==

--------------------------------------------------------------------------
#psi4
#
memory 32 gb

molecule  {
0 1
  C       -1.1514740     0.0189380     0.0000000
  S        0.6615660    -0.0865840     0.0000000
  H        0.9148515     1.3314420     0.0000441
  H       -1.5244520     0.5227560    -0.8922320
  H       -1.5245050    -1.0058990    -0.0005000
  H       -1.5245280     0.5218550     0.8927100
units angstrom
no_reorient  #important for SAPT in psi4, default
symmetry c1  #important for SAPT in psi4, default
}

set PROPERTIES_ORIGIN ["COM"]
properties('MP2/aug-cc-pvtz', properties = ['dipole'])
--------------------------------------------------------------------------

    Molecular point group: c1
  Charge       = 0
  Multiplicity = 1
  Basis Set: AUG-CC-PVTZ
    Blend: AUG-CC-PVTZ
  Basis Set: (AUG-CC-PVTZ AUX)
    Blend: AUG-CC-PVTZ-JKFIT

    Orbital Energies [Eh]
    ---------------------

    Doubly Occupied:

       1A    -91.961490     2A    -11.259316     3A     -8.960355
       4A     -6.641545     5A     -6.640658     6A     -6.639652
       7A     -1.033056     8A     -0.857201     9A     -0.603286
      10A     -0.591008    11A     -0.519649    12A     -0.457180
      13A     -0.357473

  @DF-RHF Final Energy:  -437.75199261698538

   => Energetics <=

    Nuclear Repulsion Energy =             55.8369230758689952
    One-Electron Energy =                -714.1340939904805509
    Two-Electron Energy =                 220.5451782976261654
    Total Energy =                       -437.7519926169853761
  Basis Set: (AUG-CC-PVTZ AUX)
    Blend: AUG-CC-PVTZ-RI
    Molecular point group: c1

    Geometry (in Angstrom), charge = 0, multiplicity = 1:

       Center              X                  Y                   Z               Mass
    ------------   -----------------  -----------------  -----------------  -----------------
         C           -1.227441264684     0.043105850712    -0.000000463987    12.000000000000
         S            0.585598735316    -0.062416149288    -0.000000463987    31.972071174400
         H            0.838884235316     1.355609850712     0.000043636013     1.007825032230
         H           -1.600419264684     0.546923850712    -0.892232463987     1.007825032230
         H           -1.600472264684    -0.981731149288    -0.000500463987     1.007825032230
         H           -1.600495264684     0.546022850712     0.892709536013     1.007825032230

  Basis Set: AUG-CC-PVTZ
    Blend: AUG-CC-PVTZ
  Basis Set: (AUG-CC-PVTZ AUX)
    Blend: AUG-CC-PVTZ-JKFIT
	 Reference Energy          =    -437.7519926169853761 [Eh]
	 Singles Energy            =      -0.0000000000000000 [Eh]
	 Same-Spin Energy          =      -0.0935933005323277 [Eh]
	 Opposite-Spin Energy      =      -0.3354760635094403 [Eh]
	 Correlation Energy        =      -0.4290693640417680 [Eh]
	 Total Energy              =    -438.1810619810271419 [Eh]

	 ================> DF-SCS-MP2 Energies <==================
	-----------------------------------------------------------
	 SCS Same-Spin Scale       =       0.3333333333333333 [-]
	 SCS Opposite-Spin Scale   =       1.2000000000000000 [-]
	 SCS Same-Spin Energy      =      -0.0311977668441092 [Eh]
	 SCS Opposite-Spin Energy  =      -0.4025712762113283 [Eh]
	 SCS Correlation Energy    =      -0.4337690430554376 [Eh]
	 SCS Total Energy          =    -438.1857616600408392 [Eh]
	-----------------------------------------------------------

  Dipole Moment: [D]
     X:    -1.3416      Y:     0.7591      Z:     0.0000     Total:     1.5414

*** Psi4 exiting successfully. Buy a developer a beer!
