                               Psi4 1.4a3.dev225

  ==> Input File <==

--------------------------------------------------------------------------
#psi4
#
memory 32 gb

molecule  {
0 1
  C       -1.1514980     0.0189760     0.0000000
  S        0.6615760    -0.0865720     0.0000000
  H        0.8935663     1.2133691     0.0000010
  H       -1.5245560     0.5221240    -0.8925240
  H       -1.5241930    -1.0059720    -0.0000190
  H       -1.5245560     0.5220900     0.8925430
units angstrom
no_reorient  #important for SAPT in psi4, default
symmetry c1  #important for SAPT in psi4, default
}

set PROPERTIES_ORIGIN ["COM"]
properties('MP2/aug-cc-pvtz', properties = ['dipole'])
--------------------------------------------------------------------------

    Molecular point group: c1
  Charge       = 0
  Multiplicity = 1
  Basis Set: AUG-CC-PVTZ
    Blend: AUG-CC-PVTZ
  Basis Set: (AUG-CC-PVTZ AUX)
    Blend: AUG-CC-PVTZ-JKFIT

    Orbital Energies [Eh]
    ---------------------

    Doubly Occupied:

       1A    -91.952469     2A    -11.258920     3A     -8.954057
       4A     -6.635496     5A     -6.634444     6A     -6.633357
       7A     -1.038380     8A     -0.868999     9A     -0.608317
      10A     -0.590937    11A     -0.530074    12A     -0.460609
      13A     -0.357561

  @DF-RHF Final Energy:  -437.75747967407722

   => Energetics <=

    Nuclear Repulsion Energy =             56.4267950202262227
    One-Electron Energy =                -715.3213098160140362
    Two-Electron Energy =                 221.1370351217105394
    Total Energy =                       -437.7574796740772740
  Basis Set: (AUG-CC-PVTZ AUX)
    Blend: AUG-CC-PVTZ-RI
    Molecular point group: c1

    Geometry (in Angstrom), charge = 0, multiplicity = 1:

       Center              X                  Y                   Z               Mass
    ------------   -----------------  -----------------  -----------------  -----------------
         C           -1.227022824339     0.045615152914    -0.000000020995    12.000000000000
         S            0.586051175661    -0.059932847086    -0.000000020995    31.972071174400
         H            0.818041475661     1.240008252914     0.000000979005     1.007825032230
         H           -1.600080824339     0.548763152914    -0.892524020995     1.007825032230
         H           -1.599717824339    -0.979332847086    -0.000019020995     1.007825032230
         H           -1.600080824339     0.548729152914     0.892542979005     1.007825032230

  Basis Set: AUG-CC-PVTZ
    Blend: AUG-CC-PVTZ
  Basis Set: (AUG-CC-PVTZ AUX)
    Blend: AUG-CC-PVTZ-JKFIT
	 Reference Energy          =    -437.7574796740772172 [Eh]
	 Singles Energy            =      -0.0000000000000000 [Eh]
	 Same-Spin Energy          =      -0.0936768085436861 [Eh]
	 Opposite-Spin Energy      =      -0.3347987381502934 [Eh]
	 Correlation Energy        =      -0.4284755466939795 [Eh]
	 Total Energy              =    -438.1859552207711772 [Eh]

	 ================> DF-SCS-MP2 Energies <==================
	-----------------------------------------------------------
	 SCS Same-Spin Scale       =       0.3333333333333333 [-]
	 SCS Opposite-Spin Scale   =       1.2000000000000000 [-]
	 SCS Same-Spin Energy      =      -0.0312256028478954 [Eh]
	 SCS Opposite-Spin Energy  =      -0.4017584857803521 [Eh]
	 SCS Correlation Energy    =      -0.4329840886282474 [Eh]
	 SCS Total Energy          =    -438.1904637627054626 [Eh]
	-----------------------------------------------------------

  Dipole Moment: [D]
     X:    -1.3312      Y:     0.7764      Z:     0.0000     Total:     1.5410

*** Psi4 exiting successfully. Buy a developer a beer!
