                               Psi4 1.3.2 release

  ==> Input File <==

--------------------------------------------------------------------------
#psi4
#
memory 32 gb

molecule  {
0 1
  C       -1.1514740     0.0189380     0.0000000
  S        0.6536549    -0.1463704     0.1114977
  H        0.8972680     1.2330000     0.0000410
  H       -1.5244520     0.5227560    -0.8922320
  H       -1.5245050    -1.0058990    -0.0005000
  H       -1.5245280     0.5218550     0.8927100
units angstrom
no_reorient  #important for SAPT in psi4, default
symmetry c1  #important for SAPT in psi4, default
}

set PROPERTIES_ORIGIN ["COM"]
properties('MP2/aug-cc-pvtz', properties = ['dipole'])
--------------------------------------------------------------------------

    Molecular point group: c1
  Charge       = 0
  Multiplicity = 1
  Basis Set: AUG-CC-PVTZ
    Blend: AUG-CC-PVTZ
  Basis Set: (AUG-CC-PVTZ AUX)
    Blend: AUG-CC-PVTZ-JKFIT

    Orbital Energies [Eh]
    ---------------------

    Doubly Occupied:

       1A    -91.959523     2A    -11.258505     3A     -8.959063
       4A     -6.640304     5A     -6.639351     6A     -6.638332
       7A     -1.034860     8A     -0.859668     9A     -0.606412
      10A     -0.590586    11A     -0.515149    12A     -0.463232
      13A     -0.357845

  @DF-RHF Final Energy:  -437.75357584137504

   => Energetics <=

    Nuclear Repulsion Energy =             56.0438825753563208
    One-Electron Energy =                -714.5492531375421095
    Two-Electron Energy =                 220.7517947208107216
    Total Energy =                       -437.7535758413750955
  Basis Set: (AUG-CC-PVTZ AUX)
    Blend: AUG-CC-PVTZ-RI
    Molecular point group: c1

    Geometry (in Angstrom), charge = 0, multiplicity = 1:

       Center              X                  Y                   Z               Mass
    ------------   -----------------  -----------------  -----------------  -----------------
         C           -1.221803007695     0.084992645187    -0.074262108099    12.000000000000
         S            0.583325892305    -0.080315754813     0.037235591901    31.972071174400
         H            0.826938992305     1.299054645187    -0.074221108099     1.007825032230
         H           -1.594781007695     0.588810645187    -0.966494108099     1.007825032230
         H           -1.594834007695    -0.939844354813    -0.074762108099     1.007825032230
         H           -1.594857007695     0.587909645187     0.818447891901     1.007825032230

  Basis Set: AUG-CC-PVTZ
    Blend: AUG-CC-PVTZ
  Basis Set: (AUG-CC-PVTZ AUX)
    Blend: AUG-CC-PVTZ-JKFIT
	 Reference Energy          =    -437.7535758413750386 [Eh]
	 Singles Energy            =      -0.0000000000000000 [Eh]
	 Same-Spin Energy          =      -0.0937826416426809 [Eh]
	 Opposite-Spin Energy      =      -0.3355389280456904 [Eh]
	 Correlation Energy        =      -0.4293215696883713 [Eh]
	 Total Energy              =    -438.1828974110634363 [Eh]

	 ================> DF-SCS-MP2 Energies <==================
	-----------------------------------------------------------
	 SCS Same-Spin Scale       =       0.3333333333333333 [-]
	 SCS Opposite-Spin Scale   =       1.2000000000000000 [-]
	 SCS Same-Spin Energy      =      -0.0312608805475603 [Eh]
	 SCS Opposite-Spin Energy  =      -0.4026467136548285 [Eh]
	 SCS Correlation Energy    =      -0.4339075942023887 [Eh]
	 SCS Total Energy          =    -438.1874834355774055 [Eh]
	-----------------------------------------------------------

  Dipole Moment: [D]
     X:    -1.3003      Y:     0.7771      Z:    -0.1133     Total:     1.5190

*** Psi4 exiting successfully. Buy a developer a beer!
