                               Psi4 1.3.2 release

  ==> Input File <==

--------------------------------------------------------------------------
#psi4
#
memory 32 gb

molecule  {
0 1
  C       -1.1514740     0.0189380     0.0000000
  S        0.7613971    -0.0923943     0.0000000
  H        0.8972680     1.2330000     0.0000410
  H       -1.5244520     0.5227560    -0.8922320
  H       -1.5245050    -1.0058990    -0.0005000
  H       -1.5245280     0.5218550     0.8927100
units angstrom
no_reorient  #important for SAPT in psi4, default
symmetry c1  #important for SAPT in psi4, default
}

set PROPERTIES_ORIGIN ["COM"]
properties('MP2/aug-cc-pvtz', properties = ['dipole'])
--------------------------------------------------------------------------

    Molecular point group: c1
  Charge       = 0
  Multiplicity = 1
  Basis Set: AUG-CC-PVTZ
    Blend: AUG-CC-PVTZ
  Basis Set: (AUG-CC-PVTZ AUX)
    Blend: AUG-CC-PVTZ-JKFIT

    Orbital Energies [Eh]
    ---------------------

    Doubly Occupied:

       1A    -91.957953     2A    -11.266648     3A     -8.957616
       4A     -6.638869     5A     -6.637861     6A     -6.636832
       7A     -1.017769     8A     -0.874773     9A     -0.599794
      10A     -0.587005    11A     -0.518190    12A     -0.459580
      13A     -0.360890

  @DF-RHF Final Energy:  -437.75312784081933

   => Energetics <=

    Nuclear Repulsion Energy =             54.5190719499690388
    One-Electron Energy =                -711.5168381779927813
    Two-Electron Energy =                 219.2446383872043612
    Total Energy =                       -437.7531278408193316
  Basis Set: (AUG-CC-PVTZ AUX)
    Blend: AUG-CC-PVTZ-RI
    Molecular point group: c1

    Geometry (in Angstrom), charge = 0, multiplicity = 1:

       Center              X                  Y                   Z               Mass
    ------------   -----------------  -----------------  -----------------  -----------------
         C           -1.293563411045     0.049042509519    -0.000000398903    12.000000000000
         S            0.619307688955    -0.062289790481    -0.000000398903    31.972071174400
         H            0.755178588955     1.263104509519     0.000040601097     1.007825032230
         H           -1.666541411045     0.552860509519    -0.892232398903     1.007825032230
         H           -1.666594411045    -0.975794490481    -0.000500398903     1.007825032230
         H           -1.666617411045     0.551959509519     0.892709601097     1.007825032230

  Basis Set: AUG-CC-PVTZ
    Blend: AUG-CC-PVTZ
  Basis Set: (AUG-CC-PVTZ AUX)
    Blend: AUG-CC-PVTZ-JKFIT
	 Reference Energy          =    -437.7531278408193316 [Eh]
	 Singles Energy            =      -0.0000000000000000 [Eh]
	 Same-Spin Energy          =      -0.0932159353645585 [Eh]
	 Opposite-Spin Energy      =      -0.3354948368363129 [Eh]
	 Correlation Energy        =      -0.4287107722008713 [Eh]
	 Total Energy              =    -438.1818386130202043 [Eh]

	 ================> DF-SCS-MP2 Energies <==================
	-----------------------------------------------------------
	 SCS Same-Spin Scale       =       0.3333333333333333 [-]
	 SCS Opposite-Spin Scale   =       1.2000000000000000 [-]
	 SCS Same-Spin Energy      =      -0.0310719784548528 [Eh]
	 SCS Opposite-Spin Energy  =      -0.4025938042035754 [Eh]
	 SCS Correlation Energy    =      -0.4336657826584283 [Eh]
	 SCS Total Energy          =    -438.1867936234777403 [Eh]
	-----------------------------------------------------------

  Dipole Moment: [D]
     X:    -1.3800      Y:     0.7483      Z:     0.0000     Total:     1.5698

*** Psi4 exiting successfully. Buy a developer a beer!
