                               Psi4 1.3.2 release

  ==> Input File <==

--------------------------------------------------------------------------
#psi4
#
memory 32 gb

molecule  {
0 1
  C       -1.1396967     0.1451522     0.0000039
  S        0.6615660    -0.0865840     0.0000000
  H        0.8972680     1.2330000     0.0000410
  H       -1.5244520     0.5227560    -0.8922320
  H       -1.5245050    -1.0058990    -0.0005000
  H       -1.5245280     0.5218550     0.8927100
units angstrom
no_reorient  #important for SAPT in psi4, default
symmetry c1  #important for SAPT in psi4, default
}

set PROPERTIES_ORIGIN ["COM"]
properties('MP2/aug-cc-pvtz', properties = ['dipole'])
--------------------------------------------------------------------------

    Molecular point group: c1
  Charge       = 0
  Multiplicity = 1
  Basis Set: AUG-CC-PVTZ
    Blend: AUG-CC-PVTZ
  Basis Set: (AUG-CC-PVTZ AUX)
    Blend: AUG-CC-PVTZ-JKFIT

    Orbital Energies [Eh]
    ---------------------

    Doubly Occupied:

       1A    -91.956471     2A    -11.260790     3A     -8.957276
       4A     -6.638620     5A     -6.637545     6A     -6.636484
       7A     -1.038179     8A     -0.867403     9A     -0.620945
      10A     -0.592418    11A     -0.496782    12A     -0.466795
      13A     -0.361902

  @DF-RHF Final Energy:  -437.74231244282026

   => Energetics <=

    Nuclear Repulsion Energy =             56.3359590737901641
    One-Electron Energy =                -715.0933225250468013
    Two-Electron Energy =                 221.0150510084363873
    Total Energy =                       -437.7423124428202641
  Basis Set: (AUG-CC-PVTZ AUX)
    Blend: AUG-CC-PVTZ-RI
    Molecular point group: c1

    Geometry (in Angstrom), charge = 0, multiplicity = 1:

       Center              X                  Y                   Z               Mass
    ------------   -----------------  -----------------  -----------------  -----------------
         C           -1.218238919425     0.139835494738     0.000002526166    12.000000000000
         S            0.583023780575    -0.091900705262    -0.000001373834    31.972071174400
         H            0.818725780575     1.227683294738     0.000039626166     1.007825032230
         H           -1.602994219425     0.517439294738    -0.892233373834     1.007825032230
         H           -1.603047219425    -1.011215705262    -0.000501373834     1.007825032230
         H           -1.603070219425     0.516538294738     0.892708626166     1.007825032230

  Basis Set: AUG-CC-PVTZ
    Blend: AUG-CC-PVTZ
  Basis Set: (AUG-CC-PVTZ AUX)
    Blend: AUG-CC-PVTZ-JKFIT
	 Reference Energy          =    -437.7423124428202641 [Eh]
	 Singles Energy            =      -0.0000000000000000 [Eh]
	 Same-Spin Energy          =      -0.0941751392386508 [Eh]
	 Opposite-Spin Energy      =      -0.3361613895078033 [Eh]
	 Correlation Energy        =      -0.4303365287464541 [Eh]
	 Total Energy              =    -438.1726489715667299 [Eh]

	 ================> DF-SCS-MP2 Energies <==================
	-----------------------------------------------------------
	 SCS Same-Spin Scale       =       0.3333333333333333 [-]
	 SCS Opposite-Spin Scale   =       1.2000000000000000 [-]
	 SCS Same-Spin Energy      =      -0.0313917130795503 [Eh]
	 SCS Opposite-Spin Energy  =      -0.4033936674093640 [Eh]
	 SCS Correlation Energy    =      -0.4347853804889142 [Eh]
	 SCS Total Energy          =    -438.1770978233091682 [Eh]
	-----------------------------------------------------------

  Dipole Moment: [D]
     X:    -1.2589      Y:     0.7777      Z:     0.0000     Total:     1.4797

*** Psi4 exiting successfully. Buy a developer a beer!
