                               Psi4 1.3.2 release

  ==> Input File <==

--------------------------------------------------------------------------
#psi4
#
memory 32 gb

molecule  {
0 1
  C       -1.1493563     0.0505638     0.0000010
  S        0.6615660    -0.0865840     0.0000000
  H        0.8972680     1.2330000     0.0000410
  H       -1.5244520     0.5227560    -0.8922320
  H       -1.5245050    -1.0058990    -0.0005000
  H       -1.5245280     0.5218550     0.8927100
units angstrom
no_reorient  #important for SAPT in psi4, default
symmetry c1  #important for SAPT in psi4, default
}

set PROPERTIES_ORIGIN ["COM"]
properties('MP2/aug-cc-pvtz', properties = ['dipole'])
--------------------------------------------------------------------------

    Molecular point group: c1
  Charge       = 0
  Multiplicity = 1
  Basis Set: AUG-CC-PVTZ
    Blend: AUG-CC-PVTZ
  Basis Set: (AUG-CC-PVTZ AUX)
    Blend: AUG-CC-PVTZ-JKFIT

    Orbital Energies [Eh]
    ---------------------

    Doubly Occupied:

       1A    -91.954476     2A    -11.259017     3A     -8.955487
       4A     -6.636865     5A     -6.635841     6A     -6.634775
       7A     -1.037294     8A     -0.866505     9A     -0.603305
      10A     -0.598704    11A     -0.520315    12A     -0.462405
      13A     -0.358612

  @DF-RHF Final Energy:  -437.75627827751970

   => Energetics <=

    Nuclear Repulsion Energy =             56.3256513820256473
    One-Electron Energy =                -715.1166626882910577
    Two-Electron Energy =                 221.0347330287457339
    Total Energy =                       -437.7562782775196979
  Basis Set: (AUG-CC-PVTZ AUX)
    Blend: AUG-CC-PVTZ-RI
    Molecular point group: c1

    Geometry (in Angstrom), charge = 0, multiplicity = 1:

       Center              X                  Y                   Z               Mass
    ------------   -----------------  -----------------  -----------------  -----------------
         C           -1.225483789025     0.068892533989     0.000000351115    12.000000000000
         S            0.585438510975    -0.068255266011    -0.000000648885    31.972071174400
         H            0.821140510975     1.251328733989     0.000040351115     1.007825032230
         H           -1.600579489025     0.541084733989    -0.892232648885     1.007825032230
         H           -1.600632489025    -0.987570266011    -0.000500648885     1.007825032230
         H           -1.600655489025     0.540183733989     0.892709351115     1.007825032230

  Basis Set: AUG-CC-PVTZ
    Blend: AUG-CC-PVTZ
  Basis Set: (AUG-CC-PVTZ AUX)
    Blend: AUG-CC-PVTZ-JKFIT
	 Reference Energy          =    -437.7562782775196979 [Eh]
	 Singles Energy            =      -0.0000000000000000 [Eh]
	 Same-Spin Energy          =      -0.0937472509820435 [Eh]
	 Opposite-Spin Energy      =      -0.3350631054447118 [Eh]
	 Correlation Energy        =      -0.4288103564267553 [Eh]
	 Total Energy              =    -438.1850886339464637 [Eh]

	 ================> DF-SCS-MP2 Energies <==================
	-----------------------------------------------------------
	 SCS Same-Spin Scale       =       0.3333333333333333 [-]
	 SCS Opposite-Spin Scale   =       1.2000000000000000 [-]
	 SCS Same-Spin Energy      =      -0.0312490836606812 [Eh]
	 SCS Opposite-Spin Energy  =      -0.4020757265336541 [Eh]
	 SCS Correlation Energy    =      -0.4333248101943353 [Eh]
	 SCS Total Energy          =    -438.1896030877140333 [Eh]
	-----------------------------------------------------------

  Dipole Moment: [D]
     X:    -1.3182      Y:     0.7732      Z:     0.0000     Total:     1.5282

*** Psi4 exiting successfully. Buy a developer a beer!
