                               Psi4 1.3.2 release

  ==> Input File <==

--------------------------------------------------------------------------
#psi4
#
memory 32 gb

molecule  {
0 1
  C       -1.1514740     0.0189380     0.0000000
  S        0.6622099    -0.0564797    -0.0557828
  H        0.8972680     1.2330000     0.0000410
  H       -1.5244520     0.5227560    -0.8922320
  H       -1.5245050    -1.0058990    -0.0005000
  H       -1.5245280     0.5218550     0.8927100
units angstrom
no_reorient  #important for SAPT in psi4, default
symmetry c1  #important for SAPT in psi4, default
}

set PROPERTIES_ORIGIN ["COM"]
properties('MP2/aug-cc-pvtz', properties = ['dipole'])
--------------------------------------------------------------------------

    Molecular point group: c1
  Charge       = 0
  Multiplicity = 1
  Basis Set: AUG-CC-PVTZ
    Blend: AUG-CC-PVTZ
  Basis Set: (AUG-CC-PVTZ AUX)
    Blend: AUG-CC-PVTZ-JKFIT

    Orbital Energies [Eh]
    ---------------------

    Doubly Occupied:

       1A    -91.951523     2A    -11.259220     3A     -8.953371
       4A     -6.634843     5A     -6.633776     6A     -6.632683
       7A     -1.038697     8A     -0.870324     9A     -0.607928
      10A     -0.591184    11A     -0.534083    12A     -0.458592
      13A     -0.357231

  @DF-RHF Final Energy:  -437.75726748399785

   => Energetics <=

    Nuclear Repulsion Energy =             56.4578816499963949
    One-Electron Energy =                -715.3833850346580903
    Two-Electron Energy =                 221.1682359006638876
    Total Energy =                       -437.7572674839978504
  Basis Set: (AUG-CC-PVTZ AUX)
    Blend: AUG-CC-PVTZ-RI
    Molecular point group: c1

    Geometry (in Angstrom), charge = 0, multiplicity = 1:

       Center              X                  Y                   Z               Mass
    ------------   -----------------  -----------------  -----------------  -----------------
         C           -1.227500963099     0.025122019848     0.037153067687    12.000000000000
         S            0.586182936901    -0.050295680152    -0.018629732313    31.972071174400
         H            0.821241036901     1.239184019848     0.037194067687     1.007825032230
         H           -1.600478963099     0.528940019848    -0.855078932313     1.007825032230
         H           -1.600531963099    -0.999714980152     0.036653067687     1.007825032230
         H           -1.600554963099     0.528039019848     0.929863067687     1.007825032230

  Basis Set: AUG-CC-PVTZ
    Blend: AUG-CC-PVTZ
  Basis Set: (AUG-CC-PVTZ AUX)
    Blend: AUG-CC-PVTZ-JKFIT
	 Reference Energy          =    -437.7572674839978504 [Eh]
	 Singles Energy            =      -0.0000000000000000 [Eh]
	 Same-Spin Energy          =      -0.0936340685180181 [Eh]
	 Opposite-Spin Energy      =      -0.3346768637709976 [Eh]
	 Correlation Energy        =      -0.4283109322890157 [Eh]
	 Total Energy              =    -438.1855784162868872 [Eh]

	 ================> DF-SCS-MP2 Energies <==================
	-----------------------------------------------------------
	 SCS Same-Spin Scale       =       0.3333333333333333 [-]
	 SCS Opposite-Spin Scale   =       1.2000000000000000 [-]
	 SCS Same-Spin Energy      =      -0.0312113561726727 [Eh]
	 SCS Opposite-Spin Energy  =      -0.4016122365251971 [Eh]
	 SCS Correlation Energy    =      -0.4328235926978699 [Eh]
	 SCS Total Energy          =    -438.1900910766956940 [Eh]
	-----------------------------------------------------------

  Dipole Moment: [D]
     X:    -1.3484      Y:     0.7691      Z:     0.0618     Total:     1.5536

*** Psi4 exiting successfully. Buy a developer a beer!
