                               Psi4 1.3.2 release

  ==> Input File <==

--------------------------------------------------------------------------
#psi4
#
memory 32 gb

molecule  {
0 1
  C       -1.1514740     0.0189380     0.0000000
  S        0.6615660    -0.0865840     0.0000000
  H        0.8621009     1.0361161     0.0000349
  H       -1.5244520     0.5227560    -0.8922320
  H       -1.5245050    -1.0058990    -0.0005000
  H       -1.5245280     0.5218550     0.8927100
units angstrom
no_reorient  #important for SAPT in psi4, default
symmetry c1  #important for SAPT in psi4, default
}

set PROPERTIES_ORIGIN ["COM"]
properties('MP2/aug-cc-pvtz', properties = ['dipole'])
--------------------------------------------------------------------------

    Molecular point group: c1
  Charge       = 0
  Multiplicity = 1
  Basis Set: AUG-CC-PVTZ
    Blend: AUG-CC-PVTZ
  Basis Set: (AUG-CC-PVTZ AUX)
    Blend: AUG-CC-PVTZ-JKFIT

    Orbital Energies [Eh]
    ---------------------

    Doubly Occupied:

       1A    -91.936051     2A    -11.258733     3A     -8.944436
       4A     -6.626818     5A     -6.624338     6A     -6.623155
       7A     -1.053397     8A     -0.892307     9A     -0.617711
      10A     -0.591053    11A     -0.543612    12A     -0.463564
      13A     -0.358644

  @DF-RHF Final Energy:  -437.73073002434694

   => Energetics <=

    Nuclear Repulsion Energy =             57.5234806874508635
    One-Electron Energy =                -717.4407824024239062
    Two-Electron Energy =                 222.1865716906261241
    Total Energy =                       -437.7307300243469399
  Basis Set: (AUG-CC-PVTZ AUX)
    Blend: AUG-CC-PVTZ-RI
    Molecular point group: c1

    Geometry (in Angstrom), charge = 0, multiplicity = 1:

       Center              X                  Y                   Z               Mass
    ------------   -----------------  -----------------  -----------------  -----------------
         C           -1.226333772153     0.049306182618    -0.000000270834    12.000000000000
         S            0.586706227847    -0.056215817382    -0.000000270834    31.972071174400
         H            0.787241127847     1.066484282618     0.000034629166     1.007825032230
         H           -1.599311772153     0.553124182618    -0.892232270834     1.007825032230
         H           -1.599364772153    -0.975530817382    -0.000500270834     1.007825032230
         H           -1.599387772153     0.552223182618     0.892709729166     1.007825032230

  Basis Set: AUG-CC-PVTZ
    Blend: AUG-CC-PVTZ
  Basis Set: (AUG-CC-PVTZ AUX)
    Blend: AUG-CC-PVTZ-JKFIT
	 Reference Energy          =    -437.7307300243469399 [Eh]
	 Singles Energy            =      -0.0000000000000000 [Eh]
	 Same-Spin Energy          =      -0.0939304848414665 [Eh]
	 Opposite-Spin Energy      =      -0.3346884179519132 [Eh]
	 Correlation Energy        =      -0.4286189027933797 [Eh]
	 Total Energy              =    -438.1593489271403428 [Eh]

	 ================> DF-SCS-MP2 Energies <==================
	-----------------------------------------------------------
	 SCS Same-Spin Scale       =       0.3333333333333333 [-]
	 SCS Opposite-Spin Scale   =       1.2000000000000000 [-]
	 SCS Same-Spin Energy      =      -0.0313101616138222 [Eh]
	 SCS Opposite-Spin Energy  =      -0.4016261015422959 [Eh]
	 SCS Correlation Energy    =      -0.4329362631561181 [Eh]
	 SCS Total Energy          =    -438.1636662875030765 [Eh]
	-----------------------------------------------------------

  Dipole Moment: [D]
     X:    -1.3278      Y:     0.7881      Z:     0.0000     Total:     1.5441

*** Psi4 exiting successfully. Buy a developer a beer!
