                               Psi4 1.3.2 release

  ==> Input File <==

--------------------------------------------------------------------------
#psi4
#
memory 32 gb

molecule  {
0 1
  C       -1.1514740     0.0189380     0.0000000
  S        0.6615660    -0.0865840     0.0000000
  H        0.9324351     1.4298839     0.0000471
  H       -1.5244520     0.5227560    -0.8922320
  H       -1.5245050    -1.0058990    -0.0005000
  H       -1.5245280     0.5218550     0.8927100
units angstrom
no_reorient  #important for SAPT in psi4, default
symmetry c1  #important for SAPT in psi4, default
}

set PROPERTIES_ORIGIN ["COM"]
properties('MP2/aug-cc-pvtz', properties = ['dipole'])
--------------------------------------------------------------------------

    Molecular point group: c1
  Charge       = 0
  Multiplicity = 1
  Basis Set: AUG-CC-PVTZ
    Blend: AUG-CC-PVTZ
  Basis Set: (AUG-CC-PVTZ AUX)
    Blend: AUG-CC-PVTZ-JKFIT

    Orbital Energies [Eh]
    ---------------------

    Doubly Occupied:

       1A    -91.968084     2A    -11.259812     3A     -8.965353
       4A     -6.646386     5A     -6.645533     6A     -6.644542
       7A     -1.030417     8A     -0.849870     9A     -0.600134
      10A     -0.591262    11A     -0.511343    12A     -0.452751
      13A     -0.357812

  @DF-RHF Final Energy:  -437.74042149316739

   => Energetics <=

    Nuclear Repulsion Energy =             55.4097376280410430
    One-Electron Energy =                -713.2537193974130787
    Two-Electron Energy =                 220.1035602762046324
    Total Energy =                       -437.7404214931673891
  Basis Set: (AUG-CC-PVTZ AUX)
    Blend: AUG-CC-PVTZ-RI
    Molecular point group: c1

    Geometry (in Angstrom), charge = 0, multiplicity = 1:

       Center              X                  Y                   Z               Mass
    ------------   -----------------  -----------------  -----------------  -----------------
         C           -1.227810430260     0.041039074810    -0.000000526971    12.000000000000
         S            0.585229569740    -0.064482925190    -0.000000526971    31.972071174400
         H            0.856098669740     1.451984974810     0.000046573029     1.007825032230
         H           -1.600788430260     0.544857074810    -0.892232526971     1.007825032230
         H           -1.600841430260    -0.983797925190    -0.000500526971     1.007825032230
         H           -1.600864430260     0.543956074810     0.892709473029     1.007825032230

  Basis Set: AUG-CC-PVTZ
    Blend: AUG-CC-PVTZ
  Basis Set: (AUG-CC-PVTZ AUX)
    Blend: AUG-CC-PVTZ-JKFIT
	 Reference Energy          =    -437.7404214931673891 [Eh]
	 Singles Energy            =      -0.0000000000000000 [Eh]
	 Same-Spin Energy          =      -0.0935536633091220 [Eh]
	 Opposite-Spin Energy      =      -0.3363560891797441 [Eh]
	 Correlation Energy        =      -0.4299097524888661 [Eh]
	 Total Energy              =    -438.1703312456562571 [Eh]

	 ================> DF-SCS-MP2 Energies <==================
	-----------------------------------------------------------
	 SCS Same-Spin Scale       =       0.3333333333333333 [-]
	 SCS Opposite-Spin Scale   =       1.2000000000000000 [-]
	 SCS Same-Spin Energy      =      -0.0311845544363740 [Eh]
	 SCS Opposite-Spin Energy  =      -0.4036273070156929 [Eh]
	 SCS Correlation Energy    =      -0.4348118614520670 [Eh]
	 SCS Total Energy          =    -438.1752333546194791 [Eh]
	-----------------------------------------------------------

  Dipole Moment: [D]
     X:    -1.3550      Y:     0.7376      Z:    -0.0000     Total:     1.5428

*** Psi4 exiting successfully. Buy a developer a beer!
