                               Psi4 1.3.2 release

  ==> Input File <==

--------------------------------------------------------------------------
#psi4
#
memory 32 gb

molecule  {
0 1
  O       -2.3650430    -0.4218480    -0.0057540
  O        2.4536110    -0.2813640    -0.0931210
  C        0.0022180    -0.3452320    -0.0325630
  C       -1.3055061     0.4204438     0.0110008
  C        1.3087464     0.4347460     0.0260748
  H       -0.0166520    -1.0502680     0.8082600
  H        0.0130480    -0.9372200    -0.9525790
  H       -1.2783560     1.1031170     0.9279430
  H       -1.2958190     1.1699640    -0.8466950
  H        1.2819000     1.0960400     0.9568030
  H        1.2985200     1.2029780    -0.8084410
  H       -3.1799330     0.1070520    -0.0035800
  H        2.4407780    -0.9321410     0.6289100
units angstrom
no_reorient  #important for SAPT in psi4, default
symmetry c1  #important for SAPT in psi4, default
}

set PROPERTIES_ORIGIN ["COM"]
properties('MP2/aug-cc-pvtz', properties = ['dipole'])
--------------------------------------------------------------------------

    Molecular point group: c1
  Charge       = 0
  Multiplicity = 1
  Basis Set: AUG-CC-PVTZ
    Blend: AUG-CC-PVTZ
  Basis Set: (AUG-CC-PVTZ AUX)
    Blend: AUG-CC-PVTZ-JKFIT

    Orbital Energies [Eh]
    ---------------------

    Doubly Occupied:

       1A    -20.572152     2A    -20.568502     3A    -11.287675
       4A    -11.282060     5A    -11.220803     6A     -1.393637
       7A     -1.388934     8A     -1.044873     9A     -0.901970
      10A     -0.814170    11A     -0.725458    12A     -0.692896
      13A     -0.651511    14A     -0.631785    15A     -0.605117
      16A     -0.576666    17A     -0.537784    18A     -0.479136
      19A     -0.469046    20A     -0.435886    21A     -0.433377

  @DF-RHF Final Energy:  -268.06229820381441

   => Energetics <=

    Nuclear Repulsion Energy =            186.0447829336268626
    One-Electron Energy =                -734.7872897032485753
    Two-Electron Energy =                 280.6802085658073338
    Total Energy =                       -268.0622982038144073
  Basis Set: (AUG-CC-PVTZ AUX)
    Blend: AUG-CC-PVTZ-RI
    Molecular point group: c1

    Geometry (in Angstrom), charge = 0, multiplicity = 1:

       Center              X                  Y                   Z               Mass
    ------------   -----------------  -----------------  -----------------  -----------------
         O           -2.374771288197    -0.377733275391     0.004911857174    15.994914619570
         O            2.443882711803    -0.237249275391    -0.082455142826    15.994914619570
         C           -0.007510288197    -0.301117275391    -0.021897142826    12.000000000000
         C           -1.315234388197     0.464558524609     0.021666657174    12.000000000000
         C            1.299018111803     0.478860724609     0.036740657174    12.000000000000
         H           -0.026380288197    -1.006153275391     0.818925857174     1.007825032230
         H            0.003319711803    -0.893105275391    -0.941913142826     1.007825032230
         H           -1.288084288197     1.147231724609     0.938608857174     1.007825032230
         H           -1.305547288197     1.214078724609    -0.836029142826     1.007825032230
         H            1.272171711803     1.140154724609     0.967468857174     1.007825032230
         H            1.288791711803     1.247092724609    -0.797775142826     1.007825032230
         H           -3.189661288197     0.151166724609     0.007085857174     1.007825032230
         H            2.431049711803    -0.888026275391     0.639575857174     1.007825032230

  Basis Set: AUG-CC-PVTZ
    Blend: AUG-CC-PVTZ
  Basis Set: (AUG-CC-PVTZ AUX)
    Blend: AUG-CC-PVTZ-JKFIT
	 Reference Energy          =    -268.0622982038144073 [Eh]
	 Singles Energy            =      -0.0000000000000000 [Eh]
	 Same-Spin Energy          =      -0.2585880648953459 [Eh]
	 Opposite-Spin Energy      =      -0.8567113823937733 [Eh]
	 Correlation Energy        =      -1.1152994472891193 [Eh]
	 Total Energy              =    -269.1775976511035537 [Eh]

	 ================> DF-SCS-MP2 Energies <==================
	-----------------------------------------------------------
	 SCS Same-Spin Scale       =       0.3333333333333333 [-]
	 SCS Opposite-Spin Scale   =       1.2000000000000000 [-]
	 SCS Same-Spin Energy      =      -0.0861960216317820 [Eh]
	 SCS Opposite-Spin Energy  =      -1.0280536588725280 [Eh]
	 SCS Correlation Energy    =      -1.1142496805043098 [Eh]
	 SCS Total Energy          =    -269.1765478843187225 [Eh]
	-----------------------------------------------------------

  Dipole Moment: [D]
     X:    -1.4204      Y:     1.0076      Z:     1.0728     Total:     2.0454

*** Psi4 exiting successfully. Buy a developer a beer!
