                               Psi4 1.3.2 release

  ==> Input File <==

--------------------------------------------------------------------------
#psi4
#
memory 32 gb

molecule  {
0 1
  O       -2.3650430    -0.4218480    -0.0057540
  O        2.4536110    -0.2813640    -0.0931210
  C        0.0022180    -0.3452320    -0.0325630
  C       -1.2635790     0.4876730     0.0156730
  C        1.2660220     0.5019220     0.0302860
  H       -0.0166520    -1.0502680     0.8082600
  H        0.0130480    -0.9372200    -0.9525790
  H       -1.2783560     1.1031170     0.9279430
  H       -1.2958190     1.1699640    -0.8466950
  H        1.2819000     1.0960400     0.9568030
  H        1.2985200     1.2029780    -0.8084410
  H       -3.1799330     0.1070520    -0.0035800
  H        2.4407780    -0.9321410     0.6289100
units angstrom
no_reorient  #important for SAPT in psi4, default
symmetry c1  #important for SAPT in psi4, default
}

set PROPERTIES_ORIGIN ["COM"]
properties('MP2/aug-cc-pvtz', properties = ['dipole'])
--------------------------------------------------------------------------

    Molecular point group: c1
  Charge       = 0
  Multiplicity = 1
  Basis Set: AUG-CC-PVTZ
    Blend: AUG-CC-PVTZ
  Basis Set: (AUG-CC-PVTZ AUX)
    Blend: AUG-CC-PVTZ-JKFIT

    Orbital Energies [Eh]
    ---------------------

    Doubly Occupied:

       1A    -20.564991     2A    -20.559573     3A    -11.283859
       4A    -11.278640     5A    -11.223790     6A     -1.361490
       7A     -1.355785     8A     -1.051414     9A     -0.906027
      10A     -0.819083    11A     -0.705573    12A     -0.686485
      13A     -0.648375    14A     -0.612270    15A     -0.591847
      16A     -0.559656    17A     -0.529688    18A     -0.494278
      19A     -0.481818    20A     -0.451308    21A     -0.444189

  @DF-RHF Final Energy:  -268.07442884253999

   => Energetics <=

    Nuclear Repulsion Energy =            184.7964289155834479
    One-Electron Energy =                -732.5214359834466222
    Two-Electron Energy =                 279.6505782253232155
    Total Energy =                       -268.0744288425399873
  Basis Set: (AUG-CC-PVTZ AUX)
    Blend: AUG-CC-PVTZ-RI
    Molecular point group: c1

    Geometry (in Angstrom), charge = 0, multiplicity = 1:

       Center              X                  Y                   Z               Mass
    ------------   -----------------  -----------------  -----------------  -----------------
         O           -2.374645485510    -0.398940519008     0.003510182031    15.994914619570
         O            2.444008514490    -0.258456519008    -0.083856817969    15.994914619570
         C           -0.007384485510    -0.322324519008    -0.023298817969    12.000000000000
         C           -1.273181485510     0.510580480992     0.024937182031    12.000000000000
         C            1.256419514490     0.524829480992     0.039550182031    12.000000000000
         H           -0.026254485510    -1.027360519008     0.817524182031     1.007825032230
         H            0.003445514490    -0.914312519008    -0.943314817969     1.007825032230
         H           -1.287958485510     1.126024480992     0.937207182031     1.007825032230
         H           -1.305421485510     1.192871480992    -0.837430817969     1.007825032230
         H            1.272297514490     1.118947480992     0.966067182031     1.007825032230
         H            1.288917514490     1.225885480992    -0.799176817969     1.007825032230
         H           -3.189535485510     0.129959480992     0.005684182031     1.007825032230
         H            2.431175514490    -0.909233519008     0.638174182031     1.007825032230

  Basis Set: AUG-CC-PVTZ
    Blend: AUG-CC-PVTZ
  Basis Set: (AUG-CC-PVTZ AUX)
    Blend: AUG-CC-PVTZ-JKFIT
	 Reference Energy          =    -268.0744288425399873 [Eh]
	 Singles Energy            =      -0.0000000000000000 [Eh]
	 Same-Spin Energy          =      -0.2583360825968826 [Eh]
	 Opposite-Spin Energy      =      -0.8581714711232467 [Eh]
	 Correlation Energy        =      -1.1165075537201292 [Eh]
	 Total Energy              =    -269.1909363962600992 [Eh]

	 ================> DF-SCS-MP2 Energies <==================
	-----------------------------------------------------------
	 SCS Same-Spin Scale       =       0.3333333333333333 [-]
	 SCS Opposite-Spin Scale   =       1.2000000000000000 [-]
	 SCS Same-Spin Energy      =      -0.0861120275322942 [Eh]
	 SCS Opposite-Spin Energy  =      -1.0298057653478960 [Eh]
	 SCS Correlation Energy    =      -1.1159177928801902 [Eh]
	 SCS Total Energy          =    -269.1903466354201555 [Eh]
	-----------------------------------------------------------

  Dipole Moment: [D]
     X:    -1.4166      Y:     1.3970      Z:     1.1116     Total:     2.2790

*** Psi4 exiting successfully. Buy a developer a beer!
