                               Psi4 1.3.2 release

  ==> Input File <==

--------------------------------------------------------------------------
#psi4
#
memory 32 gb

molecule  {
0 1
  O       -2.3403488    -0.4471254    -0.0716725
  O        2.4536110    -0.2813640    -0.0931210
  C        0.0022180    -0.3452320    -0.0325630
  C       -1.2635790     0.4876730     0.0156730
  C        1.2660220     0.5019220     0.0302860
  H       -0.0166520    -1.0502680     0.8082600
  H        0.0130480    -0.9372200    -0.9525790
  H       -1.2304758     1.1291947     0.9093062
  H       -1.2958190     1.1699640    -0.8466950
  H        1.2819000     1.0960400     0.9568030
  H        1.2985200     1.2029780    -0.8084410
  H       -3.1799330     0.1070520    -0.0035800
  H        2.4407780    -0.9321410     0.6289100
units angstrom
no_reorient  #important for SAPT in psi4, default
symmetry c1  #important for SAPT in psi4, default
}

set PROPERTIES_ORIGIN ["COM"]
properties('MP2/aug-cc-pvtz', properties = ['dipole'])
--------------------------------------------------------------------------

    Molecular point group: c1
  Charge       = 0
  Multiplicity = 1
  Basis Set: AUG-CC-PVTZ
    Blend: AUG-CC-PVTZ
  Basis Set: (AUG-CC-PVTZ AUX)
    Blend: AUG-CC-PVTZ-JKFIT

    Orbital Energies [Eh]
    ---------------------

    Doubly Occupied:

       1A    -20.571563     2A    -20.558874     3A    -11.283436
       4A    -11.277720     5A    -11.222211     6A     -1.357384
       7A     -1.354496     8A     -1.049958     9A     -0.903793
      10A     -0.818667    11A     -0.703681    12A     -0.680907
      13A     -0.648316    14A     -0.612329    15A     -0.586850
      16A     -0.561173    17A     -0.528893    18A     -0.495568
      19A     -0.479669    20A     -0.451606    21A     -0.442856

  @DF-RHF Final Energy:  -268.06862846796150

   => Energetics <=

    Nuclear Repulsion Energy =            184.8567938587201525
    One-Electron Energy =                -732.6709437858831961
    Two-Electron Energy =                 279.7455214592015409
    Total Energy =                       -268.0686284679615028
  Basis Set: (AUG-CC-PVTZ AUX)
    Blend: AUG-CC-PVTZ-RI
    Molecular point group: c1

    Geometry (in Angstrom), charge = 0, multiplicity = 1:

       Center              X                  Y                   Z               Mass
    ------------   -----------------  -----------------  -----------------  -----------------
         O           -2.355779323978    -0.419247294158    -0.048297744250    15.994914619570
         O            2.438180476022    -0.253485894158    -0.069746244250    15.994914619570
         C           -0.013212523978    -0.317353894158    -0.009188244250    12.000000000000
         C           -1.279009523978     0.515551105842     0.039047755750    12.000000000000
         C            1.250591476022     0.529800105842     0.053660755750    12.000000000000
         H           -0.032082523978    -1.022389894158     0.831634755750     1.007825032230
         H           -0.002382523978    -0.909341894158    -0.929204244250     1.007825032230
         H           -1.245906323978     1.157072805842     0.932680955750     1.007825032230
         H           -1.311249523978     1.197842105842    -0.823320244250     1.007825032230
         H            1.266469476022     1.123918105842     0.980177755750     1.007825032230
         H            1.283089476022     1.230856105842    -0.785066244250     1.007825032230
         H           -3.195363523978     0.134930105842     0.019794755750     1.007825032230
         H            2.425347476022    -0.904262894158     0.652284755750     1.007825032230

  Basis Set: AUG-CC-PVTZ
    Blend: AUG-CC-PVTZ
  Basis Set: (AUG-CC-PVTZ AUX)
    Blend: AUG-CC-PVTZ-JKFIT
	 Reference Energy          =    -268.0686284679615028 [Eh]
	 Singles Energy            =      -0.0000000000000000 [Eh]
	 Same-Spin Energy          =      -0.2590263006934602 [Eh]
	 Opposite-Spin Energy      =      -0.8597997190493208 [Eh]
	 Correlation Energy        =      -1.1188260197427811 [Eh]
	 Total Energy              =    -269.1874544877042581 [Eh]

	 ================> DF-SCS-MP2 Energies <==================
	-----------------------------------------------------------
	 SCS Same-Spin Scale       =       0.3333333333333333 [-]
	 SCS Opposite-Spin Scale   =       1.2000000000000000 [-]
	 SCS Same-Spin Energy      =      -0.0863421002311534 [Eh]
	 SCS Opposite-Spin Energy  =      -1.0317596628591850 [Eh]
	 SCS Correlation Energy    =      -1.1181017630903383 [Eh]
	 SCS Total Energy          =    -269.1867302310518539 [Eh]
	-----------------------------------------------------------

  Dipole Moment: [D]
     X:    -1.4887      Y:     1.4168      Z:     1.2586     Total:     2.4099

*** Psi4 exiting successfully. Buy a developer a beer!
