                               Psi4 1.3.2 release

  ==> Input File <==

--------------------------------------------------------------------------
#psi4
#
memory 32 gb

molecule  {
0 1
  O       -2.3650430    -0.4218480    -0.0057540
  O        2.4536110    -0.2813640    -0.0931210
  C        0.0022180    -0.3452320    -0.0325630
  C       -1.2715596     0.4972503     0.0157603
  C        1.2660220     0.5019220     0.0302860
  H       -0.0166520    -1.0502680     0.8082600
  H        0.0130480    -0.9372200    -0.9525790
  H       -1.2783560     1.1031170     0.9279430
  H       -1.2958190     1.1699640    -0.8466950
  H        1.2819000     1.0960400     0.9568030
  H        1.2985200     1.2029780    -0.8084410
  H       -3.1752869     0.1141419    -0.0034408
  H        2.4407780    -0.9321410     0.6289100
units angstrom
no_reorient  #important for SAPT in psi4, default
symmetry c1  #important for SAPT in psi4, default
}

set PROPERTIES_ORIGIN ["COM"]
properties('MP2/aug-cc-pvtz', properties = ['dipole'])
--------------------------------------------------------------------------

    Molecular point group: c1
  Charge       = 0
  Multiplicity = 1
  Basis Set: AUG-CC-PVTZ
    Blend: AUG-CC-PVTZ
  Basis Set: (AUG-CC-PVTZ AUX)
    Blend: AUG-CC-PVTZ-JKFIT

    Orbital Energies [Eh]
    ---------------------

    Doubly Occupied:

       1A    -20.565590     2A    -20.559294     3A    -11.283361
       4A    -11.278238     5A    -11.224022     6A     -1.362121
       7A     -1.355560     8A     -1.049256     9A     -0.905843
      10A     -0.819557    11A     -0.705042    12A     -0.686361
      13A     -0.649109    14A     -0.611590    15A     -0.591361
      16A     -0.560305    17A     -0.529796    18A     -0.493520
      19A     -0.480681    20A     -0.453468    21A     -0.443459

  @DF-RHF Final Energy:  -268.07416644189800

   => Energetics <=

    Nuclear Repulsion Energy =            184.6803348721062719
    One-Electron Energy =                -732.2939333353384654
    Two-Electron Energy =                 279.5394320213341643
    Total Energy =                       -268.0741664418980008
  Basis Set: (AUG-CC-PVTZ AUX)
    Blend: AUG-CC-PVTZ-RI
    Molecular point group: c1

    Geometry (in Angstrom), charge = 0, multiplicity = 1:

       Center              X                  Y                   Z               Mass
    ------------   -----------------  -----------------  -----------------  -----------------
         O           -2.373447828253    -0.400545635104     0.003494562685    15.994914619570
         O            2.445206171747    -0.260061635104    -0.083872437315    15.994914619570
         C           -0.006186828253    -0.323929635104    -0.023314437315    12.000000000000
         C           -1.279964428253     0.518552664896     0.025008862685    12.000000000000
         C            1.257617171747     0.523224364896     0.039534562685    12.000000000000
         H           -0.025056828253    -1.028965635104     0.817508562685     1.007825032230
         H            0.004643171747    -0.915917635104    -0.943330437315     1.007825032230
         H           -1.286760828253     1.124419364896     0.937191562685     1.007825032230
         H           -1.304223828253     1.191266364896    -0.837446437315     1.007825032230
         H            1.273495171747     1.117342364896     0.966051562685     1.007825032230
         H            1.290115171747     1.224280364896    -0.799192437315     1.007825032230
         H           -3.183691728253     0.135444264896     0.005807762685     1.007825032230
         H            2.432373171747    -0.910838635104     0.638158562685     1.007825032230

  Basis Set: AUG-CC-PVTZ
    Blend: AUG-CC-PVTZ
  Basis Set: (AUG-CC-PVTZ AUX)
    Blend: AUG-CC-PVTZ-JKFIT
	 Reference Energy          =    -268.0741664418980008 [Eh]
	 Singles Energy            =      -0.0000000000000000 [Eh]
	 Same-Spin Energy          =      -0.2583106814099332 [Eh]
	 Opposite-Spin Energy      =      -0.8582265279890577 [Eh]
	 Correlation Energy        =      -1.1165372093989909 [Eh]
	 Total Energy              =    -269.1907036512969853 [Eh]

	 ================> DF-SCS-MP2 Energies <==================
	-----------------------------------------------------------
	 SCS Same-Spin Scale       =       0.3333333333333333 [-]
	 SCS Opposite-Spin Scale   =       1.2000000000000000 [-]
	 SCS Same-Spin Energy      =      -0.0861035604699777 [Eh]
	 SCS Opposite-Spin Energy  =      -1.0298718335868693 [Eh]
	 SCS Correlation Energy    =      -1.1159753940568471 [Eh]
	 SCS Total Energy          =    -269.1901418359548757 [Eh]
	-----------------------------------------------------------

  Dipole Moment: [D]
     X:    -1.4280      Y:     1.4142      Z:     1.1116     Total:     2.2967

*** Psi4 exiting successfully. Buy a developer a beer!
