                               Psi4 1.3.2 release

  ==> Input File <==

--------------------------------------------------------------------------
#psi4
#
memory 32 gb

molecule  {
0 1
  O       -2.3650430    -0.4218480    -0.0057540
  O        2.4536110    -0.2813640    -0.0931210
  C        0.0022180    -0.3452320    -0.0325630
  C       -1.2336926     0.5312353     0.0187151
  C        1.2356070     0.5454271     0.0329985
  H       -0.0166520    -1.0502680     0.8082600
  H        0.0130480    -0.9372200    -0.9525790
  H       -1.2783560     1.1031170     0.9279430
  H       -1.2958190     1.1699640    -0.8466950
  H        1.2819000     1.0960400     0.9568030
  H        1.2985200     1.2029780    -0.8084410
  H       -3.1799330     0.1070520    -0.0035800
  H        2.4407780    -0.9321410     0.6289100
units angstrom
no_reorient  #important for SAPT in psi4, default
symmetry c1  #important for SAPT in psi4, default
}

set PROPERTIES_ORIGIN ["COM"]
properties('MP2/aug-cc-pvtz', properties = ['dipole'])
--------------------------------------------------------------------------

    Molecular point group: c1
  Charge       = 0
  Multiplicity = 1
  Basis Set: AUG-CC-PVTZ
    Blend: AUG-CC-PVTZ
  Basis Set: (AUG-CC-PVTZ AUX)
    Blend: AUG-CC-PVTZ-JKFIT

    Orbital Energies [Eh]
    ---------------------

    Doubly Occupied:

       1A    -20.560322     2A    -20.553769     3A    -11.283112
       4A    -11.278169     5A    -11.226807     6A     -1.343055
       7A     -1.336599     8A     -1.057032     9A     -0.909948
      10A     -0.824490    11A     -0.696249    12A     -0.683141
      13A     -0.647096    14A     -0.604302    15A     -0.584080
      16A     -0.552382    17A     -0.522891    18A     -0.503521
      19A     -0.486566    20A     -0.459219    21A     -0.445153

  @DF-RHF Final Energy:  -268.06768565343481

   => Energetics <=

    Nuclear Repulsion Energy =            184.0622018921536380
    One-Electron Energy =                -731.1439715838696429
    Two-Electron Energy =                 279.0140840382811689
    Total Energy =                       -268.0676856534348076
  Basis Set: (AUG-CC-PVTZ AUX)
    Blend: AUG-CC-PVTZ-RI
    Molecular point group: c1

    Geometry (in Angstrom), charge = 0, multiplicity = 1:

       Center              X                  Y                   Z               Mass
    ------------   -----------------  -----------------  -----------------  -----------------
         O           -2.374562079890    -0.412678525892     0.002602187369    15.994914619570
         O            2.444091920110    -0.272194525892    -0.084764812631    15.994914619570
         C           -0.007301079890    -0.336062525892    -0.024206812631    12.000000000000
         C           -1.243211679890     0.540404774108     0.027071287369    12.000000000000
         C            1.226087920110     0.554596574108     0.041354687369    12.000000000000
         H           -0.026171079890    -1.041098525892     0.816616187369     1.007825032230
         H            0.003528920110    -0.928050525892    -0.944222812631     1.007825032230
         H           -1.287875079890     1.112286474108     0.936299187369     1.007825032230
         H           -1.305338079890     1.179133474108    -0.838338812631     1.007825032230
         H            1.272380920110     1.105209474108     0.965159187369     1.007825032230
         H            1.289000920110     1.212147474108    -0.800084812631     1.007825032230
         H           -3.189452079890     0.116221474108     0.004776187369     1.007825032230
         H            2.431258920110    -0.922971525892     0.637266187369     1.007825032230

  Basis Set: AUG-CC-PVTZ
    Blend: AUG-CC-PVTZ
  Basis Set: (AUG-CC-PVTZ AUX)
    Blend: AUG-CC-PVTZ-JKFIT
	 Reference Energy          =    -268.0676856534348076 [Eh]
	 Singles Energy            =      -0.0000000000000000 [Eh]
	 Same-Spin Energy          =      -0.2586061792736015 [Eh]
	 Opposite-Spin Energy      =      -0.8600156614190650 [Eh]
	 Correlation Energy        =      -1.1186218406926667 [Eh]
	 Total Energy              =    -269.1863074941274476 [Eh]

	 ================> DF-SCS-MP2 Energies <==================
	-----------------------------------------------------------
	 SCS Same-Spin Scale       =       0.3333333333333333 [-]
	 SCS Opposite-Spin Scale   =       1.2000000000000000 [-]
	 SCS Same-Spin Energy      =      -0.0862020597578672 [Eh]
	 SCS Opposite-Spin Energy  =      -1.0320187937028780 [Eh]
	 SCS Correlation Energy    =      -1.1182208534607452 [Eh]
	 SCS Total Energy          =    -269.1859065068955488 [Eh]
	-----------------------------------------------------------

  Dipole Moment: [D]
     X:    -1.4193      Y:     1.6151      Z:     1.1287     Total:     2.4284

*** Psi4 exiting successfully. Buy a developer a beer!
