                               Psi4 1.3.2 release

  ==> Input File <==

--------------------------------------------------------------------------
#psi4
#
memory 32 gb

molecule  {
0 1
  O       -2.4111381    -0.3630173    -0.0028918
  O        2.4536110    -0.2813640    -0.0931210
  C        0.0441358    -0.2778671    -0.0304770
  C       -1.2635790     0.4876730     0.0156730
  C        1.2660220     0.5019220     0.0302860
  H       -0.0166520    -1.0502680     0.8082600
  H        0.0130480    -0.9372200    -0.9525790
  H       -1.2783560     1.1031170     0.9279430
  H       -1.2958190     1.1699640    -0.8466950
  H        1.2819000     1.0960400     0.9568030
  H        1.2985200     1.2029780    -0.8084410
  H       -3.1799330     0.1070520    -0.0035800
  H        2.4407780    -0.9321410     0.6289100
units angstrom
no_reorient  #important for SAPT in psi4, default
symmetry c1  #important for SAPT in psi4, default
}

set PROPERTIES_ORIGIN ["COM"]
properties('MP2/aug-cc-pvtz', properties = ['dipole'])
--------------------------------------------------------------------------

    Molecular point group: c1
  Charge       = 0
  Multiplicity = 1
  Basis Set: AUG-CC-PVTZ
    Blend: AUG-CC-PVTZ
  Basis Set: (AUG-CC-PVTZ AUX)
    Blend: AUG-CC-PVTZ-JKFIT

    Orbital Energies [Eh]
    ---------------------

    Doubly Occupied:

       1A    -20.562302     2A    -20.557796     3A    -11.287358
       4A    -11.278122     5A    -11.231137     6A     -1.375910
       7A     -1.359431     8A     -1.065610     9A     -0.919864
      10A     -0.814049    11A     -0.718774    12A     -0.692527
      13A     -0.649049    14A     -0.621369    15A     -0.604501
      16A     -0.558052    17A     -0.530717    18A     -0.485389
      19A     -0.481269    20A     -0.453253    21A     -0.445394

  @DF-RHF Final Energy:  -268.06509565530308

   => Energetics <=

    Nuclear Repulsion Energy =            185.2987515374435361
    One-Electron Energy =                -733.3439504923480854
    Two-Electron Energy =                 279.9801032996014669
    Total Energy =                       -268.0650956553030824
  Basis Set: (AUG-CC-PVTZ AUX)
    Blend: AUG-CC-PVTZ-RI
    Molecular point group: c1

    Geometry (in Angstrom), charge = 0, multiplicity = 1:

       Center              X                  Y                   Z               Mass
    ------------   -----------------  -----------------  -----------------  -----------------
         O           -2.417660163353    -0.363111987842     0.005441279040    15.994914619570
         O            2.447088936647    -0.281458687842    -0.084787920960    15.994914619570
         C            0.037613736647    -0.277961787842    -0.022143920960    12.000000000000
         C           -1.270101063353     0.487578312158     0.024006079040    12.000000000000
         C            1.259499936647     0.501827312158     0.038619079040    12.000000000000
         H           -0.023174063353    -1.050362687842     0.816593079040     1.007825032230
         H            0.006525936647    -0.937314687842    -0.944245920960     1.007825032230
         H           -1.284878063353     1.103022312158     0.936276079040     1.007825032230
         H           -1.302341063353     1.169869312158    -0.838361920960     1.007825032230
         H            1.275377936647     1.095945312158     0.965136079040     1.007825032230
         H            1.291997936647     1.202883312158    -0.800107920960     1.007825032230
         H           -3.186455063353     0.106957312158     0.004753079040     1.007825032230
         H            2.434255936647    -0.932235687842     0.637243079040     1.007825032230

  Basis Set: AUG-CC-PVTZ
    Blend: AUG-CC-PVTZ
  Basis Set: (AUG-CC-PVTZ AUX)
    Blend: AUG-CC-PVTZ-JKFIT
	 Reference Energy          =    -268.0650956553030824 [Eh]
	 Singles Energy            =      -0.0000000000000000 [Eh]
	 Same-Spin Energy          =      -0.2579986617838120 [Eh]
	 Opposite-Spin Energy      =      -0.8564587510951471 [Eh]
	 Correlation Energy        =      -1.1144574128789593 [Eh]
	 Total Energy              =    -269.1795530681820310 [Eh]

	 ================> DF-SCS-MP2 Energies <==================
	-----------------------------------------------------------
	 SCS Same-Spin Scale       =       0.3333333333333333 [-]
	 SCS Opposite-Spin Scale   =       1.2000000000000000 [-]
	 SCS Same-Spin Energy      =      -0.0859995539279373 [Eh]
	 SCS Opposite-Spin Energy  =      -1.0277505013141766 [Eh]
	 SCS Correlation Energy    =      -1.1137500552421140 [Eh]
	 SCS Total Energy          =    -269.1788457105452039 [Eh]
	-----------------------------------------------------------

  Dipole Moment: [D]
     X:    -1.3224      Y:     1.3380      Z:     1.0996     Total:     2.1790

*** Psi4 exiting successfully. Buy a developer a beer!
