                               Psi4 1.3.2 release

  ==> Input File <==

--------------------------------------------------------------------------
#psi4
#
memory 32 gb

molecule  {
0 1
  O       -2.3571439    -0.4305544    -0.0277423
  O        2.4536110    -0.2813640    -0.0931210
  C        0.0022180    -0.3452320    -0.0325630
  C       -1.2635790     0.4876730     0.0156730
  C        1.2660220     0.5019220     0.0302860
  H       -0.0166520    -1.0502680     0.8082600
  H        0.0130480    -0.9372200    -0.9525790
  H       -1.2623940     1.1120006     0.9220062
  H       -1.2958190     1.1699640    -0.8466950
  H        1.2819000     1.0960400     0.9568030
  H        1.2985200     1.2029780    -0.8084410
  H       -3.1799330     0.1070520    -0.0035800
  H        2.4407780    -0.9321410     0.6289100
units angstrom
no_reorient  #important for SAPT in psi4, default
symmetry c1  #important for SAPT in psi4, default
}

set PROPERTIES_ORIGIN ["COM"]
properties('MP2/aug-cc-pvtz', properties = ['dipole'])
--------------------------------------------------------------------------

    Molecular point group: c1
  Charge       = 0
  Multiplicity = 1
  Basis Set: AUG-CC-PVTZ
    Blend: AUG-CC-PVTZ
  Basis Set: (AUG-CC-PVTZ AUX)
    Blend: AUG-CC-PVTZ-JKFIT

    Orbital Energies [Eh]
    ---------------------

    Doubly Occupied:

       1A    -20.567146     2A    -20.559342     3A    -11.283721
       4A    -11.278337     5A    -11.223268     6A     -1.360006
       7A     -1.355454     8A     -1.050936     9A     -0.905274
      10A     -0.818907    11A     -0.704927    12A     -0.684731
      13A     -0.648396    14A     -0.612295    15A     -0.590209
      16A     -0.560097    17A     -0.529423    18A     -0.494779
      19A     -0.481109    20A     -0.451550    21A     -0.443789

  @DF-RHF Final Energy:  -268.07313951526100

   => Energetics <=

    Nuclear Repulsion Energy =            184.8143977627782988
    One-Electron Energy =                -732.5676822275161157
    Two-Electron Energy =                 279.6801449494768121
    Total Energy =                       -268.0731395152610048
  Basis Set: (AUG-CC-PVTZ AUX)
    Blend: AUG-CC-PVTZ-RI
    Molecular point group: c1

    Geometry (in Angstrom), charge = 0, multiplicity = 1:

       Center              X                  Y                   Z               Mass
    ------------   -----------------  -----------------  -----------------  -----------------
         O           -2.368619203172    -0.405933561380    -0.013774990940    15.994914619570
         O            2.442135696828    -0.256743161380    -0.079153690940    15.994914619570
         C           -0.009257303172    -0.320611161380    -0.018595690940    12.000000000000
         C           -1.275054303172     0.512293838620     0.029640309060    12.000000000000
         C            1.254546696828     0.526542838620     0.044253309060    12.000000000000
         H           -0.028127303172    -1.025647161380     0.822227309060     1.007825032230
         H            0.001572696828    -0.912599161380    -0.938611690940     1.007825032230
         H           -1.273869303172     1.136621438620     0.935973509060     1.007825032230
         H           -1.307294303172     1.194584838620    -0.832727690940     1.007825032230
         H            1.270424696828     1.120660838620     0.970770309060     1.007825032230
         H            1.287044696828     1.227598838620    -0.794473690940     1.007825032230
         H           -3.191408303172     0.131672838620     0.010387309060     1.007825032230
         H            2.429302696828    -0.907520161380     0.642877309060     1.007825032230

  Basis Set: AUG-CC-PVTZ
    Blend: AUG-CC-PVTZ
  Basis Set: (AUG-CC-PVTZ AUX)
    Blend: AUG-CC-PVTZ-JKFIT
	 Reference Energy          =    -268.0731395152610048 [Eh]
	 Singles Energy            =      -0.0000000000000000 [Eh]
	 Same-Spin Energy          =      -0.2585439096719444 [Eh]
	 Opposite-Spin Energy      =      -0.8586621087892744 [Eh]
	 Correlation Energy        =      -1.1172060184612187 [Eh]
	 Total Energy              =    -269.1903455337222226 [Eh]

	 ================> DF-SCS-MP2 Energies <==================
	-----------------------------------------------------------
	 SCS Same-Spin Scale       =       0.3333333333333333 [-]
	 SCS Opposite-Spin Scale   =       1.2000000000000000 [-]
	 SCS Same-Spin Energy      =      -0.0861813032239815 [Eh]
	 SCS Opposite-Spin Energy  =      -1.0303945305471292 [Eh]
	 SCS Correlation Energy    =      -1.1165758337711107 [Eh]
	 SCS Total Energy          =    -269.1897153490320989 [Eh]
	-----------------------------------------------------------

  Dipole Moment: [D]
     X:    -1.4404      Y:     1.4051      Z:     1.1618     Total:     2.3235

*** Psi4 exiting successfully. Buy a developer a beer!
