                               Psi4 1.3.2 release

  ==> Input File <==

--------------------------------------------------------------------------
#psi4
#
memory 32 gb

molecule  {
0 1
  O       -2.3807499    -0.4025069    -0.0048061
  O        2.4536110    -0.2813640    -0.0931210
  C        0.0165820    -0.3230217    -0.0318821
  C       -1.2635790     0.4876730     0.0156730
  C        1.2660220     0.5019220     0.0302860
  H       -0.0166520    -1.0502680     0.8082600
  H        0.0130480    -0.9372200    -0.9525790
  H       -1.2783560     1.1031170     0.9279430
  H       -1.2958190     1.1699640    -0.8466950
  H        1.2819000     1.0960400     0.9568030
  H        1.2985200     1.2029780    -0.8084410
  H       -3.1799330     0.1070520    -0.0035800
  H        2.4407780    -0.9321410     0.6289100
units angstrom
no_reorient  #important for SAPT in psi4, default
symmetry c1  #important for SAPT in psi4, default
}

set PROPERTIES_ORIGIN ["COM"]
properties('MP2/aug-cc-pvtz', properties = ['dipole'])
--------------------------------------------------------------------------

    Molecular point group: c1
  Charge       = 0
  Multiplicity = 1
  Basis Set: AUG-CC-PVTZ
    Blend: AUG-CC-PVTZ
  Basis Set: (AUG-CC-PVTZ AUX)
    Blend: AUG-CC-PVTZ-JKFIT

    Orbital Energies [Eh]
    ---------------------

    Doubly Occupied:

       1A    -20.562638     2A    -20.560458     3A    -11.284807
       4A    -11.278524     5A    -11.225995     6A     -1.365806
       7A     -1.357027     8A     -1.055881     9A     -0.910251
      10A     -0.817259    11A     -0.709795    12A     -0.688482
      13A     -0.648413    14A     -0.614948    15A     -0.596137
      16A     -0.559260    17A     -0.529320    18A     -0.491342
      19A     -0.481939    20A     -0.450029    21A     -0.447754

  @DF-RHF Final Energy:  -268.07459325008045

   => Energetics <=

    Nuclear Repulsion Energy =            184.9490420980062027
    One-Electron Energy =                -732.7751411955271124
    Two-Electron Energy =                 279.7515058474404555
    Total Energy =                       -268.0745932500804543
  Basis Set: (AUG-CC-PVTZ AUX)
    Blend: AUG-CC-PVTZ-RI
    Molecular point group: c1

    Geometry (in Angstrom), charge = 0, multiplicity = 1:

       Center              X                  Y                   Z               Mass
    ------------   -----------------  -----------------  -----------------  -----------------
         O           -2.389315436066    -0.387171601080     0.004151288682    15.994914619570
         O            2.445045463934    -0.266028701080    -0.084163611318    15.994914619570
         C            0.008016463934    -0.307686401080    -0.022924711318    12.000000000000
         C           -1.272144536066     0.503008298920     0.024630388682    12.000000000000
         C            1.257456463934     0.517257298920     0.039243388682    12.000000000000
         H           -0.025217536066    -1.034932701080     0.817217388682     1.007825032230
         H            0.004482463934    -0.921884701080    -0.943621611318     1.007825032230
         H           -1.286921536066     1.118452298920     0.936900388682     1.007825032230
         H           -1.304384536066     1.185299298920    -0.837737611318     1.007825032230
         H            1.273334463934     1.111375298920     0.965760388682     1.007825032230
         H            1.289954463934     1.218313298920    -0.799483611318     1.007825032230
         H           -3.188498536066     0.122387298920     0.005377388682     1.007825032230
         H            2.432212463934    -0.916805701080     0.637867388682     1.007825032230

  Basis Set: AUG-CC-PVTZ
    Blend: AUG-CC-PVTZ
  Basis Set: (AUG-CC-PVTZ AUX)
    Blend: AUG-CC-PVTZ-JKFIT
	 Reference Energy          =    -268.0745932500804543 [Eh]
	 Singles Energy            =      -0.0000000000000000 [Eh]
	 Same-Spin Energy          =      -0.2581458793535860 [Eh]
	 Opposite-Spin Energy      =      -0.8574272890430201 [Eh]
	 Correlation Energy        =      -1.1155731683966061 [Eh]
	 Total Energy              =    -269.1901664184770766 [Eh]

	 ================> DF-SCS-MP2 Energies <==================
	-----------------------------------------------------------
	 SCS Same-Spin Scale       =       0.3333333333333333 [-]
	 SCS Opposite-Spin Scale   =       1.2000000000000000 [-]
	 SCS Same-Spin Energy      =      -0.0860486264511953 [Eh]
	 SCS Opposite-Spin Energy  =      -1.0289127468516241 [Eh]
	 SCS Correlation Energy    =      -1.1149613733028194 [Eh]
	 SCS Total Energy          =    -269.1895546233832874 [Eh]
	-----------------------------------------------------------

  Dipole Moment: [D]
     X:    -1.3867      Y:     1.3774      Z:     1.1079     Total:     2.2467

*** Psi4 exiting successfully. Buy a developer a beer!
