                               Psi4 1.3.2 release

  ==> Input File <==

--------------------------------------------------------------------------
#psi4
#
memory 32 gb

molecule  {
0 1
  O       -2.3650430    -0.4218480    -0.0057540
  O        2.4536110    -0.2813640    -0.0931210
  C        0.0022180    -0.3452320    -0.0325630
  C       -1.2779461     0.4655079     0.0141297
  C        1.2806543     0.4797790     0.0289008
  H       -0.0166520    -1.0502680     0.8082600
  H        0.0130480    -0.9372200    -0.9525790
  H       -1.2783560     1.1031170     0.9279430
  H       -1.2958190     1.1699640    -0.8466950
  H        1.2819000     1.0960400     0.9568030
  H        1.2985200     1.2029780    -0.8084410
  H       -3.1799330     0.1070520    -0.0035800
  H        2.4407780    -0.9321410     0.6289100
units angstrom
no_reorient  #important for SAPT in psi4, default
symmetry c1  #important for SAPT in psi4, default
}

set PROPERTIES_ORIGIN ["COM"]
properties('MP2/aug-cc-pvtz', properties = ['dipole'])
--------------------------------------------------------------------------

    Molecular point group: c1
  Charge       = 0
  Multiplicity = 1
  Basis Set: AUG-CC-PVTZ
    Blend: AUG-CC-PVTZ
  Basis Set: (AUG-CC-PVTZ AUX)
    Blend: AUG-CC-PVTZ-JKFIT

    Orbital Energies [Eh]
    ---------------------

    Doubly Occupied:

       1A    -20.567332     2A    -20.562500     3A    -11.284780
       4A    -11.279426     5A    -11.222582     6A     -1.371575
       7A     -1.366226     8A     -1.048980     9A     -0.904386
      10A     -0.816886    11A     -0.711988    12A     -0.688041
      13A     -0.649212    14A     -0.618145    15A     -0.595598
      16A     -0.565031    17A     -0.532563    18A     -0.488950
      19A     -0.478367    20A     -0.446050    21A     -0.442408

  @DF-RHF Final Energy:  -268.07354677046845

   => Energetics <=

    Nuclear Repulsion Energy =            185.1924965469373490
    One-Electron Energy =                -733.2500338708497338
    Two-Electron Energy =                 279.9839905534439026
    Total Energy =                       -268.0735467704684538
  Basis Set: (AUG-CC-PVTZ AUX)
    Blend: AUG-CC-PVTZ-RI
    Molecular point group: c1

    Geometry (in Angstrom), charge = 0, multiplicity = 1:

       Center              X                  Y                   Z               Mass
    ------------   -----------------  -----------------  -----------------  -----------------
         O           -2.374687330327    -0.391949326175     0.003972258000    15.994914619570
         O            2.443966669673    -0.251465326175    -0.083394742000    15.994914619570
         C           -0.007426330327    -0.315333326175    -0.022836742000    12.000000000000
         C           -1.287590430327     0.495406573825     0.023855958000    12.000000000000
         C            1.271009969673     0.509677673825     0.038627058000    12.000000000000
         H           -0.026296330327    -1.020369326175     0.817986258000     1.007825032230
         H            0.003403669673    -0.907321326175    -0.942852742000     1.007825032230
         H           -1.288000330327     1.133015673825     0.937669258000     1.007825032230
         H           -1.305463330327     1.199862673825    -0.836968742000     1.007825032230
         H            1.272255669673     1.125938673825     0.966529258000     1.007825032230
         H            1.288875669673     1.232876673825    -0.798714742000     1.007825032230
         H           -3.189577330327     0.136950673825     0.006146258000     1.007825032230
         H            2.431133669673    -0.902242326175     0.638636258000     1.007825032230

  Basis Set: AUG-CC-PVTZ
    Blend: AUG-CC-PVTZ
  Basis Set: (AUG-CC-PVTZ AUX)
    Blend: AUG-CC-PVTZ-JKFIT
	 Reference Energy          =    -268.0735467704684538 [Eh]
	 Singles Energy            =      -0.0000000000000000 [Eh]
	 Same-Spin Energy          =      -0.2583326858350741 [Eh]
	 Opposite-Spin Energy      =      -0.8575069162166478 [Eh]
	 Correlation Energy        =      -1.1158396020517218 [Eh]
	 Total Energy              =    -269.1893863725201754 [Eh]

	 ================> DF-SCS-MP2 Energies <==================
	-----------------------------------------------------------
	 SCS Same-Spin Scale       =       0.3333333333333333 [-]
	 SCS Opposite-Spin Scale   =       1.2000000000000000 [-]
	 SCS Same-Spin Energy      =      -0.0861108952783580 [Eh]
	 SCS Opposite-Spin Energy  =      -1.0290082994599772 [Eh]
	 SCS Correlation Energy    =      -1.1151191947383352 [Eh]
	 SCS Total Energy          =    -269.1886659652067806 [Eh]
	-----------------------------------------------------------

  Dipole Moment: [D]
     X:    -1.4166      Y:     1.2763      Z:     1.1006     Total:     2.2016

*** Psi4 exiting successfully. Buy a developer a beer!
