                               Psi4 1.3.2 release

  ==> Input File <==

--------------------------------------------------------------------------
#psi4
#
memory 32 gb

molecule  {
0 1
  O       -2.3650430    -0.4218480    -0.0057540
  O        2.4536110    -0.2813640    -0.0931210
  C        0.0022180    -0.3452320    -0.0325630
  C       -1.2635790     0.4876730     0.0156730
  C        1.2660220     0.5019220     0.0302860
  H       -0.0166520    -1.0502680     0.8082600
  H        0.0130480    -0.9372200    -0.9525790
  H       -1.2783560     1.1031170     0.9279430
  H       -1.2958190     1.1699640    -0.8466950
  H        1.2819000     1.0960400     0.9568030
  H        1.2985200     1.2029780    -0.8084410
  H       -3.0960523     0.0526096    -0.0038038
  H        2.4407780    -0.9321410     0.6289100
units angstrom
no_reorient  #important for SAPT in psi4, default
symmetry c1  #important for SAPT in psi4, default
}

set PROPERTIES_ORIGIN ["COM"]
properties('MP2/aug-cc-pvtz', properties = ['dipole'])
--------------------------------------------------------------------------

    Molecular point group: c1
  Charge       = 0
  Multiplicity = 1
  Basis Set: AUG-CC-PVTZ
    Blend: AUG-CC-PVTZ
  Basis Set: (AUG-CC-PVTZ AUX)
    Blend: AUG-CC-PVTZ-JKFIT

    Orbital Energies [Eh]
    ---------------------

    Doubly Occupied:

       1A    -20.559883     2A    -20.554937     3A    -11.285137
       4A    -11.278957     5A    -11.224388     6A     -1.387314
       7A     -1.356357     8A     -1.055371     9A     -0.912253
      10A     -0.820518    11A     -0.722499    12A     -0.690506
      13A     -0.650323    14A     -0.613668    15A     -0.594065
      16A     -0.562851    17A     -0.530883    18A     -0.497357
      19A     -0.483197    20A     -0.454029    21A     -0.444981

  @DF-RHF Final Energy:  -268.06924452391462

   => Energetics <=

    Nuclear Repulsion Energy =            185.4318434486979186
    One-Electron Energy =                -733.6432297621327052
    Two-Electron Energy =                 280.1421417895201671
    Total Energy =                       -268.0692445239146195
  Basis Set: (AUG-CC-PVTZ AUX)
    Blend: AUG-CC-PVTZ-RI
    Molecular point group: c1

    Geometry (in Angstrom), charge = 0, multiplicity = 1:

       Center              X                  Y                   Z               Mass
    ------------   -----------------  -----------------  -----------------  -----------------
         O           -2.375757048543    -0.398219063903     0.003513147765    15.994914619570
         O            2.442896951457    -0.257735063903    -0.083853852235    15.994914619570
         C           -0.008496048543    -0.321603063903    -0.023295852235    12.000000000000
         C           -1.274293048543     0.511301936097     0.024940147765    12.000000000000
         C            1.255307951457     0.525550936097     0.039553147765    12.000000000000
         H           -0.027366048543    -1.026639063903     0.817527147765     1.007825032230
         H            0.002333951457    -0.913591063903    -0.943311852235     1.007825032230
         H           -1.289070048543     1.126745936097     0.937210147765     1.007825032230
         H           -1.306533048543     1.193592936097    -0.837427852235     1.007825032230
         H            1.271185951457     1.119668936097     0.966070147765     1.007825032230
         H            1.287805951457     1.226606936097    -0.799173852235     1.007825032230
         H           -3.106766348543     0.076238536097     0.005463347765     1.007825032230
         H            2.430063951457    -0.908512063903     0.638177147765     1.007825032230

  Basis Set: AUG-CC-PVTZ
    Blend: AUG-CC-PVTZ
  Basis Set: (AUG-CC-PVTZ AUX)
    Blend: AUG-CC-PVTZ-JKFIT
	 Reference Energy          =    -268.0692445239146195 [Eh]
	 Singles Energy            =      -0.0000000000000000 [Eh]
	 Same-Spin Energy          =      -0.2571941856889892 [Eh]
	 Opposite-Spin Energy      =      -0.8552357694412409 [Eh]
	 Correlation Energy        =      -1.1124299551302301 [Eh]
	 Total Energy              =    -269.1816744790448297 [Eh]

	 ================> DF-SCS-MP2 Energies <==================
	-----------------------------------------------------------
	 SCS Same-Spin Scale       =       0.3333333333333333 [-]
	 SCS Opposite-Spin Scale   =       1.2000000000000000 [-]
	 SCS Same-Spin Energy      =      -0.0857313952296631 [Eh]
	 SCS Opposite-Spin Energy  =      -1.0262829233294890 [Eh]
	 SCS Correlation Energy    =      -1.1120143185591520 [Eh]
	 SCS Total Energy          =    -269.1812588424737669 [Eh]
	-----------------------------------------------------------

  Dipole Moment: [D]
     X:    -1.3336      Y:     1.3700      Z:     1.1121     Total:     2.2119

*** Psi4 exiting successfully. Buy a developer a beer!
