                               Psi4 1.3.2 release

  ==> Input File <==

--------------------------------------------------------------------------
#psi4
#
memory 32 gb

molecule  {
0 1
  O       -2.3650430    -0.4218480    -0.0057540
  O        2.4536110    -0.2813640    -0.0931210
  C        0.0022180    -0.3452320    -0.0325630
  C       -1.2181824     0.5526193     0.0202130
  C        1.2198336     0.5667760     0.0343249
  H       -0.0166520    -1.0502680     0.8082600
  H        0.0130480    -0.9372200    -0.9525790
  H       -1.2783560     1.1031170     0.9279430
  H       -1.2958190     1.1699640    -0.8466950
  H        1.2819000     1.0960400     0.9568030
  H        1.2985200     1.2029780    -0.8084410
  H       -3.1799330     0.1070520    -0.0035800
  H        2.4407780    -0.9321410     0.6289100
units angstrom
no_reorient  #important for SAPT in psi4, default
symmetry c1  #important for SAPT in psi4, default
}

set PROPERTIES_ORIGIN ["COM"]
properties('MP2/aug-cc-pvtz', properties = ['dipole'])
--------------------------------------------------------------------------

    Molecular point group: c1
  Charge       = 0
  Multiplicity = 1
  Basis Set: AUG-CC-PVTZ
    Blend: AUG-CC-PVTZ
  Basis Set: (AUG-CC-PVTZ AUX)
    Blend: AUG-CC-PVTZ-JKFIT

    Orbital Energies [Eh]
    ---------------------

    Doubly Occupied:

       1A    -20.557955     2A    -20.550859     3A    -11.283297
       4A    -11.278495     5A    -11.228603     6A     -1.334636
       7A     -1.327797     8A     -1.060213     9A     -0.912147
      10A     -0.827522    11A     -0.695344    12A     -0.679463
      13A     -0.646767    14A     -0.602586    15A     -0.579409
      16A     -0.551374    17A     -0.519287    18A     -0.506864
      19A     -0.487232    20A     -0.461756    21A     -0.444530

  @DF-RHF Final Energy:  -268.06046269688545

   => Energetics <=

    Nuclear Repulsion Energy =            183.7229183999780275
    One-Electron Energy =                -730.4944907431902266
    Two-Electron Energy =                 278.7111096463268041
    Total Energy =                       -268.0604626968854518
  Basis Set: (AUG-CC-PVTZ AUX)
    Blend: AUG-CC-PVTZ-RI
    Molecular point group: c1

    Geometry (in Angstrom), charge = 0, multiplicity = 1:

       Center              X                  Y                   Z               Mass
    ------------   -----------------  -----------------  -----------------  -----------------
         O           -2.374520550645    -0.419421174397     0.002156552691    15.994914619570
         O            2.444133449355    -0.278937174397    -0.085210447309    15.994914619570
         C           -0.007259550645    -0.342805174397    -0.024652447309    12.000000000000
         C           -1.227659950645     0.555046125603     0.028123552691    12.000000000000
         C            1.210356049355     0.569202825603     0.042235452691    12.000000000000
         H           -0.026129550645    -1.047841174397     0.816170552691     1.007825032230
         H            0.003570449355    -0.934793174397    -0.944668447309     1.007825032230
         H           -1.287833550645     1.105543825603     0.935853552691     1.007825032230
         H           -1.305296550645     1.172390825603    -0.838784447309     1.007825032230
         H            1.272422449355     1.098466825603     0.964713552691     1.007825032230
         H            1.289042449355     1.205404825603    -0.800530447309     1.007825032230
         H           -3.189410550645     0.109478825603     0.004330552691     1.007825032230
         H            2.431300449355    -0.929714174397     0.636820552691     1.007825032230

  Basis Set: AUG-CC-PVTZ
    Blend: AUG-CC-PVTZ
  Basis Set: (AUG-CC-PVTZ AUX)
    Blend: AUG-CC-PVTZ-JKFIT
	 Reference Energy          =    -268.0604626968854518 [Eh]
	 Singles Energy            =      -0.0000000000000000 [Eh]
	 Same-Spin Energy          =      -0.2588728528789126 [Eh]
	 Opposite-Spin Energy      =      -0.8611861164689629 [Eh]
	 Correlation Energy        =      -1.1200589693478755 [Eh]
	 Total Energy              =    -269.1805216662333464 [Eh]

	 ================> DF-SCS-MP2 Energies <==================
	-----------------------------------------------------------
	 SCS Same-Spin Scale       =       0.3333333333333333 [-]
	 SCS Opposite-Spin Scale   =       1.2000000000000000 [-]
	 SCS Same-Spin Energy      =      -0.0862909509596375 [Eh]
	 SCS Opposite-Spin Energy  =      -1.0334233397627555 [Eh]
	 SCS Correlation Energy    =      -1.1197142907223929 [Eh]
	 SCS Total Energy          =    -269.1801769876078652 [Eh]
	-----------------------------------------------------------

  Dipole Moment: [D]
     X:    -1.4216      Y:     1.7138      Z:     1.1350     Total:     2.4993

*** Psi4 exiting successfully. Buy a developer a beer!
