                               Psi4 1.4a3.dev225

  ==> Input File <==

--------------------------------------------------------------------------
#psi4
#
memory 32 gb

molecule  {
0 1
  O       -2.3655480    -0.4216410    -0.0057250
  O        2.4519660    -0.2843820    -0.0939020
  C        0.0026340    -0.3450150    -0.0348160
  C       -1.2643780     0.4871770     0.0157270
  C        1.2666380     0.5015080     0.0285970
  H       -0.0165330    -1.0499780     0.8053450
  H        0.0111760    -0.9353620    -0.9555930
  H       -1.2780140     1.1021720     0.9283990
  H       -1.2984520     1.1712490    -0.8452820
  H        1.2830030     1.0964650     0.9545460
  H        1.3014000     1.2020440    -0.8103600
  H       -3.1987899     0.1157263     0.0093307
  H        2.4586940    -0.9053110     0.6538860
units angstrom
no_reorient  #important for SAPT in psi4, default
symmetry c1  #important for SAPT in psi4, default
}

set PROPERTIES_ORIGIN ["COM"]
properties('MP2/aug-cc-pvtz', properties = ['dipole'])
--------------------------------------------------------------------------

    Molecular point group: c1
  Charge       = 0
  Multiplicity = 1
  Basis Set: AUG-CC-PVTZ
    Blend: AUG-CC-PVTZ
  Basis Set: (AUG-CC-PVTZ AUX)
    Blend: AUG-CC-PVTZ-JKFIT

    Orbital Energies [Eh]
    ---------------------

    Doubly Occupied:

       1A    -20.566556     2A    -20.559569     3A    -11.283328
       4A    -11.278582     5A    -11.223190     6A     -1.357881
       7A     -1.355268     8A     -1.050366     9A     -0.904928
      10A     -0.818357    11A     -0.703284    12A     -0.685276
      13A     -0.648371    14A     -0.612072    15A     -0.589632
      16A     -0.559157    17A     -0.530321    18A     -0.493047
      19A     -0.481232    20A     -0.450398    21A     -0.444117

  @DF-RHF Final Energy:  -268.07291602874858

   => Energetics <=

    Nuclear Repulsion Energy =            184.6760185396942404
    One-Electron Energy =                -732.3080083278975962
    Two-Electron Energy =                 279.5590737594547477
    Total Energy =                       -268.0729160287485797
  Basis Set: (AUG-CC-PVTZ AUX)
    Blend: AUG-CC-PVTZ-RI
    Molecular point group: c1

    Geometry (in Angstrom), charge = 0, multiplicity = 1:

       Center              X                  Y                   Z               Mass
    ------------   -----------------  -----------------  -----------------  -----------------
         O           -2.374721796952    -0.398529697814     0.003917887331    15.994914619570
         O            2.442792203048    -0.261270697814    -0.084259112669    15.994914619570
         C           -0.006539796952    -0.321903697814    -0.025173112669    12.000000000000
         C           -1.273551796952     0.510288302186     0.025369887331    12.000000000000
         C            1.257464203048     0.524619302186     0.038239887331    12.000000000000
         H           -0.025706796952    -1.026866697814     0.814987887331     1.007825032230
         H            0.002002203048    -0.912250697814    -0.945950112669     1.007825032230
         H           -1.287187796952     1.125283302186     0.938041887331     1.007825032230
         H           -1.307625796952     1.194360302186    -0.835639112669     1.007825032230
         H            1.273829203048     1.119576302186     0.964188887331     1.007825032230
         H            1.292226203048     1.225155302186    -0.800717112669     1.007825032230
         H           -3.207963696952     0.138837602186     0.018973587331     1.007825032230
         H            2.449520203048    -0.882199697814     0.663528887331     1.007825032230

  Basis Set: AUG-CC-PVTZ
    Blend: AUG-CC-PVTZ
  Basis Set: (AUG-CC-PVTZ AUX)
    Blend: AUG-CC-PVTZ-JKFIT
	 Reference Energy          =    -268.0729160287485797 [Eh]
	 Singles Energy            =      -0.0000000000000000 [Eh]
	 Same-Spin Energy          =      -0.2585377895939011 [Eh]
	 Opposite-Spin Energy      =      -0.8587394732818516 [Eh]
	 Correlation Energy        =      -1.1172772628757528 [Eh]
	 Total Energy              =    -269.1901932916243254 [Eh]

	 ================> DF-SCS-MP2 Energies <==================
	-----------------------------------------------------------
	 SCS Same-Spin Scale       =       0.3333333333333333 [-]
	 SCS Opposite-Spin Scale   =       1.2000000000000000 [-]
	 SCS Same-Spin Energy      =      -0.0861792631979670 [Eh]
	 SCS Opposite-Spin Energy  =      -1.0304873679382218 [Eh]
	 SCS Correlation Energy    =      -1.1166666311361888 [Eh]
	 SCS Total Energy          =    -269.1895826598847634 [Eh]
	-----------------------------------------------------------

  Dipole Moment: [D]
     X:    -1.3939      Y:     1.4417      Z:     1.1699     Total:     2.3216

*** Psi4 exiting successfully. Buy a developer a beer!
