                               Psi4 1.4a3.dev225

  ==> Input File <==

--------------------------------------------------------------------------
#psi4
#
memory 32 gb

molecule  {
0 1
  O       -2.3655480    -0.4216410    -0.0057250
  O        2.4519660    -0.2843820    -0.0939020
  C        0.0026340    -0.3450150    -0.0348160
  C       -1.2258198     0.5189999     0.0164782
  C        1.2666380     0.5015080     0.0285970
  H       -0.0165330    -1.0499780     0.8053450
  H        0.0111760    -0.9353620    -0.9555930
  H       -1.2780140     1.1021720     0.9283990
  H       -1.2984520     1.1712490    -0.8452820
  H        1.2830030     1.0964650     0.9545460
  H        1.3014000     1.2020440    -0.8103600
  H       -3.1819840     0.1048880     0.0090270
  H        2.4586940    -0.9053110     0.6538860
units angstrom
no_reorient  #important for SAPT in psi4, default
symmetry c1  #important for SAPT in psi4, default
}

set PROPERTIES_ORIGIN ["COM"]
properties('MP2/aug-cc-pvtz', properties = ['dipole'])
--------------------------------------------------------------------------

    Molecular point group: c1
  Charge       = 0
  Multiplicity = 1
  Basis Set: AUG-CC-PVTZ
    Blend: AUG-CC-PVTZ
  Basis Set: (AUG-CC-PVTZ AUX)
    Blend: AUG-CC-PVTZ-JKFIT

    Orbital Energies [Eh]
    ---------------------

    Doubly Occupied:

       1A    -20.560008     2A    -20.559445     3A    -11.283116
       4A    -11.279304     5A    -11.224293     6A     -1.357063
       7A     -1.342028     8A     -1.056212     9A     -0.907499
      10A     -0.821687    11A     -0.700903    12A     -0.681853
      13A     -0.649860    14A     -0.611311    15A     -0.587523
      16A     -0.552104    17A     -0.527805    18A     -0.500982
      19A     -0.482388    20A     -0.455983    21A     -0.444315

  @DF-RHF Final Energy:  -268.07171664852189

   => Energetics <=

    Nuclear Repulsion Energy =            184.5719581601198342
    One-Electron Energy =                -732.1159858962889757
    Two-Electron Energy =                 279.4723110876472560
    Total Energy =                       -268.0717166485218854
  Basis Set: (AUG-CC-PVTZ AUX)
    Blend: AUG-CC-PVTZ-RI
    Molecular point group: c1

    Geometry (in Angstrom), charge = 0, multiplicity = 1:

       Center              X                  Y                   Z               Mass
    ------------   -----------------  -----------------  -----------------  -----------------
         O           -2.381028443694    -0.403407276248     0.003803383119    15.994914619570
         O            2.436485556306    -0.266148276248    -0.084373616881    15.994914619570
         C           -0.012846443694    -0.326781276248    -0.025287616881    12.000000000000
         C           -1.241300243694     0.537233623752     0.026006583119    12.000000000000
         C            1.251157556306     0.519741723752     0.038125383119    12.000000000000
         H           -0.032013443694    -1.031744276248     0.814873383119     1.007825032230
         H           -0.004304443694    -0.917128276248    -0.946064616881     1.007825032230
         H           -1.293494443694     1.120405723752     0.937927383119     1.007825032230
         H           -1.313932443694     1.189482723752    -0.835753616881     1.007825032230
         H            1.267522556306     1.114698723752     0.964074383119     1.007825032230
         H            1.285919556306     1.220277723752    -0.800831616881     1.007825032230
         H           -3.197464443694     0.123121723752     0.018555383119     1.007825032230
         H            2.443213556306    -0.887077276248     0.663414383119     1.007825032230

  Basis Set: AUG-CC-PVTZ
    Blend: AUG-CC-PVTZ
  Basis Set: (AUG-CC-PVTZ AUX)
    Blend: AUG-CC-PVTZ-JKFIT
	 Reference Energy          =    -268.0717166485218854 [Eh]
	 Singles Energy            =      -0.0000000000000000 [Eh]
	 Same-Spin Energy          =      -0.2585313910358108 [Eh]
	 Opposite-Spin Energy      =      -0.8590840147975527 [Eh]
	 Correlation Energy        =      -1.1176154058333636 [Eh]
	 Total Energy              =    -269.1893320543552477 [Eh]

	 ================> DF-SCS-MP2 Energies <==================
	-----------------------------------------------------------
	 SCS Same-Spin Scale       =       0.3333333333333333 [-]
	 SCS Opposite-Spin Scale   =       1.2000000000000000 [-]
	 SCS Same-Spin Energy      =      -0.0861771303452703 [Eh]
	 SCS Opposite-Spin Energy  =      -1.0309008177570631 [Eh]
	 SCS Correlation Energy    =      -1.1170779481023334 [Eh]
	 SCS Total Energy          =    -269.1887945966242341 [Eh]
	-----------------------------------------------------------

  Dipole Moment: [D]
     X:    -1.2154      Y:     1.5308      Z:     1.1725     Total:     2.2793

*** Psi4 exiting successfully. Buy a developer a beer!
