                               Psi4 1.3.2 release

  ==> Input File <==

--------------------------------------------------------------------------
#psi4
#
memory 32 gb

molecule  {
0 1
  O       -2.3650430    -0.4218480    -0.0057540
  O        2.4536110    -0.2813640    -0.0931210
  C        0.0022180    -0.3452320    -0.0325630
  C       -1.2478700     0.4683113     0.0154936
  C        1.2660220     0.5019220     0.0302860
  H       -0.0166520    -1.0502680     0.8082600
  H        0.0130480    -0.9372200    -0.9525790
  H       -1.2783560     1.1031170     0.9279430
  H       -1.2958190     1.1699640    -0.8466950
  H        1.2819000     1.0960400     0.9568030
  H        1.2985200     1.2029780    -0.8084410
  H       -3.1890388     0.0927519    -0.0038589
  H        2.4407780    -0.9321410     0.6289100
units angstrom
no_reorient  #important for SAPT in psi4, default
symmetry c1  #important for SAPT in psi4, default
}

set PROPERTIES_ORIGIN ["COM"]
properties('MP2/aug-cc-pvtz', properties = ['dipole'])
--------------------------------------------------------------------------

    Molecular point group: c1
  Charge       = 0
  Multiplicity = 1
  Basis Set: AUG-CC-PVTZ
    Blend: AUG-CC-PVTZ
  Basis Set: (AUG-CC-PVTZ AUX)
    Blend: AUG-CC-PVTZ-JKFIT

    Orbital Energies [Eh]
    ---------------------

    Doubly Occupied:

       1A    -20.563804     2A    -20.560145     3A    -11.285027
       4A    -11.279477     5A    -11.223311     6A     -1.360352
       7A     -1.356183     8A     -1.055951     9A     -0.906542
      10A     -0.818056    11A     -0.706598    12A     -0.686797
      13A     -0.647097    14A     -0.614078    15A     -0.592648
      16A     -0.558710    17A     -0.529494    18A     -0.495448
      19A     -0.483728    20A     -0.446976    21A     -0.445333

  @DF-RHF Final Energy:  -268.07379239304851

   => Energetics <=

    Nuclear Repulsion Energy =            185.0310817401865791
    One-Electron Energy =                -732.9782368167814184
    Two-Electron Energy =                 279.8733626835463610
    Total Energy =                       -268.0737923930485067
  Basis Set: (AUG-CC-PVTZ AUX)
    Blend: AUG-CC-PVTZ-RI
    Molecular point group: c1

    Geometry (in Angstrom), charge = 0, multiplicity = 1:

       Center              X                  Y                   Z               Mass
    ------------   -----------------  -----------------  -----------------  -----------------
         O           -2.377003476543    -0.395696015179     0.003542184722    15.994914619570
         O            2.441650523457    -0.255212015179    -0.083824815278    15.994914619570
         C           -0.009742476543    -0.319080015179    -0.023266815278    12.000000000000
         C           -1.259830476543     0.494463284821     0.024789784722    12.000000000000
         C            1.254061523457     0.528073984821     0.039582184722    12.000000000000
         H           -0.028612476543    -1.024116015179     0.817556184722     1.007825032230
         H            0.001087523457    -0.911068015179    -0.943282815278     1.007825032230
         H           -1.290316476543     1.129268984821     0.937239184722     1.007825032230
         H           -1.307779476543     1.196115984821    -0.837398815278     1.007825032230
         H            1.269939523457     1.122191984821     0.966099184722     1.007825032230
         H            1.286559523457     1.229129984821    -0.799144815278     1.007825032230
         H           -3.200999276543     0.118903884821     0.005437284722     1.007825032230
         H            2.428817523457    -0.905989015179     0.638206184722     1.007825032230

  Basis Set: AUG-CC-PVTZ
    Blend: AUG-CC-PVTZ
  Basis Set: (AUG-CC-PVTZ AUX)
    Blend: AUG-CC-PVTZ-JKFIT
	 Reference Energy          =    -268.0737923930485067 [Eh]
	 Singles Energy            =      -0.0000000000000000 [Eh]
	 Same-Spin Energy          =      -0.2584307738425390 [Eh]
	 Opposite-Spin Energy      =      -0.8581397780110924 [Eh]
	 Correlation Energy        =      -1.1165705518536315 [Eh]
	 Total Energy              =    -269.1903629449021196 [Eh]

	 ================> DF-SCS-MP2 Energies <==================
	-----------------------------------------------------------
	 SCS Same-Spin Scale       =       0.3333333333333333 [-]
	 SCS Opposite-Spin Scale   =       1.2000000000000000 [-]
	 SCS Same-Spin Energy      =      -0.0861435912808463 [Eh]
	 SCS Opposite-Spin Energy  =      -1.0297677336133109 [Eh]
	 SCS Correlation Energy    =      -1.1159113248941572 [Eh]
	 SCS Total Energy          =    -269.1897037179426775 [Eh]
	-----------------------------------------------------------

  Dipole Moment: [D]
     X:    -1.3930      Y:     1.3603      Z:     1.1116     Total:     2.2420

*** Psi4 exiting successfully. Buy a developer a beer!
