                               Psi4 1.3.2 release

  ==> Input File <==

--------------------------------------------------------------------------
#psi4
#
memory 32 gb

molecule  {
0 1
  O       -2.3650430    -0.4218480    -0.0057540
  O        2.4536110    -0.2813640    -0.0931210
  C        0.0022180    -0.3452320    -0.0325630
  C       -1.2325013     0.4486784     0.0153077
  C        1.2660220     0.5019220     0.0302860
  H       -0.0166520    -1.0502680     0.8082600
  H        0.0130480    -0.9372200    -0.9525790
  H       -1.2783560     1.1031170     0.9279430
  H       -1.2958190     1.1699640    -0.8466950
  H        1.2819000     1.0960400     0.9568030
  H        1.2985200     1.2029780    -0.8084410
  H       -3.1978935     0.0782950    -0.0041383
  H        2.4407780    -0.9321410     0.6289100
units angstrom
no_reorient  #important for SAPT in psi4, default
symmetry c1  #important for SAPT in psi4, default
}

set PROPERTIES_ORIGIN ["COM"]
properties('MP2/aug-cc-pvtz', properties = ['dipole'])
--------------------------------------------------------------------------

    Molecular point group: c1
  Charge       = 0
  Multiplicity = 1
  Basis Set: AUG-CC-PVTZ
    Blend: AUG-CC-PVTZ
  Basis Set: (AUG-CC-PVTZ AUX)
    Blend: AUG-CC-PVTZ-JKFIT

    Orbital Energies [Eh]
    ---------------------

    Doubly Occupied:

       1A    -20.562632     2A    -20.560733     3A    -11.286416
       4A    -11.280358     5A    -11.222814     6A     -1.359476
       7A     -1.356415     8A     -1.060791     9A     -0.907251
      10A     -0.816937    11A     -0.707575    12A     -0.687195
      13A     -0.646079    14A     -0.616530    15A     -0.593189
      16A     -0.558228    17A     -0.529350    18A     -0.495982
      19A     -0.485252    20A     -0.446965    21A     -0.441758

  @DF-RHF Final Energy:  -268.07154633011766

   => Energetics <=

    Nuclear Repulsion Energy =            185.2691255690290291
    One-Electron Energy =                -733.4374910847620868
    Two-Electron Energy =                 280.0968191856154021
    Total Energy =                       -268.0715463301176555
  Basis Set: (AUG-CC-PVTZ AUX)
    Blend: AUG-CC-PVTZ-RI
    Molecular point group: c1

    Geometry (in Angstrom), charge = 0, multiplicity = 1:

       Center              X                  Y                   Z               Mass
    ------------   -----------------  -----------------  -----------------  -----------------
         O           -2.379311100545    -0.392406641948     0.003575219647    15.994914619570
         O            2.439342899455    -0.251922641948    -0.083791780353    15.994914619570
         C           -0.012050100545    -0.315790641948    -0.023233780353    12.000000000000
         C           -1.246769400545     0.478119758052     0.024636919647    12.000000000000
         C            1.251753899455     0.531363358052     0.039615219647    12.000000000000
         H           -0.030920100545    -1.020826641948     0.817589219647     1.007825032230
         H           -0.001220100545    -0.907778641948    -0.943249780353     1.007825032230
         H           -1.292624100545     1.132558358052     0.937272219647     1.007825032230
         H           -1.310087100545     1.199405358052    -0.837365780353     1.007825032230
         H            1.267631899455     1.125481358052     0.966132219647     1.007825032230
         H            1.284251899455     1.232419358052    -0.799111780353     1.007825032230
         H           -3.212161600545     0.107736358052     0.005190919647     1.007825032230
         H            2.426509899455    -0.902699641948     0.638239219647     1.007825032230

  Basis Set: AUG-CC-PVTZ
    Blend: AUG-CC-PVTZ
  Basis Set: (AUG-CC-PVTZ AUX)
    Blend: AUG-CC-PVTZ-JKFIT
	 Reference Energy          =    -268.0715463301176555 [Eh]
	 Singles Energy            =      -0.0000000000000000 [Eh]
	 Same-Spin Energy          =      -0.2585842961578232 [Eh]
	 Opposite-Spin Energy      =      -0.8582132279534094 [Eh]
	 Correlation Energy        =      -1.1167975241112327 [Eh]
	 Total Energy              =    -269.1883438542288900 [Eh]

	 ================> DF-SCS-MP2 Energies <==================
	-----------------------------------------------------------
	 SCS Same-Spin Scale       =       0.3333333333333333 [-]
	 SCS Opposite-Spin Scale   =       1.2000000000000000 [-]
	 SCS Same-Spin Energy      =      -0.0861947653859411 [Eh]
	 SCS Opposite-Spin Energy  =      -1.0298558735440912 [Eh]
	 SCS Correlation Energy    =      -1.1160506389300324 [Eh]
	 SCS Total Energy          =    -269.1875969690476609 [Eh]
	-----------------------------------------------------------

  Dipole Moment: [D]
     X:    -1.3682      Y:     1.3206      Z:     1.1116     Total:     2.2027

*** Psi4 exiting successfully. Buy a developer a beer!
