                               Psi4 1.3.2 release

  ==> Input File <==

--------------------------------------------------------------------------
#psi4
#
memory 32 gb

molecule  {
0 1
  O       -2.3650430    -0.4218480    -0.0057540
  O        2.4536110    -0.2813640    -0.0931210
  C        0.0022180    -0.3452320    -0.0325630
  C       -1.3126994     0.5440727     0.0161718
  C        1.2660220     0.5019220     0.0302860
  H       -0.0166520    -1.0502680     0.8082600
  H        0.0130480    -0.9372200    -0.9525790
  H       -1.2783560     1.1031170     0.9279430
  H       -1.2958190     1.1699640    -0.8466950
  H        1.2819000     1.0960400     0.9568030
  H        1.2985200     1.2029780    -0.8084410
  H       -3.1511378     0.1489685    -0.0027478
  H        2.4407780    -0.9321410     0.6289100
units angstrom
no_reorient  #important for SAPT in psi4, default
symmetry c1  #important for SAPT in psi4, default
}

set PROPERTIES_ORIGIN ["COM"]
properties('MP2/aug-cc-pvtz', properties = ['dipole'])
--------------------------------------------------------------------------

    Molecular point group: c1
  Charge       = 0
  Multiplicity = 1
  Basis Set: AUG-CC-PVTZ
    Blend: AUG-CC-PVTZ
  Basis Set: (AUG-CC-PVTZ AUX)
    Blend: AUG-CC-PVTZ-JKFIT

    Orbital Energies [Eh]
    ---------------------

    Doubly Occupied:

       1A    -20.568621     2A    -20.557959     3A    -11.281760
       4A    -11.276386     5A    -11.225103     6A     -1.365701
       7A     -1.354385     8A     -1.039497     9A     -0.905625
      10A     -0.821495    11A     -0.702218    12A     -0.686099
      13A     -0.653590    14A     -0.609814    15A     -0.588543
      16A     -0.565052    17A     -0.530302    18A     -0.489395
      19A     -0.472842    20A     -0.463254    21A     -0.438836

  @DF-RHF Final Energy:  -268.06744158815695

   => Energetics <=

    Nuclear Repulsion Energy =            184.1114202584841166
    One-Electron Energy =                -731.1647683212274842
    Two-Electron Energy =                 278.9859064745863861
    Total Energy =                       -268.0674415881569530
  Basis Set: (AUG-CC-PVTZ AUX)
    Blend: AUG-CC-PVTZ-RI
    Molecular point group: c1

    Geometry (in Angstrom), charge = 0, multiplicity = 1:

       Center              X                  Y                   Z               Mass
    ------------   -----------------  -----------------  -----------------  -----------------
         O           -2.367276565407    -0.408395061127     0.003420450355    15.994914619570
         O            2.451377434593    -0.267911061127    -0.083946549645    15.994914619570
         C           -0.000015565407    -0.331779061127    -0.023388549645    12.000000000000
         C           -1.314932965407     0.557525638873     0.025346250355    12.000000000000
         C            1.263788434593     0.515374938873     0.039460450355    12.000000000000
         H           -0.018885565407    -1.036815061127     0.817434450355     1.007825032230
         H            0.010814434593    -0.923767061127    -0.943404549645     1.007825032230
         H           -1.280589565407     1.116569938873     0.937117450355     1.007825032230
         H           -1.298052565407     1.183416938873    -0.837520549645     1.007825032230
         H            1.279666434593     1.109492938873     0.965977450355     1.007825032230
         H            1.296286434593     1.216430938873    -0.799266549645     1.007825032230
         H           -3.153371365407     0.162421438873     0.006426650355     1.007825032230
         H            2.438544434593    -0.918688061127     0.638084450355     1.007825032230

  Basis Set: AUG-CC-PVTZ
    Blend: AUG-CC-PVTZ
  Basis Set: (AUG-CC-PVTZ AUX)
    Blend: AUG-CC-PVTZ-JKFIT
	 Reference Energy          =    -268.0674415881569530 [Eh]
	 Singles Energy            =      -0.0000000000000000 [Eh]
	 Same-Spin Energy          =      -0.2584012908544523 [Eh]
	 Opposite-Spin Energy      =      -0.8588906958713376 [Eh]
	 Correlation Energy        =      -1.1172919867257900 [Eh]
	 Total Energy              =    -269.1847335748827277 [Eh]

	 ================> DF-SCS-MP2 Energies <==================
	-----------------------------------------------------------
	 SCS Same-Spin Scale       =       0.3333333333333333 [-]
	 SCS Opposite-Spin Scale   =       1.2000000000000000 [-]
	 SCS Same-Spin Energy      =      -0.0861337636181508 [Eh]
	 SCS Opposite-Spin Energy  =      -1.0306688350456050 [Eh]
	 SCS Correlation Energy    =      -1.1168025986637558 [Eh]
	 SCS Total Energy          =    -269.1842441868207061 [Eh]
	-----------------------------------------------------------

  Dipole Moment: [D]
     X:    -1.4805      Y:     1.4891      Z:     1.1112     Total:     2.3758

*** Psi4 exiting successfully. Buy a developer a beer!
