                               Psi4 1.3.2 release

  ==> Input File <==

--------------------------------------------------------------------------
#psi4
#
memory 32 gb

molecule  {
0 1
  O       -2.3650430    -0.4218480    -0.0057540
  O        2.4536110    -0.2813640    -0.0931210
  C        0.0022180    -0.3452320    -0.0325630
  C       -1.4177804     0.3603430     0.0126733
  C        1.2660220     0.5019220     0.0302860
  H       -0.0166520    -1.0502680     0.8082600
  H        0.0130480    -0.9372200    -0.9525790
  H       -1.2783560     1.1031170     0.9279430
  H       -1.2958190     1.1699640    -0.8466950
  H        1.2819000     1.0960400     0.9568030
  H        1.2985200     1.2029780    -0.8084410
  H       -3.1799330     0.1070520    -0.0035800
  H        2.4407780    -0.9321410     0.6289100
units angstrom
no_reorient  #important for SAPT in psi4, default
symmetry c1  #important for SAPT in psi4, default
}

set PROPERTIES_ORIGIN ["COM"]
properties('MP2/aug-cc-pvtz', properties = ['dipole'])
--------------------------------------------------------------------------

    Molecular point group: c1
  Charge       = 0
  Multiplicity = 1
  Basis Set: AUG-CC-PVTZ
    Blend: AUG-CC-PVTZ
  Basis Set: (AUG-CC-PVTZ AUX)
    Blend: AUG-CC-PVTZ-JKFIT

    Orbital Energies [Eh]
    ---------------------

    Doubly Occupied:

       1A    -20.588854     2A    -20.558017     3A    -11.295681
       4A    -11.276325     5A    -11.221089     6A     -1.466534
       7A     -1.353839     8A     -1.032159     9A     -0.904429
      10A     -0.814017    11A     -0.754954    12A     -0.689023
      13A     -0.661662    14A     -0.647538    15A     -0.604012
      16A     -0.575734    17A     -0.536745    18A     -0.483305
      19A     -0.450474    20A     -0.435941    21A     -0.410365

  @DF-RHF Final Energy:  -268.02914642999639

   => Energetics <=

    Nuclear Repulsion Energy =            186.0405479953676036
    One-Electron Energy =                -734.6179878897596609
    Two-Electron Energy =                 280.5482934643956128
    Total Energy =                       -268.0291464299963877
  Basis Set: (AUG-CC-PVTZ AUX)
    Blend: AUG-CC-PVTZ-RI
    Molecular point group: c1

    Geometry (in Angstrom), charge = 0, multiplicity = 1:

       Center              X                  Y                   Z               Mass
    ------------   -----------------  -----------------  -----------------  -----------------
         O           -2.350314680929    -0.378849642094     0.003983492355    15.994914619570
         O            2.468339319071    -0.238365642094    -0.083383507645    15.994914619570
         C            0.016946319071    -0.302233642094    -0.022825507645    12.000000000000
         C           -1.403052080929     0.403341357906     0.022410792355    12.000000000000
         C            1.280750319071     0.544920357906     0.040023492355    12.000000000000
         H           -0.001923680929    -1.007269642094     0.817997492355     1.007825032230
         H            0.027776319071    -0.894221642094    -0.942841507645     1.007825032230
         H           -1.263627680929     1.146115357906     0.937680492355     1.007825032230
         H           -1.281090680929     1.212962357906    -0.836957507645     1.007825032230
         H            1.296628319071     1.139038357906     0.966540492355     1.007825032230
         H            1.313248319071     1.245976357906    -0.798703507645     1.007825032230
         H           -3.165204680929     0.150050357906     0.006157492355     1.007825032230
         H            2.455506319071    -0.889142642094     0.638647492355     1.007825032230

  Basis Set: AUG-CC-PVTZ
    Blend: AUG-CC-PVTZ
  Basis Set: (AUG-CC-PVTZ AUX)
    Blend: AUG-CC-PVTZ-JKFIT
	 Reference Energy          =    -268.0291464299963877 [Eh]
	 Singles Energy            =      -0.0000000000000000 [Eh]
	 Same-Spin Energy          =      -0.2589663336152298 [Eh]
	 Opposite-Spin Energy      =      -0.8571283050805061 [Eh]
	 Correlation Energy        =      -1.1160946386957358 [Eh]
	 Total Energy              =    -269.1452410686921439 [Eh]

	 ================> DF-SCS-MP2 Energies <==================
	-----------------------------------------------------------
	 SCS Same-Spin Scale       =       0.3333333333333333 [-]
	 SCS Opposite-Spin Scale   =       1.2000000000000000 [-]
	 SCS Same-Spin Energy      =      -0.0863221112050766 [Eh]
	 SCS Opposite-Spin Energy  =      -1.0285539660966072 [Eh]
	 SCS Correlation Energy    =      -1.1148760773016839 [Eh]
	 SCS Total Energy          =    -269.1440225072980752 [Eh]
	-----------------------------------------------------------

  Dipole Moment: [D]
     X:    -2.2049      Y:     0.8384      Z:     1.0906     Total:     2.5988

*** Psi4 exiting successfully. Buy a developer a beer!
