                               Psi4 1.3.2 release

  ==> Input File <==

--------------------------------------------------------------------------
#psi4
#
memory 32 gb

molecule  {
0 1
  O       -2.3650430    -0.4218480    -0.0057540
  O        2.4536110    -0.2813640    -0.0931210
  C        0.0022180    -0.3452320    -0.0325630
  C       -1.1093776     0.6150030     0.0186727
  C        1.2660220     0.5019220     0.0302860
  H       -0.0166520    -1.0502680     0.8082600
  H        0.0130480    -0.9372200    -0.9525790
  H       -1.2783560     1.1031170     0.9279430
  H       -1.2958190     1.1699640    -0.8466950
  H        1.2819000     1.0960400     0.9568030
  H        1.2985200     1.2029780    -0.8084410
  H       -3.1799330     0.1070520    -0.0035800
  H        2.4407780    -0.9321410     0.6289100
units angstrom
no_reorient  #important for SAPT in psi4, default
symmetry c1  #important for SAPT in psi4, default
}

set PROPERTIES_ORIGIN ["COM"]
properties('MP2/aug-cc-pvtz', properties = ['dipole'])
--------------------------------------------------------------------------

    Molecular point group: c1
  Charge       = 0
  Multiplicity = 1
  Basis Set: AUG-CC-PVTZ
    Blend: AUG-CC-PVTZ
  Basis Set: (AUG-CC-PVTZ AUX)
    Blend: AUG-CC-PVTZ-JKFIT

    Orbital Energies [Eh]
    ---------------------

    Doubly Occupied:

       1A    -20.561610     2A    -20.542638     3A    -11.288014
       4A    -11.282226     5A    -11.229253     6A     -1.358902
       7A     -1.296839     8A     -1.072572     9A     -0.912616
      10A     -0.831617    11A     -0.702966    12A     -0.669771
      13A     -0.647849    14A     -0.616177    15A     -0.583230
      16A     -0.550751    17A     -0.524861    18A     -0.495359
      19A     -0.480429    20A     -0.457134    21A     -0.442264

  @DF-RHF Final Energy:  -268.04307219525293

   => Energetics <=

    Nuclear Repulsion Energy =            184.0357136107646170
    One-Electron Energy =                -731.0634203299422325
    Two-Electron Energy =                 278.9846345239246261
    Total Energy =                       -268.0430721952529325
  Basis Set: (AUG-CC-PVTZ AUX)
    Blend: AUG-CC-PVTZ-RI
    Molecular point group: c1

    Geometry (in Angstrom), charge = 0, multiplicity = 1:

       Center              X                  Y                   Z               Mass
    ------------   -----------------  -----------------  -----------------  -----------------
         O           -2.398976290091    -0.419031395922     0.003036871708    15.994914619570
         O            2.419677709909    -0.278547395922    -0.084330128292    15.994914619570
         C           -0.031715290091    -0.342415395922    -0.023772128292    12.000000000000
         C           -1.143310890091     0.617819604078     0.027463571708    12.000000000000
         C            1.232088709909     0.504738604078     0.039076871708    12.000000000000
         H           -0.050585290091    -1.047451395922     0.817050871708     1.007825032230
         H           -0.020885290091    -0.934403395922    -0.943788128292     1.007825032230
         H           -1.312289290091     1.105933604078     0.936733871708     1.007825032230
         H           -1.329752290091     1.172780604078    -0.837904128292     1.007825032230
         H            1.247966709909     1.098856604078     0.965593871708     1.007825032230
         H            1.264586709909     1.205794604078    -0.799650128292     1.007825032230
         H           -3.213866290091     0.109868604078     0.005210871708     1.007825032230
         H            2.406844709909    -0.929324395922     0.637700871708     1.007825032230

  Basis Set: AUG-CC-PVTZ
    Blend: AUG-CC-PVTZ
  Basis Set: (AUG-CC-PVTZ AUX)
    Blend: AUG-CC-PVTZ-JKFIT
	 Reference Energy          =    -268.0430721952529325 [Eh]
	 Singles Energy            =      -0.0000000000000000 [Eh]
	 Same-Spin Energy          =      -0.2599871520141850 [Eh]
	 Opposite-Spin Energy      =      -0.8634331299374830 [Eh]
	 Correlation Energy        =      -1.1234202819516681 [Eh]
	 Total Energy              =    -269.1664924772045993 [Eh]

	 ================> DF-SCS-MP2 Energies <==================
	-----------------------------------------------------------
	 SCS Same-Spin Scale       =       0.3333333333333333 [-]
	 SCS Opposite-Spin Scale   =       1.2000000000000000 [-]
	 SCS Same-Spin Energy      =      -0.0866623840047283 [Eh]
	 SCS Opposite-Spin Energy  =      -1.0361197559249795 [Eh]
	 SCS Correlation Energy    =      -1.1227821399297078 [Eh]
	 SCS Total Energy          =    -269.1658543351826438 [Eh]
	-----------------------------------------------------------

  Dipole Moment: [D]
     X:    -0.8067      Y:     1.7035      Z:     1.1209     Total:     2.1929

*** Psi4 exiting successfully. Buy a developer a beer!
