                               Psi4 1.3.2 release

  ==> Input File <==

--------------------------------------------------------------------------
#psi4
#
memory 32 gb

molecule  {
0 1
  O       -2.3611352    -0.4262360    -0.0167494
  O        2.4536110    -0.2813640    -0.0931210
  C        0.0022180    -0.3452320    -0.0325630
  C       -1.2635790     0.4876730     0.0156730
  C        1.2660220     0.5019220     0.0302860
  H       -0.0166520    -1.0502680     0.8082600
  H        0.0130480    -0.9372200    -0.9525790
  H       -1.2703752     1.1075824     0.9250092
  H       -1.2958190     1.1699640    -0.8466950
  H        1.2819000     1.0960400     0.9568030
  H        1.2985200     1.2029780    -0.8084410
  H       -3.1799330     0.1070520    -0.0035800
  H        2.4407780    -0.9321410     0.6289100
units angstrom
no_reorient  #important for SAPT in psi4, default
symmetry c1  #important for SAPT in psi4, default
}

set PROPERTIES_ORIGIN ["COM"]
properties('MP2/aug-cc-pvtz', properties = ['dipole'])
--------------------------------------------------------------------------

    Molecular point group: c1
  Charge       = 0
  Multiplicity = 1
  Basis Set: AUG-CC-PVTZ
    Blend: AUG-CC-PVTZ
  Basis Set: (AUG-CC-PVTZ AUX)
    Blend: AUG-CC-PVTZ-JKFIT

    Orbital Energies [Eh]
    ---------------------

    Doubly Occupied:

       1A    -20.566063     2A    -20.559458     3A    -11.283791
       4A    -11.278490     5A    -11.223530     6A     -1.360740
       7A     -1.355626     8A     -1.051176     9A     -0.905650
      10A     -0.818991    11A     -0.705248    12A     -0.685623
      13A     -0.648391    14A     -0.612284    15A     -0.591032
      16A     -0.559868    17A     -0.529555    18A     -0.494535
      19A     -0.481464    20A     -0.451448    21A     -0.443995

  @DF-RHF Final Energy:  -268.07386375065312

   => Energetics <=

    Nuclear Repulsion Energy =            184.8051688965897768
    One-Electron Energy =                -732.5441483785605215
    Two-Electron Energy =                 279.6651157313176554
    Total Energy =                       -268.0738637506531177
  Basis Set: (AUG-CC-PVTZ AUX)
    Blend: AUG-CC-PVTZ-RI
    Molecular point group: c1

    Geometry (in Angstrom), charge = 0, multiplicity = 1:

       Center              X                  Y                   Z               Mass
    ------------   -----------------  -----------------  -----------------  -----------------
         O           -2.371665311068    -0.402464833996    -0.005133850071    15.994914619570
         O            2.443080888932    -0.257592833996    -0.081505450071    15.994914619570
         C           -0.008312111068    -0.321460833996    -0.020947450071    12.000000000000
         C           -1.274109111068     0.511444166004     0.027288549929    12.000000000000
         C            1.255491888932     0.525693166004     0.041901549929    12.000000000000
         H           -0.027182111068    -1.026496833996     0.819875549929     1.007825032230
         H            0.002517888932    -0.913448833996    -0.940963450071     1.007825032230
         H           -1.280905311068     1.131353566004     0.936624749929     1.007825032230
         H           -1.306349111068     1.193735166004    -0.835079450071     1.007825032230
         H            1.271369888932     1.119811166004     0.968418549929     1.007825032230
         H            1.287989888932     1.226749166004    -0.796825450071     1.007825032230
         H           -3.190463111068     0.130823166004     0.008035549929     1.007825032230
         H            2.430247888932    -0.908369833996     0.640525549929     1.007825032230

  Basis Set: AUG-CC-PVTZ
    Blend: AUG-CC-PVTZ
  Basis Set: (AUG-CC-PVTZ AUX)
    Blend: AUG-CC-PVTZ-JKFIT
	 Reference Energy          =    -268.0738637506531177 [Eh]
	 Singles Energy            =      -0.0000000000000000 [Eh]
	 Same-Spin Energy          =      -0.2584371442552348 [Eh]
	 Opposite-Spin Energy      =      -0.8584102564756230 [Eh]
	 Correlation Energy        =      -1.1168474007308578 [Eh]
	 Total Energy              =    -269.1907111513839936 [Eh]

	 ================> DF-SCS-MP2 Energies <==================
	-----------------------------------------------------------
	 SCS Same-Spin Scale       =       0.3333333333333333 [-]
	 SCS Opposite-Spin Scale   =       1.2000000000000000 [-]
	 SCS Same-Spin Energy      =      -0.0861457147517449 [Eh]
	 SCS Opposite-Spin Energy  =      -1.0300923077707476 [Eh]
	 SCS Correlation Energy    =      -1.1162380225224924 [Eh]
	 SCS Total Energy          =    -269.1901017731756269 [Eh]
	-----------------------------------------------------------

  Dipole Moment: [D]
     X:    -1.4285      Y:     1.4012      Z:     1.1369     Total:     2.3014

*** Psi4 exiting successfully. Buy a developer a beer!
