                               Psi4 1.3.2 release

  ==> Input File <==

--------------------------------------------------------------------------
#psi4
#
memory 32 gb

molecule  {
0 1
  O       -2.3159289    -0.4781857    -0.0085574
  O        2.4536110    -0.2813640    -0.0931210
  C       -0.0431693    -0.4103139    -0.0345168
  C       -1.2635790     0.4876730     0.0156730
  C        1.2660220     0.5019220     0.0302860
  H       -0.0166520    -1.0502680     0.8082600
  H        0.0130480    -0.9372200    -0.9525790
  H       -1.2783560     1.1031170     0.9279430
  H       -1.2958190     1.1699640    -0.8466950
  H        1.2819000     1.0960400     0.9568030
  H        1.2985200     1.2029780    -0.8084410
  H       -3.1799330     0.1070520    -0.0035800
  H        2.4407780    -0.9321410     0.6289100
units angstrom
no_reorient  #important for SAPT in psi4, default
symmetry c1  #important for SAPT in psi4, default
}

set PROPERTIES_ORIGIN ["COM"]
properties('MP2/aug-cc-pvtz', properties = ['dipole'])
--------------------------------------------------------------------------

    Molecular point group: c1
  Charge       = 0
  Multiplicity = 1
  Basis Set: AUG-CC-PVTZ
    Blend: AUG-CC-PVTZ
  Basis Set: (AUG-CC-PVTZ AUX)
    Blend: AUG-CC-PVTZ-JKFIT

    Orbital Energies [Eh]
    ---------------------

    Doubly Occupied:

       1A    -20.571894     2A    -20.557040     3A    -11.282255
       4A    -11.278506     5A    -11.218867     6A     -1.353486
       7A     -1.350032     8A     -1.039493     9A     -0.895457
      10A     -0.825150    11A     -0.695672    12A     -0.679953
      13A     -0.649032    14A     -0.605505    15A     -0.580334
      16A     -0.560167    17A     -0.534759    18A     -0.501209
      19A     -0.479865    20A     -0.453826    21A     -0.428365

  @DF-RHF Final Energy:  -268.05699553814566

   => Energetics <=

    Nuclear Repulsion Energy =            184.4286872945950790
    One-Electron Energy =                -731.8896314244657333
    Two-Electron Energy =                 279.4039485917249976
    Total Energy =                       -268.0569955381456566
  Basis Set: (AUG-CC-PVTZ AUX)
    Blend: AUG-CC-PVTZ-RI
    Molecular point group: c1

    Geometry (in Angstrom), charge = 0, multiplicity = 1:

       Center              X                  Y                   Z               Mass
    ------------   -----------------  -----------------  -----------------  -----------------
         O           -2.328699308451    -0.433160588940     0.001604659247    15.994914619570
         O            2.440840591549    -0.236338888940    -0.082958940753    15.994914619570
         C           -0.055939708451    -0.365288788940    -0.024354740753    12.000000000000
         C           -1.276349408451     0.532698111060     0.025835059247    12.000000000000
         C            1.253251591549     0.546947111060     0.040448059247    12.000000000000
         H           -0.029422408451    -1.005242888940     0.818422059247     1.007825032230
         H            0.000277591549    -0.892194888940    -0.942416940753     1.007825032230
         H           -1.291126408451     1.148142111060     0.938105059247     1.007825032230
         H           -1.308589408451     1.214989111060    -0.836532940753     1.007825032230
         H            1.269129591549     1.141065111060     0.966965059247     1.007825032230
         H            1.285749591549     1.248003111060    -0.798278940753     1.007825032230
         H           -3.192703408451     0.152077111060     0.006582059247     1.007825032230
         H            2.428007591549    -0.887115888940     0.639072059247     1.007825032230

  Basis Set: AUG-CC-PVTZ
    Blend: AUG-CC-PVTZ
  Basis Set: (AUG-CC-PVTZ AUX)
    Blend: AUG-CC-PVTZ-JKFIT
	 Reference Energy          =    -268.0569955381456566 [Eh]
	 Singles Energy            =      -0.0000000000000000 [Eh]
	 Same-Spin Energy          =      -0.2593636178218165 [Eh]
	 Opposite-Spin Energy      =      -0.8614378644916176 [Eh]
	 Correlation Energy        =      -1.1208014823134342 [Eh]
	 Total Energy              =    -269.1777970204590815 [Eh]

	 ================> DF-SCS-MP2 Energies <==================
	-----------------------------------------------------------
	 SCS Same-Spin Scale       =       0.3333333333333333 [-]
	 SCS Opposite-Spin Scale   =       1.2000000000000000 [-]
	 SCS Same-Spin Energy      =      -0.0864545392739388 [Eh]
	 SCS Opposite-Spin Energy  =      -1.0337254373899412 [Eh]
	 SCS Correlation Energy    =      -1.1201799766638800 [Eh]
	 SCS Total Energy          =    -269.1771755148095622 [Eh]
	-----------------------------------------------------------

  Dipole Moment: [D]
     X:    -1.4959      Y:     1.4520      Z:     1.1210     Total:     2.3670

*** Psi4 exiting successfully. Buy a developer a beer!
