                               Psi4 1.3.2 release

  ==> Input File <==

--------------------------------------------------------------------------
#psi4
#
memory 32 gb

molecule  {
0 1
  O       -2.3867181    -0.3940777     0.0602232
  O        2.4536110    -0.2813640    -0.0931210
  C        0.0022180    -0.3452320    -0.0325630
  C       -1.2635790     0.4876730     0.0156730
  C        1.2660220     0.5019220     0.0302860
  H       -0.0166520    -1.0502680     0.8082600
  H        0.0130480    -0.9372200    -0.9525790
  H       -1.3261957     1.0753524     0.9440793
  H       -1.2958190     1.1699640    -0.8466950
  H        1.2819000     1.0960400     0.9568030
  H        1.2985200     1.2029780    -0.8084410
  H       -3.1799330     0.1070520    -0.0035800
  H        2.4407780    -0.9321410     0.6289100
units angstrom
no_reorient  #important for SAPT in psi4, default
symmetry c1  #important for SAPT in psi4, default
}

set PROPERTIES_ORIGIN ["COM"]
properties('MP2/aug-cc-pvtz', properties = ['dipole'])
--------------------------------------------------------------------------

    Molecular point group: c1
  Charge       = 0
  Multiplicity = 1
  Basis Set: AUG-CC-PVTZ
    Blend: AUG-CC-PVTZ
  Basis Set: (AUG-CC-PVTZ AUX)
    Blend: AUG-CC-PVTZ-JKFIT

    Orbital Energies [Eh]
    ---------------------

    Doubly Occupied:

       1A    -20.560233     2A    -20.558883     3A    -11.284190
       4A    -11.279500     5A    -11.225301     6A     -1.366106
       7A     -1.356575     8A     -1.052753     9A     -0.908270
      10A     -0.819824    11A     -0.707674    12A     -0.690931
      13A     -0.647989    14A     -0.612109    15A     -0.596508
      16A     -0.558755    17A     -0.530479    18A     -0.492620
      19A     -0.483907    20A     -0.449628    21A     -0.444984

  @DF-RHF Final Energy:  -268.07459229100107

   => Energetics <=

    Nuclear Repulsion Energy =            184.7526250014941525
    One-Electron Energy =                -732.3999946115674220
    Two-Electron Energy =                 279.5727773190722019
    Total Energy =                       -268.0745922910010677
  Basis Set: (AUG-CC-PVTZ AUX)
    Blend: AUG-CC-PVTZ-RI
    Molecular point group: c1

    Geometry (in Angstrom), charge = 0, multiplicity = 1:

       Center              X                  Y                   Z               Mass
    ------------   -----------------  -----------------  -----------------  -----------------
         O           -2.391128043685    -0.376642782098     0.055397598773    15.994914619570
         O            2.449201056315    -0.263929082098    -0.097946601227    15.994914619570
         C           -0.002191943685    -0.327797082098    -0.037388601227    12.000000000000
         C           -1.267988943685     0.505107917902     0.010847398773    12.000000000000
         C            1.261612056315     0.519356917902     0.025460398773    12.000000000000
         H           -0.021061943685    -1.032833082098     0.803434398773     1.007825032230
         H            0.008638056315    -0.919785082098    -0.957404601227     1.007825032230
         H           -1.330605643685     1.092787317902     0.939253698773     1.007825032230
         H           -1.300228943685     1.187398917902    -0.851520601227     1.007825032230
         H            1.277490056315     1.113474917902     0.951977398773     1.007825032230
         H            1.294110056315     1.220412917902    -0.813266601227     1.007825032230
         H           -3.184342943685     0.124486917902    -0.008405601227     1.007825032230
         H            2.436368056315    -0.914706082098     0.624084398773     1.007825032230

  Basis Set: AUG-CC-PVTZ
    Blend: AUG-CC-PVTZ
  Basis Set: (AUG-CC-PVTZ AUX)
    Blend: AUG-CC-PVTZ-JKFIT
	 Reference Energy          =    -268.0745922910010677 [Eh]
	 Singles Energy            =      -0.0000000000000000 [Eh]
	 Same-Spin Energy          =      -0.2578546362614356 [Eh]
	 Opposite-Spin Energy      =      -0.8570153604460429 [Eh]
	 Correlation Energy        =      -1.1148699967074784 [Eh]
	 Total Energy              =    -269.1894622877085226 [Eh]

	 ================> DF-SCS-MP2 Energies <==================
	-----------------------------------------------------------
	 SCS Same-Spin Scale       =       0.3333333333333333 [-]
	 SCS Opposite-Spin Scale   =       1.2000000000000000 [-]
	 SCS Same-Spin Energy      =      -0.0859515454204785 [Eh]
	 SCS Opposite-Spin Energy  =      -1.0284184325352514 [Eh]
	 SCS Correlation Energy    =      -1.1143699779557299 [Eh]
	 SCS Total Energy          =    -269.1889622689568000 [Eh]
	-----------------------------------------------------------

  Dipole Moment: [D]
     X:    -1.3492      Y:     1.3628      Z:     0.9544     Total:     2.1420

*** Psi4 exiting successfully. Buy a developer a beer!
