                               Psi4 1.3.2 release

  ==> Input File <==

--------------------------------------------------------------------------
#psi4
#
memory 32 gb

molecule  {
0 1
  O       -2.3650430    -0.4218480    -0.0057540
  O        2.4536110    -0.2813640    -0.0931210
  C        0.0022180    -0.3452320    -0.0325630
  C       -1.1864783     0.5513380     0.0171729
  C        1.2660220     0.5019220     0.0302860
  H       -0.0166520    -1.0502680     0.8082600
  H        0.0130480    -0.9372200    -0.9525790
  H       -1.2783560     1.1031170     0.9279430
  H       -1.2958190     1.1699640    -0.8466950
  H        1.2819000     1.0960400     0.9568030
  H        1.2985200     1.2029780    -0.8084410
  H       -3.1799330     0.1070520    -0.0035800
  H        2.4407780    -0.9321410     0.6289100
units angstrom
no_reorient  #important for SAPT in psi4, default
symmetry c1  #important for SAPT in psi4, default
}

set PROPERTIES_ORIGIN ["COM"]
properties('MP2/aug-cc-pvtz', properties = ['dipole'])
--------------------------------------------------------------------------

    Molecular point group: c1
  Charge       = 0
  Multiplicity = 1
  Basis Set: AUG-CC-PVTZ
    Blend: AUG-CC-PVTZ
  Basis Set: (AUG-CC-PVTZ AUX)
    Blend: AUG-CC-PVTZ-JKFIT

    Orbital Energies [Eh]
    ---------------------

    Doubly Occupied:

       1A    -20.560423     2A    -20.554231     3A    -11.283987
       4A    -11.280125     5A    -11.226044     6A     -1.357361
       7A     -1.325441     8A     -1.061869     9A     -0.909170
      10A     -0.825351    11A     -0.699615    12A     -0.675798
      13A     -0.650272    14A     -0.611940    15A     -0.587193
      16A     -0.547207    17A     -0.524145    18A     -0.505230
      19A     -0.482795    20A     -0.458981    21A     -0.444050

  @DF-RHF Final Energy:  -268.06493276735091

   => Energetics <=

    Nuclear Repulsion Energy =            184.3827006296480420
    One-Electron Energy =                -731.7528096096478976
    Two-Electron Energy =                 279.3051762126489166
    Total Energy =                       -268.0649327673509106
  Basis Set: (AUG-CC-PVTZ AUX)
    Blend: AUG-CC-PVTZ-RI
    Molecular point group: c1

    Geometry (in Angstrom), charge = 0, multiplicity = 1:

       Center              X                  Y                   Z               Mass
    ------------   -----------------  -----------------  -----------------  -----------------
         O           -2.386810887800    -0.408985957465     0.003273518980    15.994914619570
         O            2.431843112200    -0.268501957465    -0.084093481020    15.994914619570
         C           -0.019549887800    -0.332369957465    -0.023535481020    12.000000000000
         C           -1.208246187800     0.564200042535     0.026200418980    12.000000000000
         C            1.244254112200     0.514784042535     0.039313518980    12.000000000000
         H           -0.038419887800    -1.037405957465     0.817287518980     1.007825032230
         H           -0.008719887800    -0.924357957465    -0.943551481020     1.007825032230
         H           -1.300123887800     1.115979042535     0.936970518980     1.007825032230
         H           -1.317586887800     1.182826042535    -0.837667481020     1.007825032230
         H            1.260132112200     1.108902042535     0.965830518980     1.007825032230
         H            1.276752112200     1.215840042535    -0.799413481020     1.007825032230
         H           -3.201700887800     0.119914042535     0.005447518980     1.007825032230
         H            2.419010112200    -0.919278957465     0.637937518980     1.007825032230

  Basis Set: AUG-CC-PVTZ
    Blend: AUG-CC-PVTZ
  Basis Set: (AUG-CC-PVTZ AUX)
    Blend: AUG-CC-PVTZ-JKFIT
	 Reference Energy          =    -268.0649327673509106 [Eh]
	 Singles Energy            =      -0.0000000000000000 [Eh]
	 Same-Spin Energy          =      -0.2589127562719695 [Eh]
	 Opposite-Spin Energy      =      -0.8603651790312963 [Eh]
	 Correlation Energy        =      -1.1192779353032658 [Eh]
	 Total Energy              =    -269.1842107026541839 [Eh]

	 ================> DF-SCS-MP2 Energies <==================
	-----------------------------------------------------------
	 SCS Same-Spin Scale       =       0.3333333333333333 [-]
	 SCS Opposite-Spin Scale   =       1.2000000000000000 [-]
	 SCS Same-Spin Energy      =      -0.0863042520906565 [Eh]
	 SCS Opposite-Spin Energy  =      -1.0324382148375555 [Eh]
	 SCS Correlation Energy    =      -1.1187424669282120 [Eh]
	 SCS Total Energy          =    -269.1836752342791215 [Eh]
	-----------------------------------------------------------

  Dipole Moment: [D]
     X:    -1.0971      Y:     1.5730      Z:     1.1172     Total:     2.2195

*** Psi4 exiting successfully. Buy a developer a beer!
