                               Psi4 1.3.2 release

  ==> Input File <==

--------------------------------------------------------------------------
#psi4
#
memory 32 gb

molecule  {
0 1
  O       -2.3650430    -0.4218480    -0.0057540
  O        2.4536110    -0.2813640    -0.0931210
  C        0.0022180    -0.3452320    -0.0325630
  C       -1.2562506     0.4986608     0.0164392
  C        1.2585612     0.5128971     0.0309714
  H       -0.0166520    -1.0502680     0.8082600
  H        0.0130480    -0.9372200    -0.9525790
  H       -1.2783560     1.1031170     0.9279430
  H       -1.2958190     1.1699640    -0.8466950
  H        1.2819000     1.0960400     0.9568030
  H        1.2985200     1.2029780    -0.8084410
  H       -3.1799330     0.1070520    -0.0035800
  H        2.4407780    -0.9321410     0.6289100
units angstrom
no_reorient  #important for SAPT in psi4, default
symmetry c1  #important for SAPT in psi4, default
}

set PROPERTIES_ORIGIN ["COM"]
properties('MP2/aug-cc-pvtz', properties = ['dipole'])
--------------------------------------------------------------------------

    Molecular point group: c1
  Charge       = 0
  Multiplicity = 1
  Basis Set: AUG-CC-PVTZ
    Blend: AUG-CC-PVTZ
  Basis Set: (AUG-CC-PVTZ AUX)
    Blend: AUG-CC-PVTZ-JKFIT

    Orbital Energies [Eh]
    ---------------------

    Doubly Occupied:

       1A    -20.563827     2A    -20.558120     3A    -11.283535
       4A    -11.278384     5A    -11.224471     6A     -1.356671
       7A     -1.350781     8A     -1.052725     9A     -0.906936
      10A     -0.820328    11A     -0.702626    12A     -0.685836
      13A     -0.648004    14A     -0.609730    15A     -0.590036
      16A     -0.557296    17A     -0.528127    18A     -0.496832
      19A     -0.483304    20A     -0.453628    21A     -0.444735

  @DF-RHF Final Energy:  -268.07376917426478

   => Energetics <=

    Nuclear Repulsion Energy =            184.6057321670947431
    One-Electron Energy =                -732.1671461952769278
    Two-Electron Energy =                 279.4876448539174021
    Total Energy =                       -268.0737691742647826
  Basis Set: (AUG-CC-PVTZ AUX)
    Blend: AUG-CC-PVTZ-RI
    Molecular point group: c1

    Geometry (in Angstrom), charge = 0, multiplicity = 1:

       Center              X                  Y                   Z               Mass
    ------------   -----------------  -----------------  -----------------  -----------------
         O           -2.374624594659    -0.402405954652     0.003281140039    15.994914619570
         O            2.444029405341    -0.261921954652    -0.084085859961    15.994914619570
         C           -0.007363594659    -0.325789954652    -0.023527859961    12.000000000000
         C           -1.265832194659     0.518102845348     0.025474340039    12.000000000000
         C            1.248979605341     0.532339145348     0.040006540039    12.000000000000
         H           -0.026233594659    -1.030825954652     0.817295140039     1.007825032230
         H            0.003466405341    -0.917777954652    -0.943543859961     1.007825032230
         H           -1.287937594659     1.122559045348     0.936978140039     1.007825032230
         H           -1.305400594659     1.189406045348    -0.837659859961     1.007825032230
         H            1.272318405341     1.115482045348     0.965838140039     1.007825032230
         H            1.288938405341     1.222420045348    -0.799405859961     1.007825032230
         H           -3.189514594659     0.126494045348     0.005455140039     1.007825032230
         H            2.431196405341    -0.912698954652     0.637945140039     1.007825032230

  Basis Set: AUG-CC-PVTZ
    Blend: AUG-CC-PVTZ
  Basis Set: (AUG-CC-PVTZ AUX)
    Blend: AUG-CC-PVTZ-JKFIT
	 Reference Energy          =    -268.0737691742647826 [Eh]
	 Singles Energy            =      -0.0000000000000000 [Eh]
	 Same-Spin Energy          =      -0.2583706905609585 [Eh]
	 Opposite-Spin Energy      =      -0.8585689518886797 [Eh]
	 Correlation Energy        =      -1.1169396424496381 [Eh]
	 Total Energy              =    -269.1907088167144479 [Eh]

	 ================> DF-SCS-MP2 Energies <==================
	-----------------------------------------------------------
	 SCS Same-Spin Scale       =       0.3333333333333333 [-]
	 SCS Opposite-Spin Scale   =       1.2000000000000000 [-]
	 SCS Same-Spin Energy      =      -0.0861235635203195 [Eh]
	 SCS Opposite-Spin Energy  =      -1.0302827422664156 [Eh]
	 SCS Correlation Energy    =      -1.1164063057867351 [Eh]
	 SCS Total Energy          =    -269.1901754800514937 [Eh]
	-----------------------------------------------------------

  Dipole Moment: [D]
     X:    -1.4170      Y:     1.4543      Z:     1.1165     Total:     2.3172

*** Psi4 exiting successfully. Buy a developer a beer!
