                               Psi4 1.3.2 release

  ==> Input File <==

--------------------------------------------------------------------------
#psi4
#
memory 32 gb

molecule  {
0 1
  O       -2.3961165    -0.3828947    -0.0038519
  O        2.4536110    -0.2813640    -0.0931210
  C        0.0305560    -0.3005645    -0.0311867
  C       -1.2635790     0.4876730     0.0156730
  C        1.2660220     0.5019220     0.0302860
  H       -0.0166520    -1.0502680     0.8082600
  H        0.0130480    -0.9372200    -0.9525790
  H       -1.2783560     1.1031170     0.9279430
  H       -1.2958190     1.1699640    -0.8466950
  H        1.2819000     1.0960400     0.9568030
  H        1.2985200     1.2029780    -0.8084410
  H       -3.1799330     0.1070520    -0.0035800
  H        2.4407780    -0.9321410     0.6289100
units angstrom
no_reorient  #important for SAPT in psi4, default
symmetry c1  #important for SAPT in psi4, default
}

set PROPERTIES_ORIGIN ["COM"]
properties('MP2/aug-cc-pvtz', properties = ['dipole'])
--------------------------------------------------------------------------

    Molecular point group: c1
  Charge       = 0
  Multiplicity = 1
  Basis Set: AUG-CC-PVTZ
    Blend: AUG-CC-PVTZ
  Basis Set: (AUG-CC-PVTZ AUX)
    Blend: AUG-CC-PVTZ-JKFIT

    Orbital Energies [Eh]
    ---------------------

    Doubly Occupied:

       1A    -20.561367     2A    -20.560242     3A    -11.285971
       4A    -11.278347     5A    -11.228450     6A     -1.370629
       7A     -1.358230     8A     -1.060610     9A     -0.914860
      10A     -0.815571    11A     -0.714238    12A     -0.690479
      13A     -0.648628    14A     -0.617955    15A     -0.600412
      16A     -0.558729    17A     -0.529691    18A     -0.488267
      19A     -0.481809    20A     -0.450975    21A     -0.447866

  @DF-RHF Final Energy:  -268.07156118239016

   => Energetics <=

    Nuclear Repulsion Energy =            185.1165254531385358
    One-Electron Energy =                -733.0495239758304251
    Two-Electron Energy =                 279.8614373403016771
    Total Energy =                       -268.0715611823901554
  Basis Set: (AUG-CC-PVTZ AUX)
    Blend: AUG-CC-PVTZ-RI
    Molecular point group: c1

    Geometry (in Angstrom), charge = 0, multiplicity = 1:

       Center              X                  Y                   Z               Mass
    ------------   -----------------  -----------------  -----------------  -----------------
         O           -2.403655120089    -0.375227556698     0.004795082457    15.994914619570
         O            2.446072379911    -0.273696856698    -0.084474017543    15.994914619570
         C            0.023017379911    -0.292897356698    -0.022539717543    12.000000000000
         C           -1.271117620089     0.495340143302     0.024319982457    12.000000000000
         C            1.258483379911     0.509589143302     0.038932982457    12.000000000000
         H           -0.024190620089    -1.042600856698     0.816906982457     1.007825032230
         H            0.005509379911    -0.929552856698    -0.943932017543     1.007825032230
         H           -1.285894620089     1.110784143302     0.936589982457     1.007825032230
         H           -1.303357620089     1.177631143302    -0.838048017543     1.007825032230
         H            1.274361379911     1.103707143302     0.965449982457     1.007825032230
         H            1.290981379911     1.210645143302    -0.799794017543     1.007825032230
         H           -3.187471620089     0.114719143302     0.005066982457     1.007825032230
         H            2.433239379911    -0.924473856698     0.637556982457     1.007825032230

  Basis Set: AUG-CC-PVTZ
    Blend: AUG-CC-PVTZ
  Basis Set: (AUG-CC-PVTZ AUX)
    Blend: AUG-CC-PVTZ-JKFIT
	 Reference Energy          =    -268.0715611823901554 [Eh]
	 Singles Energy            =      -0.0000000000000000 [Eh]
	 Same-Spin Energy          =      -0.2580329582753509 [Eh]
	 Opposite-Spin Energy      =      -0.8568560496284164 [Eh]
	 Correlation Energy        =      -1.1148890079037674 [Eh]
	 Total Energy              =    -269.1864501902938969 [Eh]

	 ================> DF-SCS-MP2 Energies <==================
	-----------------------------------------------------------
	 SCS Same-Spin Scale       =       0.3333333333333333 [-]
	 SCS Opposite-Spin Scale   =       1.2000000000000000 [-]
	 SCS Same-Spin Energy      =      -0.0860109860917836 [Eh]
	 SCS Opposite-Spin Energy  =      -1.0282272595540998 [Eh]
	 SCS Correlation Energy    =      -1.1142382456458835 [Eh]
	 SCS Total Energy          =    -269.1857994280360344 [Eh]
	-----------------------------------------------------------

  Dipole Moment: [D]
     X:    -1.3553      Y:     1.3577      Z:     1.1039     Total:     2.2133

*** Psi4 exiting successfully. Buy a developer a beer!
