                               Psi4 1.3.2 release

  ==> Input File <==

--------------------------------------------------------------------------
#psi4
#
memory 32 gb

molecule  {
0 1
  O       -2.3650430    -0.4218480    -0.0057540
  O        2.4536110    -0.2813640    -0.0931210
  C        0.0022180    -0.3452320    -0.0325630
  C       -1.2919232     0.4430959     0.0125721
  C        1.2948972     0.4573847     0.0274970
  H       -0.0166520    -1.0502680     0.8082600
  H        0.0130480    -0.9372200    -0.9525790
  H       -1.2783560     1.1031170     0.9279430
  H       -1.2958190     1.1699640    -0.8466950
  H        1.2819000     1.0960400     0.9568030
  H        1.2985200     1.2029780    -0.8084410
  H       -3.1799330     0.1070520    -0.0035800
  H        2.4407780    -0.9321410     0.6289100
units angstrom
no_reorient  #important for SAPT in psi4, default
symmetry c1  #important for SAPT in psi4, default
}

set PROPERTIES_ORIGIN ["COM"]
properties('MP2/aug-cc-pvtz', properties = ['dipole'])
--------------------------------------------------------------------------

    Molecular point group: c1
  Charge       = 0
  Multiplicity = 1
  Basis Set: AUG-CC-PVTZ
    Blend: AUG-CC-PVTZ
  Basis Set: (AUG-CC-PVTZ AUX)
    Blend: AUG-CC-PVTZ-JKFIT

    Orbital Energies [Eh]
    ---------------------

    Doubly Occupied:

       1A    -20.569709     2A    -20.565468     3A    -11.286054
       4A    -11.280569     5A    -11.221584     6A     -1.382280
       7A     -1.377268     8A     -1.046798     9A     -0.903018
      10A     -0.815191    11A     -0.718717    12A     -0.690160
      13A     -0.650224    14A     -0.624745    15A     -0.599923
      16A     -0.570832    17A     -0.535223    18A     -0.483738
      19A     -0.474186    20A     -0.440124    21A     -0.439570

  @DF-RHF Final Energy:  -268.06956701943369

   => Energetics <=

    Nuclear Repulsion Energy =            185.6084957367551453
    One-Electron Energy =                -734.0053612855820120
    Two-Electron Energy =                 280.3272985293932038
    Total Energy =                       -268.0695670194336913
  Basis Set: (AUG-CC-PVTZ AUX)
    Blend: AUG-CC-PVTZ-RI
    Molecular point group: c1

    Geometry (in Angstrom), charge = 0, multiplicity = 1:

       Center              X                  Y                   Z               Mass
    ------------   -----------------  -----------------  -----------------  -----------------
         O           -2.374729269816    -0.384879524414     0.004439525124    15.994914619570
         O            2.443924730184    -0.244395524414    -0.082927474876    15.994914619570
         C           -0.007468269816    -0.308263524414    -0.022369474876    12.000000000000
         C           -1.301609469816     0.480064375586     0.022765625124    12.000000000000
         C            1.285210930184     0.494353175586     0.037690525124    12.000000000000
         H           -0.026338269816    -1.013299524414     0.818453525124     1.007825032230
         H            0.003361730184    -0.900251524414    -0.942385474876     1.007825032230
         H           -1.288042269816     1.140085475586     0.938136525124     1.007825032230
         H           -1.305505269816     1.206932475586    -0.836501474876     1.007825032230
         H            1.272213730184     1.133008475586     0.966996525124     1.007825032230
         H            1.288833730184     1.239946475586    -0.798247474876     1.007825032230
         H           -3.189619269816     0.144020475586     0.006613525124     1.007825032230
         H            2.431091730184    -0.895172524414     0.639103525124     1.007825032230

  Basis Set: AUG-CC-PVTZ
    Blend: AUG-CC-PVTZ
  Basis Set: (AUG-CC-PVTZ AUX)
    Blend: AUG-CC-PVTZ-JKFIT
	 Reference Energy          =    -268.0695670194336913 [Eh]
	 Singles Energy            =      -0.0000000000000000 [Eh]
	 Same-Spin Energy          =      -0.2584168582708861 [Eh]
	 Opposite-Spin Energy      =      -0.8570192979676997 [Eh]
	 Correlation Energy        =      -1.1154361562385859 [Eh]
	 Total Energy              =    -269.1850031756722501 [Eh]

	 ================> DF-SCS-MP2 Energies <==================
	-----------------------------------------------------------
	 SCS Same-Spin Scale       =       0.3333333333333333 [-]
	 SCS Opposite-Spin Scale   =       1.2000000000000000 [-]
	 SCS Same-Spin Energy      =      -0.0861389527569620 [Eh]
	 SCS Opposite-Spin Energy  =      -1.0284231575612397 [Eh]
	 SCS Correlation Energy    =      -1.1145621103182017 [Eh]
	 SCS Total Energy          =    -269.1841291297519092 [Eh]
	-----------------------------------------------------------

  Dipole Moment: [D]
     X:    -1.4178      Y:     1.1468      Z:     1.0877     Total:     2.1233

*** Psi4 exiting successfully. Buy a developer a beer!
