                               Psi4 1.4a3.dev225

  ==> Input File <==

--------------------------------------------------------------------------
#psi4
#
memory 32 gb

molecule  {
0 1
  O       -2.3655480    -0.4216410    -0.0057250
  O        2.4519660    -0.2843820    -0.0939020
  C        0.0026340    -0.3450150    -0.0348160
  C       -1.2798013     0.4744478     0.0154265
  C        1.2666380     0.5015080     0.0285970
  H       -0.0165330    -1.0499780     0.8053450
  H        0.0111760    -0.9353620    -0.9555930
  H       -1.2780140     1.1021720     0.9283990
  H       -1.2984520     1.1712490    -0.8452820
  H        1.2830030     1.0964650     0.9545460
  H        1.3014000     1.2020440    -0.8103600
  H       -3.1819840     0.1048880     0.0090270
  H        2.4586940    -0.9053110     0.6538860
units angstrom
no_reorient  #important for SAPT in psi4, default
symmetry c1  #important for SAPT in psi4, default
}

set PROPERTIES_ORIGIN ["COM"]
properties('MP2/aug-cc-pvtz', properties = ['dipole'])
--------------------------------------------------------------------------

    Molecular point group: c1
  Charge       = 0
  Multiplicity = 1
  Basis Set: AUG-CC-PVTZ
    Blend: AUG-CC-PVTZ
  Basis Set: (AUG-CC-PVTZ AUX)
    Blend: AUG-CC-PVTZ-JKFIT

    Orbital Energies [Eh]
    ---------------------

    Doubly Occupied:

       1A    -20.566883     2A    -20.559470     3A    -11.284019
       4A    -11.278383     5A    -11.222931     6A     -1.369441
       7A     -1.356038     8A     -1.048996     9A     -0.905441
      10A     -0.817440    11A     -0.709190    12A     -0.687962
      13A     -0.648575    14A     -0.613393    15A     -0.591368
      16A     -0.562892    17A     -0.531468    18A     -0.490597
      19A     -0.480693    20A     -0.448170    21A     -0.444175

  @DF-RHF Final Energy:  -268.07437814175847

   => Energetics <=

    Nuclear Repulsion Energy =            184.8857135681968487
    One-Electron Energy =                -732.6851343831336862
    Two-Electron Energy =                 279.7250426731783932
    Total Energy =                       -268.0743781417584728
  Basis Set: (AUG-CC-PVTZ AUX)
    Blend: AUG-CC-PVTZ-RI
    Molecular point group: c1

    Geometry (in Angstrom), charge = 0, multiplicity = 1:

       Center              X                  Y                   Z               Mass
    ------------   -----------------  -----------------  -----------------  -----------------
         O           -2.372510924868    -0.396377583659     0.003969326535    15.994914619570
         O            2.445003075132    -0.259118583659    -0.084207673465    15.994914619570
         C           -0.004328924868    -0.319751583659    -0.025121673465    12.000000000000
         C           -1.286764224868     0.499711216341     0.025120826535    12.000000000000
         C            1.259675075132     0.526771416341     0.038291326535    12.000000000000
         H           -0.023495924868    -1.024714583659     0.815039326535     1.007825032230
         H            0.004213075132    -0.910098583659    -0.945898673465     1.007825032230
         H           -1.284976924868     1.127435416341     0.938093326535     1.007825032230
         H           -1.305414924868     1.196512416341    -0.835587673465     1.007825032230
         H            1.276040075132     1.121728416341     0.964240326535     1.007825032230
         H            1.294437075132     1.227307416341    -0.800665673465     1.007825032230
         H           -3.188946924868     0.130151416341     0.018721326535     1.007825032230
         H            2.451731075132    -0.880047583659     0.663580326535     1.007825032230

  Basis Set: AUG-CC-PVTZ
    Blend: AUG-CC-PVTZ
  Basis Set: (AUG-CC-PVTZ AUX)
    Blend: AUG-CC-PVTZ-JKFIT
	 Reference Energy          =    -268.0743781417584728 [Eh]
	 Singles Energy            =      -0.0000000000000000 [Eh]
	 Same-Spin Energy          =      -0.2582675116479615 [Eh]
	 Opposite-Spin Energy      =      -0.8578053328846267 [Eh]
	 Correlation Energy        =      -1.1160728445325883 [Eh]
	 Total Energy              =    -269.1904509862910686 [Eh]

	 ================> DF-SCS-MP2 Energies <==================
	-----------------------------------------------------------
	 SCS Same-Spin Scale       =       0.3333333333333333 [-]
	 SCS Opposite-Spin Scale   =       1.2000000000000000 [-]
	 SCS Same-Spin Energy      =      -0.0860891705493205 [Eh]
	 SCS Opposite-Spin Energy  =      -1.0293663994615521 [Eh]
	 SCS Correlation Energy    =      -1.1154555700108726 [Eh]
	 SCS Total Energy          =    -269.1898337117693245 [Eh]
	-----------------------------------------------------------

  Dipole Moment: [D]
     X:    -1.4474      Y:     1.3943      Z:     1.1685     Total:     2.3247

*** Psi4 exiting successfully. Buy a developer a beer!
