                               Psi4 1.3.2 release

  ==> Input File <==

--------------------------------------------------------------------------
#psi4
#
memory 32 gb

molecule  {
0 1
  O       -2.3650430    -0.4218480    -0.0057540
  O        2.4536110    -0.2813640    -0.0931210
  C        0.0022180    -0.3452320    -0.0325630
  C       -1.2708110     0.4766218     0.0149031
  C        1.2733866     0.4908823     0.0295958
  H       -0.0166520    -1.0502680     0.8082600
  H        0.0130480    -0.9372200    -0.9525790
  H       -1.2783560     1.1031170     0.9279430
  H       -1.2958190     1.1699640    -0.8466950
  H        1.2819000     1.0960400     0.9568030
  H        1.2985200     1.2029780    -0.8084410
  H       -3.1799330     0.1070520    -0.0035800
  H        2.4407780    -0.9321410     0.6289100
units angstrom
no_reorient  #important for SAPT in psi4, default
symmetry c1  #important for SAPT in psi4, default
}

set PROPERTIES_ORIGIN ["COM"]
properties('MP2/aug-cc-pvtz', properties = ['dipole'])
--------------------------------------------------------------------------

    Molecular point group: c1
  Charge       = 0
  Multiplicity = 1
  Basis Set: AUG-CC-PVTZ
    Blend: AUG-CC-PVTZ
  Basis Set: (AUG-CC-PVTZ AUX)
    Blend: AUG-CC-PVTZ-JKFIT

    Orbital Energies [Eh]
    ---------------------

    Doubly Occupied:

       1A    -20.566159     2A    -20.561033     3A    -11.284275
       4A    -11.278988     5A    -11.223161     6A     -1.366457
       7A     -1.360932     8A     -1.050166     9A     -0.905176
      10A     -0.817931    11A     -0.708718    12A     -0.687203
      13A     -0.648776    14A     -0.615094    15A     -0.593678
      16A     -0.562259    17A     -0.531161    18A     -0.491632
      19A     -0.480173    20A     -0.448777    21A     -0.443418

  @DF-RHF Final Energy:  -268.07436289214286

   => Energetics <=

    Nuclear Repulsion Energy =            184.9919971815450594
    One-Electron Energy =                -732.8823933468801215
    Two-Electron Energy =                 279.8160332731921471
    Total Energy =                       -268.0743628921428581
  Basis Set: (AUG-CC-PVTZ AUX)
    Blend: AUG-CC-PVTZ-RI
    Molecular point group: c1

    Geometry (in Angstrom), charge = 0, multiplicity = 1:

       Center              X                  Y                   Z               Mass
    ------------   -----------------  -----------------  -----------------  -----------------
         O           -2.374666407918    -0.395454886770     0.003740565204    15.994914619570
         O            2.443987592082    -0.254970886770    -0.083626434796    15.994914619570
         C           -0.007405407918    -0.318838886770    -0.023068434796    12.000000000000
         C           -1.280434407918     0.503014913230     0.024397665204    12.000000000000
         C            1.263763192082     0.517275413230     0.039090365204    12.000000000000
         H           -0.026275407918    -1.023874886770     0.817754565204     1.007825032230
         H            0.003424592082    -0.910826886770    -0.943084434796     1.007825032230
         H           -1.287979407918     1.129510113230     0.937437565204     1.007825032230
         H           -1.305442407918     1.196357113230    -0.837200434796     1.007825032230
         H            1.272276592082     1.122433113230     0.966297565204     1.007825032230
         H            1.288896592082     1.229371113230    -0.798946434796     1.007825032230
         H           -3.189556407918     0.133445113230     0.005914565204     1.007825032230
         H            2.431154592082    -0.905747886770     0.638404565204     1.007825032230

  Basis Set: AUG-CC-PVTZ
    Blend: AUG-CC-PVTZ
  Basis Set: (AUG-CC-PVTZ AUX)
    Blend: AUG-CC-PVTZ-JKFIT
	 Reference Energy          =    -268.0743628921428581 [Eh]
	 Singles Energy            =      -0.0000000000000000 [Eh]
	 Same-Spin Energy          =      -0.2583234193949328 [Eh]
	 Opposite-Spin Energy      =      -0.8578172925692075 [Eh]
	 Correlation Energy        =      -1.1161407119641402 [Eh]
	 Total Energy              =    -269.1905036041069934 [Eh]

	 ================> DF-SCS-MP2 Energies <==================
	-----------------------------------------------------------
	 SCS Same-Spin Scale       =       0.3333333333333333 [-]
	 SCS Opposite-Spin Scale   =       1.2000000000000000 [-]
	 SCS Same-Spin Energy      =      -0.0861078064649776 [Eh]
	 SCS Opposite-Spin Energy  =      -1.0293807510830488 [Eh]
	 SCS Correlation Energy    =      -1.1154885575480264 [Eh]
	 SCS Total Energy          =    -269.1898514496908774 [Eh]
	-----------------------------------------------------------

  Dipole Moment: [D]
     X:    -1.4165      Y:     1.3377      Z:     1.1063     Total:     2.2405

*** Psi4 exiting successfully. Buy a developer a beer!
