                               Psi4 1.3.2 release

  ==> Input File <==

--------------------------------------------------------------------------
#psi4
#
memory 32 gb

molecule  {
0 1
  O       -2.3650430    -0.4218480    -0.0057540
  O        2.4536110    -0.2813640    -0.0931210
  C        0.0022180    -0.3452320    -0.0325630
  C       -1.2959987     0.5255595     0.0160122
  C        1.2660220     0.5019220     0.0302860
  H       -0.0166520    -1.0502680     0.8082600
  H        0.0130480    -0.9372200    -0.9525790
  H       -1.2783560     1.1031170     0.9279430
  H       -1.2958190     1.1699640    -0.8466950
  H        1.2819000     1.0960400     0.9568030
  H        1.2985200     1.2029780    -0.8084410
  H       -3.1609796     0.1351646    -0.0030244
  H        2.4407780    -0.9321410     0.6289100
units angstrom
no_reorient  #important for SAPT in psi4, default
symmetry c1  #important for SAPT in psi4, default
}

set PROPERTIES_ORIGIN ["COM"]
properties('MP2/aug-cc-pvtz', properties = ['dipole'])
--------------------------------------------------------------------------

    Molecular point group: c1
  Charge       = 0
  Multiplicity = 1
  Basis Set: AUG-CC-PVTZ
    Blend: AUG-CC-PVTZ
  Basis Set: (AUG-CC-PVTZ AUX)
    Blend: AUG-CC-PVTZ-JKFIT

    Orbital Energies [Eh]
    ---------------------

    Doubly Occupied:

       1A    -20.567404     2A    -20.558480     3A    -11.282219
       4A    -11.277096     5A    -11.224686     6A     -1.364191
       7A     -1.354856     8A     -1.043200     9A     -0.905576
      10A     -0.820809    11A     -0.703377    12A     -0.686126
      13A     -0.651656    14A     -0.610265    15A     -0.589697
      16A     -0.562890    17A     -0.530120    18A     -0.490992
      19A     -0.476400    20A     -0.459552    21A     -0.440920

  @DF-RHF Final Energy:  -268.07117323869795

   => Energetics <=

    Nuclear Repulsion Energy =            184.3367586991840597
    One-Electron Energy =                -731.6148407756285224
    Two-Electron Energy =                 279.2069088377464823
    Total Energy =                       -268.0711732386979520
  Basis Set: (AUG-CC-PVTZ AUX)
    Blend: AUG-CC-PVTZ-RI
    Molecular point group: c1

    Geometry (in Angstrom), charge = 0, multiplicity = 1:

       Center              X                  Y                   Z               Mass
    ------------   -----------------  -----------------  -----------------  -----------------
         O           -2.369781279442    -0.405291014123     0.003449298406    15.994914619570
         O            2.448872720558    -0.264807014123    -0.083917701594    15.994914619570
         C           -0.002520279442    -0.328675014123    -0.023359701594    12.000000000000
         C           -1.300736979442     0.542116485877     0.025215498406    12.000000000000
         C            1.261283720558     0.518478985877     0.039489298406    12.000000000000
         H           -0.021390279442    -1.033711014123     0.817463298406     1.007825032230
         H            0.008309720558    -0.920663014123    -0.943375701594     1.007825032230
         H           -1.283094279442     1.119673985877     0.937146298406     1.007825032230
         H           -1.300557279442     1.186520985877    -0.837491701594     1.007825032230
         H            1.277161720558     1.112596985877     0.966006298406     1.007825032230
         H            1.293781720558     1.219534985877    -0.799237701594     1.007825032230
         H           -3.165717879442     0.151721585877     0.006178898406     1.007825032230
         H            2.436039720558    -0.915584014123     0.638113298406     1.007825032230

  Basis Set: AUG-CC-PVTZ
    Blend: AUG-CC-PVTZ
  Basis Set: (AUG-CC-PVTZ AUX)
    Blend: AUG-CC-PVTZ-JKFIT
	 Reference Energy          =    -268.0711732386979520 [Eh]
	 Singles Energy            =      -0.0000000000000000 [Eh]
	 Same-Spin Energy          =      -0.2583216989763347 [Eh]
	 Opposite-Spin Energy      =      -0.8585475431667197 [Eh]
	 Correlation Energy        =      -1.1168692421430544 [Eh]
	 Total Energy              =    -269.1880424808410339 [Eh]

	 ================> DF-SCS-MP2 Energies <==================
	-----------------------------------------------------------
	 SCS Same-Spin Scale       =       0.3333333333333333 [-]
	 SCS Opposite-Spin Scale   =       1.2000000000000000 [-]
	 SCS Same-Spin Energy      =      -0.0861072329921116 [Eh]
	 SCS Opposite-Spin Energy  =      -1.0302570518000636 [Eh]
	 SCS Correlation Energy    =      -1.1163642847921751 [Eh]
	 SCS Total Energy          =    -269.1875375234901071 [Eh]
	-----------------------------------------------------------

  Dipole Moment: [D]
     X:    -1.4605      Y:     1.4614      Z:     1.1114     Total:     2.3460

*** Psi4 exiting successfully. Buy a developer a beer!
