                               Psi4 1.4a3.dev225

  ==> Input File <==

--------------------------------------------------------------------------
#psi4
#
memory 32 gb

molecule  {
0 1
  O       -2.3655480    -0.4216410    -0.0057250
  O        2.4519660    -0.2843820    -0.0939020
  C        0.0026340    -0.3450150    -0.0348160
  C       -1.2643780     0.4871770     0.0157270
  C        1.2666380     0.5015080     0.0285970
  H       -0.0165330    -1.0499780     0.8053450
  H        0.0111760    -0.9353620    -0.9555930
  H       -1.2780140     1.1021720     0.9283990
  H       -1.2984520     1.1712490    -0.8452820
  H        1.2830030     1.0964650     0.9545460
  H        1.3014000     1.2020440    -0.8103600
  H       -3.1399692     0.0777922     0.0082678
  H        2.4586940    -0.9053110     0.6538860
units angstrom
no_reorient  #important for SAPT in psi4, default
symmetry c1  #important for SAPT in psi4, default
}

set PROPERTIES_ORIGIN ["COM"]
properties('MP2/aug-cc-pvtz', properties = ['dipole'])
--------------------------------------------------------------------------

    Molecular point group: c1
  Charge       = 0
  Multiplicity = 1
  Basis Set: AUG-CC-PVTZ
    Blend: AUG-CC-PVTZ
  Basis Set: (AUG-CC-PVTZ AUX)
    Blend: AUG-CC-PVTZ-JKFIT

    Orbital Energies [Eh]
    ---------------------

    Doubly Occupied:

       1A    -20.559967     2A    -20.559755     3A    -11.284174
       4A    -11.278766     5A    -11.223550     6A     -1.373114
       7A     -1.356426     8A     -1.052884     9A     -0.908920
      10A     -0.819286    11A     -0.713402    12A     -0.689688
      13A     -0.649712    14A     -0.612988    15A     -0.591244
      16A     -0.561379    17A     -0.531081    18A     -0.495216
      19A     -0.482223    20A     -0.452165    21A     -0.444678

  @DF-RHF Final Energy:  -268.07511511491231

   => Energetics <=

    Nuclear Repulsion Energy =            185.0940304552291309
    One-Electron Energy =                -733.0570538249234005
    Two-Electron Energy =                 279.8879082547819621
    Total Energy =                       -268.0751151149123075
  Basis Set: (AUG-CC-PVTZ AUX)
    Blend: AUG-CC-PVTZ-RI
    Molecular point group: c1

    Geometry (in Angstrom), charge = 0, multiplicity = 1:

       Center              X                  Y                   Z               Mass
    ------------   -----------------  -----------------  -----------------  -----------------
         O           -2.375501272036    -0.398027005976     0.003931972578    15.994914619570
         O            2.442012727964    -0.260768005976    -0.084245027422    15.994914619570
         C           -0.007319272036    -0.321401005976    -0.025159027422    12.000000000000
         C           -1.274331272036     0.510790994024     0.025383972578    12.000000000000
         C            1.256684727964     0.525121994024     0.038253972578    12.000000000000
         H           -0.026486272036    -1.026364005976     0.815001972578     1.007825032230
         H            0.001222727964    -0.911748005976    -0.945936027422     1.007825032230
         H           -1.287967272036     1.125785994024     0.938055972578     1.007825032230
         H           -1.308405272036     1.194862994024    -0.835625027422     1.007825032230
         H            1.273049727964     1.120078994024     0.964202972578     1.007825032230
         H            1.291446727964     1.225657994024    -0.800703027422     1.007825032230
         H           -3.149922472036     0.101406194024     0.017924772578     1.007825032230
         H            2.448740727964    -0.881697005976     0.663542972578     1.007825032230

  Basis Set: AUG-CC-PVTZ
    Blend: AUG-CC-PVTZ
  Basis Set: (AUG-CC-PVTZ AUX)
    Blend: AUG-CC-PVTZ-JKFIT
	 Reference Energy          =    -268.0751151149123075 [Eh]
	 Singles Energy            =      -0.0000000000000000 [Eh]
	 Same-Spin Energy          =      -0.2577448482010527 [Eh]
	 Opposite-Spin Energy      =      -0.8566110393320059 [Eh]
	 Correlation Energy        =      -1.1143558875330586 [Eh]
	 Total Energy              =    -269.1894710024453730 [Eh]

	 ================> DF-SCS-MP2 Energies <==================
	-----------------------------------------------------------
	 SCS Same-Spin Scale       =       0.3333333333333333 [-]
	 SCS Opposite-Spin Scale   =       1.2000000000000000 [-]
	 SCS Same-Spin Energy      =      -0.0859149494003509 [Eh]
	 SCS Opposite-Spin Energy  =      -1.0279332471984071 [Eh]
	 SCS Correlation Energy    =      -1.1138481965987579 [Eh]
	 SCS Total Energy          =    -269.1889633115110882 [Eh]
	-----------------------------------------------------------

  Dipole Moment: [D]
     X:    -1.3397      Y:     1.4226      Z:     1.1694     Total:     2.2773

*** Psi4 exiting successfully. Buy a developer a beer!
