                               Psi4 1.3.2 release

  ==> Input File <==

--------------------------------------------------------------------------
#psi4
#
memory 32 gb

molecule  {
0 1
  O       -2.3489117    -0.4389810    -0.0497173
  O        2.4536110    -0.2813640    -0.0931210
  C        0.0022180    -0.3452320    -0.0325630
  C       -1.2635790     0.4876730     0.0156730
  C        1.2660220     0.5019220     0.0302860
  H       -0.0166520    -1.0502680     0.8082600
  H        0.0130480    -0.9372200    -0.9525790
  H       -1.2464323     1.1206941     0.9157933
  H       -1.2958190     1.1699640    -0.8466950
  H        1.2819000     1.0960400     0.9568030
  H        1.2985200     1.2029780    -0.8084410
  H       -3.1799330     0.1070520    -0.0035800
  H        2.4407780    -0.9321410     0.6289100
units angstrom
no_reorient  #important for SAPT in psi4, default
symmetry c1  #important for SAPT in psi4, default
}

set PROPERTIES_ORIGIN ["COM"]
properties('MP2/aug-cc-pvtz', properties = ['dipole'])
--------------------------------------------------------------------------

    Molecular point group: c1
  Charge       = 0
  Multiplicity = 1
  Basis Set: AUG-CC-PVTZ
    Blend: AUG-CC-PVTZ
  Basis Set: (AUG-CC-PVTZ AUX)
    Blend: AUG-CC-PVTZ-JKFIT

    Orbital Energies [Eh]
    ---------------------

    Doubly Occupied:

       1A    -20.569340     2A    -20.559109     3A    -11.283579
       4A    -11.278030     5A    -11.222740     6A     -1.358610
       7A     -1.355047     8A     -1.050449     9A     -0.904527
      10A     -0.818769    11A     -0.704298    12A     -0.682866
      13A     -0.648374    14A     -0.612313    15A     -0.588541
      16A     -0.560604    17A     -0.529158    18A     -0.495216
      19A     -0.480393    20A     -0.451645    21A     -0.443344

  @DF-RHF Final Energy:  -268.07120846567739

   => Energetics <=

    Nuclear Repulsion Energy =            184.8344446456415824
    One-Electron Energy =                -732.6174037655171105
    Two-Electron Energy =                 279.7117506541981129
    Total Energy =                       -268.0712084656773868
  Basis Set: (AUG-CC-PVTZ AUX)
    Blend: AUG-CC-PVTZ-RI
    Molecular point group: c1

    Geometry (in Angstrom), charge = 0, multiplicity = 1:

       Center              X                  Y                   Z               Mass
    ------------   -----------------  -----------------  -----------------  -----------------
         O           -2.362329872558    -0.412703130547    -0.031046002293    15.994914619570
         O            2.440192827442    -0.255086130547    -0.074449702293    15.994914619570
         C           -0.011200172558    -0.318954130547    -0.013891702293    12.000000000000
         C           -1.276997172558     0.513950869453     0.034344297707    12.000000000000
         C            1.252603827442     0.528199869453     0.048957297707    12.000000000000
         H           -0.030070172558    -1.023990130547     0.826931297707     1.007825032230
         H           -0.000370172558    -0.910942130547    -0.933907702293     1.007825032230
         H           -1.259850472558     1.146971969453     0.934464597707     1.007825032230
         H           -1.309237172558     1.196241869453    -0.828023702293     1.007825032230
         H            1.268481827442     1.122317869453     0.975474297707     1.007825032230
         H            1.285101827442     1.229255869453    -0.789769702293     1.007825032230
         H           -3.193351172558     0.133329869453     0.015091297707     1.007825032230
         H            2.427359827442    -0.905863130547     0.647581297707     1.007825032230

  Basis Set: AUG-CC-PVTZ
    Blend: AUG-CC-PVTZ
  Basis Set: (AUG-CC-PVTZ AUX)
    Blend: AUG-CC-PVTZ-JKFIT
	 Reference Energy          =    -268.0712084656773868 [Eh]
	 Singles Energy            =      -0.0000000000000000 [Eh]
	 Same-Spin Energy          =      -0.2587742068362388 [Eh]
	 Opposite-Spin Energy      =      -0.8592049079392040 [Eh]
	 Correlation Energy        =      -1.1179791147754428 [Eh]
	 Total Energy              =    -269.1891875804528240 [Eh]

	 ================> DF-SCS-MP2 Energies <==================
	-----------------------------------------------------------
	 SCS Same-Spin Scale       =       0.3333333333333333 [-]
	 SCS Opposite-Spin Scale   =       1.2000000000000000 [-]
	 SCS Same-Spin Energy      =      -0.0862580689454129 [Eh]
	 SCS Opposite-Spin Energy  =      -1.0310458895270447 [Eh]
	 SCS Correlation Energy    =      -1.1173039584724576 [Eh]
	 SCS Total Energy          =    -269.1885124241498488 [Eh]
	-----------------------------------------------------------

  Dipole Moment: [D]
     X:    -1.4645      Y:     1.4116      Z:     1.2108     Total:     2.3672

*** Psi4 exiting successfully. Buy a developer a beer!
