                               Psi4 1.3.2 release

  ==> Input File <==

--------------------------------------------------------------------------
#psi4
#
memory 32 gb

molecule  {
0 1
  O       -2.3490006    -0.4409120    -0.0066954
  O        2.4536110    -0.2813640    -0.0931210
  C       -0.0125315    -0.3671886    -0.0332292
  C       -1.2635790     0.4876730     0.0156730
  C        1.2660220     0.5019220     0.0302860
  H       -0.0166520    -1.0502680     0.8082600
  H        0.0130480    -0.9372200    -0.9525790
  H       -1.2783560     1.1031170     0.9279430
  H       -1.2958190     1.1699640    -0.8466950
  H        1.2819000     1.0960400     0.9568030
  H        1.2985200     1.2029780    -0.8084410
  H       -3.1799330     0.1070520    -0.0035800
  H        2.4407780    -0.9321410     0.6289100
units angstrom
no_reorient  #important for SAPT in psi4, default
symmetry c1  #important for SAPT in psi4, default
}

set PROPERTIES_ORIGIN ["COM"]
properties('MP2/aug-cc-pvtz', properties = ['dipole'])
--------------------------------------------------------------------------

    Molecular point group: c1
  Charge       = 0
  Multiplicity = 1
  Basis Set: AUG-CC-PVTZ
    Blend: AUG-CC-PVTZ
  Basis Set: (AUG-CC-PVTZ AUX)
    Blend: AUG-CC-PVTZ-JKFIT

    Orbital Energies [Eh]
    ---------------------

    Doubly Occupied:

       1A    -20.567311     2A    -20.558711     3A    -11.283123
       4A    -11.278683     5A    -11.221854     6A     -1.357814
       7A     -1.354382     8A     -1.047201     9A     -0.902169
      10A     -0.821018    11A     -0.701719    12A     -0.684428
      13A     -0.648486    14A     -0.609841    15A     -0.587701
      16A     -0.559930    17A     -0.530792    18A     -0.496952
      19A     -0.481422    20A     -0.452321    21A     -0.439740

  @DF-RHF Final Energy:  -268.07129630394979

   => Energetics <=

    Nuclear Repulsion Energy =            184.6587838023338293
    One-Electron Energy =                -732.2889648720217792
    Two-Electron Energy =                 279.5588847657381848
    Total Energy =                       -268.0712963039497936
  Basis Set: (AUG-CC-PVTZ AUX)
    Blend: AUG-CC-PVTZ-RI
    Molecular point group: c1

    Geometry (in Angstrom), charge = 0, multiplicity = 1:

       Center              X                  Y                   Z               Mass
    ------------   -----------------  -----------------  -----------------  -----------------
         O           -2.359649768947    -0.410530645312     0.002871888885    15.994914619570
         O            2.442961831053    -0.250982645312    -0.083553711115    15.994914619570
         C           -0.023180668947    -0.336807245312    -0.023661911115    12.000000000000
         C           -1.274228168947     0.518054354688     0.025240288885    12.000000000000
         C            1.255372831053     0.532303354688     0.039853288885    12.000000000000
         H           -0.027301168947    -1.019886645312     0.817827288885     1.007825032230
         H            0.002398831053    -0.906838645312    -0.943011711115     1.007825032230
         H           -1.289005168947     1.133498354688     0.937510288885     1.007825032230
         H           -1.306468168947     1.200345354688    -0.837127711115     1.007825032230
         H            1.271250831053     1.126421354688     0.966370288885     1.007825032230
         H            1.287870831053     1.233359354688    -0.798873711115     1.007825032230
         H           -3.190582168947     0.137433354688     0.005987288885     1.007825032230
         H            2.430128831053    -0.901759645312     0.638477288885     1.007825032230

  Basis Set: AUG-CC-PVTZ
    Blend: AUG-CC-PVTZ
  Basis Set: (AUG-CC-PVTZ AUX)
    Blend: AUG-CC-PVTZ-JKFIT
	 Reference Energy          =    -268.0712963039497936 [Eh]
	 Singles Energy            =      -0.0000000000000000 [Eh]
	 Same-Spin Energy          =      -0.2586026175270208 [Eh]
	 Opposite-Spin Energy      =      -0.8590880071379747 [Eh]
	 Correlation Energy        =      -1.1176906246649956 [Eh]
	 Total Energy              =    -269.1889869286147814 [Eh]

	 ================> DF-SCS-MP2 Energies <==================
	-----------------------------------------------------------
	 SCS Same-Spin Scale       =       0.3333333333333333 [-]
	 SCS Opposite-Spin Scale   =       1.2000000000000000 [-]
	 SCS Same-Spin Energy      =      -0.0862008725090069 [Eh]
	 SCS Opposite-Spin Energy  =      -1.0309056085655697 [Eh]
	 SCS Correlation Energy    =      -1.1171064810745766 [Eh]
	 SCS Total Energy          =    -269.1884027850243797 [Eh]
	-----------------------------------------------------------

  Dipole Moment: [D]
     X:    -1.4449      Y:     1.4161      Z:     1.1150     Total:     2.3100

*** Psi4 exiting successfully. Buy a developer a beer!
