                               Psi4 1.3.2 release

  ==> Input File <==

--------------------------------------------------------------------------
#psi4
#
memory 32 gb

molecule  {
0 1
  O       -2.3650430    -0.4218480    -0.0057540
  O        2.4536110    -0.2813640    -0.0931210
  C        0.0022180    -0.3452320    -0.0325630
  C       -1.3406797     0.4240080     0.0141731
  C        1.2660220     0.5019220     0.0302860
  H       -0.0166520    -1.0502680     0.8082600
  H        0.0130480    -0.9372200    -0.9525790
  H       -1.2783560     1.1031170     0.9279430
  H       -1.2958190     1.1699640    -0.8466950
  H        1.2819000     1.0960400     0.9568030
  H        1.2985200     1.2029780    -0.8084410
  H       -3.1799330     0.1070520    -0.0035800
  H        2.4407780    -0.9321410     0.6289100
units angstrom
no_reorient  #important for SAPT in psi4, default
symmetry c1  #important for SAPT in psi4, default
}

set PROPERTIES_ORIGIN ["COM"]
properties('MP2/aug-cc-pvtz', properties = ['dipole'])
--------------------------------------------------------------------------

    Molecular point group: c1
  Charge       = 0
  Multiplicity = 1
  Basis Set: AUG-CC-PVTZ
    Blend: AUG-CC-PVTZ
  Basis Set: (AUG-CC-PVTZ AUX)
    Blend: AUG-CC-PVTZ-JKFIT

    Orbital Energies [Eh]
    ---------------------

    Doubly Occupied:

       1A    -20.575894     2A    -20.558860     3A    -11.287765
       4A    -11.277496     5A    -11.222274     6A     -1.407046
       7A     -1.354992     8A     -1.041430     9A     -0.903817
      10A     -0.814086    11A     -0.728482    12A     -0.688218
      13A     -0.650149    14A     -0.623326    15A     -0.598634
      16A     -0.571918    17A     -0.533937    18A     -0.485071
      19A     -0.469495    20A     -0.443176    21A     -0.434323

  @DF-RHF Final Energy:  -268.06532464742543

   => Energetics <=

    Nuclear Repulsion Energy =            185.3283267719986611
    One-Electron Energy =                -733.4465251345498018
    Two-Electron Energy =                 280.0528737151256564
    Total Energy =                       -268.0653246474254274
  Basis Set: (AUG-CC-PVTZ AUX)
    Blend: AUG-CC-PVTZ-RI
    Molecular point group: c1

    Geometry (in Angstrom), charge = 0, multiplicity = 1:

       Center              X                  Y                   Z               Mass
    ------------   -----------------  -----------------  -----------------  -----------------
         O           -2.362480083219    -0.388895080551     0.003746845082    15.994914619570
         O            2.456173916781    -0.248411080551    -0.083620154918    15.994914619570
         C            0.004780916781    -0.312279080551    -0.023062154918    12.000000000000
         C           -1.338116783219     0.456960919449     0.023673945082    12.000000000000
         C            1.268584916781     0.534874919449     0.039786845082    12.000000000000
         H           -0.014089083219    -1.017315080551     0.817760845082     1.007825032230
         H            0.015610916781    -0.904267080551    -0.943078154918     1.007825032230
         H           -1.275793083219     1.136069919449     0.937443845082     1.007825032230
         H           -1.293256083219     1.202916919449    -0.837194154918     1.007825032230
         H            1.284462916781     1.128992919449     0.966303845082     1.007825032230
         H            1.301082916781     1.235930919449    -0.798940154918     1.007825032230
         H           -3.177370083219     0.140004919449     0.005920845082     1.007825032230
         H            2.443340916781    -0.899188080551     0.638410845082     1.007825032230

  Basis Set: AUG-CC-PVTZ
    Blend: AUG-CC-PVTZ
  Basis Set: (AUG-CC-PVTZ AUX)
    Blend: AUG-CC-PVTZ-JKFIT
	 Reference Energy          =    -268.0653246474254274 [Eh]
	 Singles Energy            =      -0.0000000000000000 [Eh]
	 Same-Spin Energy          =      -0.2583433615018347 [Eh]
	 Opposite-Spin Energy      =      -0.8570578642936018 [Eh]
	 Correlation Energy        =      -1.1154012257954364 [Eh]
	 Total Energy              =    -269.1807258732208652 [Eh]

	 ================> DF-SCS-MP2 Energies <==================
	-----------------------------------------------------------
	 SCS Same-Spin Scale       =       0.3333333333333333 [-]
	 SCS Opposite-Spin Scale   =       1.2000000000000000 [-]
	 SCS Same-Spin Energy      =      -0.0861144538339449 [Eh]
	 SCS Opposite-Spin Energy  =      -1.0284694371523220 [Eh]
	 SCS Correlation Energy    =      -1.1145838909862669 [Eh]
	 SCS Total Energy          =    -269.1799085384116665 [Eh]
	-----------------------------------------------------------

  Dipole Moment: [D]
     X:    -1.7767      Y:     1.1606      Z:     1.1031     Total:     2.3918

*** Psi4 exiting successfully. Buy a developer a beer!
