                               Psi4 1.3.2 release

  ==> Input File <==

--------------------------------------------------------------------------
#psi4
#
memory 32 gb

molecule  {
0 1
  O       -2.3688669    -0.4173908     0.0052430
  O        2.4536110    -0.2813640    -0.0931210
  C        0.0022180    -0.3452320    -0.0325630
  C       -1.2635790     0.4876730     0.0156730
  C        1.2660220     0.5019220     0.0302860
  H       -0.0166520    -1.0502680     0.8082600
  H        0.0130480    -0.9372200    -0.9525790
  H       -1.2863356     1.0986047     0.9308073
  H       -1.2958190     1.1699640    -0.8466950
  H        1.2819000     1.0960400     0.9568030
  H        1.2985200     1.2029780    -0.8084410
  H       -3.1799330     0.1070520    -0.0035800
  H        2.4407780    -0.9321410     0.6289100
units angstrom
no_reorient  #important for SAPT in psi4, default
symmetry c1  #important for SAPT in psi4, default
}

set PROPERTIES_ORIGIN ["COM"]
properties('MP2/aug-cc-pvtz', properties = ['dipole'])
--------------------------------------------------------------------------

    Molecular point group: c1
  Charge       = 0
  Multiplicity = 1
  Basis Set: AUG-CC-PVTZ
    Blend: AUG-CC-PVTZ
  Basis Set: (AUG-CC-PVTZ AUX)
    Blend: AUG-CC-PVTZ-JKFIT

    Orbital Energies [Eh]
    ---------------------

    Doubly Occupied:

       1A    -20.563932     2A    -20.559687     3A    -11.283925
       4A    -11.278789     5A    -11.224049     6A     -1.362251
       7A     -1.355933     8A     -1.051649     9A     -0.906405
      10A     -0.819184    11A     -0.705903    12A     -0.687316
      13A     -0.648346    14A     -0.612254    15A     -0.592652
      16A     -0.559462    17A     -0.529820    18A     -0.494010
      19A     -0.482169    20A     -0.451128    21A     -0.444369

  @DF-RHF Final Energy:  -268.07483645944558

   => Energetics <=

    Nuclear Repulsion Energy =            184.7881497942806561
    One-Electron Energy =                -732.4995036136733688
    Two-Electron Energy =                 279.6365173599471063
    Total Energy =                       -268.0748364594455779
  Basis Set: (AUG-CC-PVTZ AUX)
    Blend: AUG-CC-PVTZ-RI
    Molecular point group: c1

    Geometry (in Angstrom), charge = 0, multiplicity = 1:

       Center              X                  Y                   Z               Mass
    ------------   -----------------  -----------------  -----------------  -----------------
         O           -2.377559421225    -0.395360936265     0.012156398624    15.994914619570
         O            2.444918478775    -0.259334136265    -0.086207601376    15.994914619570
         C           -0.006474521225    -0.323202136265    -0.025649601376    12.000000000000
         C           -1.272271521225     0.509702863735     0.022586398624    12.000000000000
         C            1.257329478775     0.523951863735     0.037199398624    12.000000000000
         H           -0.025344521225    -1.028238136265     0.815173398624     1.007825032230
         H            0.004355478775    -0.915190136265    -0.945665601376     1.007825032230
         H           -1.295028121225     1.120634563735     0.937720698624     1.007825032230
         H           -1.304511521225     1.191993863735    -0.839781601376     1.007825032230
         H            1.273207478775     1.118069863735     0.963716398624     1.007825032230
         H            1.289827478775     1.225007863735    -0.801527601376     1.007825032230
         H           -3.188625521225     0.129081863735     0.003333398624     1.007825032230
         H            2.432085478775    -0.910111136265     0.635823398624     1.007825032230

  Basis Set: AUG-CC-PVTZ
    Blend: AUG-CC-PVTZ
  Basis Set: (AUG-CC-PVTZ AUX)
    Blend: AUG-CC-PVTZ-JKFIT
	 Reference Energy          =    -268.0748364594455779 [Eh]
	 Singles Energy            =      -0.0000000000000000 [Eh]
	 Same-Spin Energy          =      -0.2582408158165035 [Eh]
	 Opposite-Spin Energy      =      -0.8579457893238198 [Eh]
	 Correlation Energy        =      -1.1161866051403233 [Eh]
	 Total Energy              =    -269.1910230645859201 [Eh]

	 ================> DF-SCS-MP2 Energies <==================
	-----------------------------------------------------------
	 SCS Same-Spin Scale       =       0.3333333333333333 [-]
	 SCS Opposite-Spin Scale   =       1.2000000000000000 [-]
	 SCS Same-Spin Energy      =      -0.0860802719388345 [Eh]
	 SCS Opposite-Spin Energy  =      -1.0295349471885837 [Eh]
	 SCS Correlation Energy    =      -1.1156152191274182 [Eh]
	 SCS Total Energy          =    -269.1904516785729697 [Eh]
	-----------------------------------------------------------

  Dipole Moment: [D]
     X:    -1.4049      Y:     1.3923      Z:     1.0861     Total:     2.2565

*** Psi4 exiting successfully. Buy a developer a beer!
