                               Psi4 1.3.2 release

  ==> Input File <==

--------------------------------------------------------------------------
#psi4
#
memory 32 gb

molecule  {
0 1
  O       -2.3650430    -0.4218480    -0.0057540
  O        2.4536110    -0.2813640    -0.0931210
  C        0.0022180    -0.3452320    -0.0325630
  C       -1.2556823     0.4780264     0.0155841
  C        1.2660220     0.5019220     0.0302860
  H       -0.0166520    -1.0502680     0.8082600
  H        0.0130480    -0.9372200    -0.9525790
  H       -1.2783560     1.1031170     0.9279430
  H       -1.2958190     1.1699640    -0.8466950
  H        1.2819000     1.0960400     0.9568030
  H        1.2985200     1.2029780    -0.8084410
  H       -3.1845171     0.0999218    -0.0037193
  H        2.4407780    -0.9321410     0.6289100
units angstrom
no_reorient  #important for SAPT in psi4, default
symmetry c1  #important for SAPT in psi4, default
}

set PROPERTIES_ORIGIN ["COM"]
properties('MP2/aug-cc-pvtz', properties = ['dipole'])
--------------------------------------------------------------------------

    Molecular point group: c1
  Charge       = 0
  Multiplicity = 1
  Basis Set: AUG-CC-PVTZ
    Blend: AUG-CC-PVTZ
  Basis Set: (AUG-CC-PVTZ AUX)
    Blend: AUG-CC-PVTZ-JKFIT

    Orbital Energies [Eh]
    ---------------------

    Doubly Occupied:

       1A    -20.564396     2A    -20.559857     3A    -11.284415
       4A    -11.279053     5A    -11.223553     6A     -1.360898
       7A     -1.355995     8A     -1.053645     9A     -0.906260
      10A     -0.818582    11A     -0.706092    12A     -0.686631
      13A     -0.647704    14A     -0.613096    15A     -0.592278
      16A     -0.559124    17A     -0.529586    18A     -0.494931
      19A     -0.482828    20A     -0.449099    21A     -0.444856

  @DF-RHF Final Energy:  -268.07430729030546

   => Energetics <=

    Nuclear Repulsion Energy =            184.9133390334753528
    One-Electron Energy =                -732.7495336204473233
    Two-Electron Energy =                 279.7618872966664867
    Total Energy =                       -268.0743072903054554
  Basis Set: (AUG-CC-PVTZ AUX)
    Blend: AUG-CC-PVTZ-RI
    Molecular point group: c1

    Geometry (in Angstrom), charge = 0, multiplicity = 1:

       Center              X                  Y                   Z               Mass
    ------------   -----------------  -----------------  -----------------  -----------------
         O           -2.375830726138    -0.397323934306     0.003526055160    15.994914619570
         O            2.442823273862    -0.256839934306    -0.083840944840    15.994914619570
         C           -0.008569726138    -0.320707934306    -0.023282944840    12.000000000000
         C           -1.266470026138     0.502550465694     0.024864155160    12.000000000000
         C            1.255234273862     0.526446065694     0.039566055160    12.000000000000
         H           -0.027439726138    -1.025743934306     0.817540055160     1.007825032230
         H            0.002260273862    -0.912695934306    -0.943298944840     1.007825032230
         H           -1.289143726138     1.127641065694     0.937223055160     1.007825032230
         H           -1.306606726138     1.194488065694    -0.837414944840     1.007825032230
         H            1.271112273862     1.120564065694     0.966083055160     1.007825032230
         H            1.287732273862     1.227502065694    -0.799160944840     1.007825032230
         H           -3.195304826138     0.124445865694     0.005560755160     1.007825032230
         H            2.429990273862    -0.907616934306     0.638190055160     1.007825032230

  Basis Set: AUG-CC-PVTZ
    Blend: AUG-CC-PVTZ
  Basis Set: (AUG-CC-PVTZ AUX)
    Blend: AUG-CC-PVTZ-JKFIT
	 Reference Energy          =    -268.0743072903054554 [Eh]
	 Singles Energy            =      -0.0000000000000000 [Eh]
	 Same-Spin Energy          =      -0.2583760975461946 [Eh]
	 Opposite-Spin Energy      =      -0.8581425247215120 [Eh]
	 Correlation Energy        =      -1.1165186222677066 [Eh]
	 Total Energy              =    -269.1908259125731888 [Eh]

	 ================> DF-SCS-MP2 Energies <==================
	-----------------------------------------------------------
	 SCS Same-Spin Scale       =       0.3333333333333333 [-]
	 SCS Opposite-Spin Scale   =       1.2000000000000000 [-]
	 SCS Same-Spin Energy      =      -0.0861253658487315 [Eh]
	 SCS Opposite-Spin Energy  =      -1.0297710296658142 [Eh]
	 SCS Correlation Energy    =      -1.1158963955145458 [Eh]
	 SCS Total Energy          =    -269.1902036858199949 [Eh]
	-----------------------------------------------------------

  Dipole Moment: [D]
     X:    -1.4049      Y:     1.3790      Z:     1.1116     Total:     2.2608

*** Psi4 exiting successfully. Buy a developer a beer!
