                               Psi4 1.3.2 release

  ==> Input File <==

--------------------------------------------------------------------------
#psi4
#
memory 32 gb

molecule  {
0 1
  O       -2.3798324    -0.4036069     0.0382354
  O        2.4536110    -0.2813640    -0.0931210
  C        0.0022180    -0.3452320    -0.0325630
  C       -1.2635790     0.4876730     0.0156730
  C        1.2660220     0.5019220     0.0302860
  H       -0.0166520    -1.0502680     0.8082600
  H        0.0130480    -0.9372200    -0.9525790
  H       -1.3102617     1.0847901     0.9389813
  H       -1.2958190     1.1699640    -0.8466950
  H        1.2819000     1.0960400     0.9568030
  H        1.2985200     1.2029780    -0.8084410
  H       -3.1799330     0.1070520    -0.0035800
  H        2.4407780    -0.9321410     0.6289100
units angstrom
no_reorient  #important for SAPT in psi4, default
symmetry c1  #important for SAPT in psi4, default
}

set PROPERTIES_ORIGIN ["COM"]
properties('MP2/aug-cc-pvtz', properties = ['dipole'])
--------------------------------------------------------------------------

    Molecular point group: c1
  Charge       = 0
  Multiplicity = 1
  Basis Set: AUG-CC-PVTZ
    Blend: AUG-CC-PVTZ
  Basis Set: (AUG-CC-PVTZ AUX)
    Blend: AUG-CC-PVTZ-JKFIT

    Orbital Energies [Eh]
    ---------------------

    Doubly Occupied:

       1A    -20.560847     2A    -20.560021     3A    -11.284100
       4A    -11.279224     5A    -11.224810     6A     -1.364563
       7A     -1.356334     8A     -1.052328     9A     -0.907532
      10A     -0.819543    11A     -0.706937    12A     -0.689601
      13A     -0.648178    14A     -0.612182    15A     -0.595002
      16A     -0.558986    17A     -0.530216    18A     -0.493173
      19A     -0.483216    20A     -0.450342    21A     -0.444811

  @DF-RHF Final Energy:  -268.07513583339403

   => Energetics <=

    Nuclear Repulsion Energy =            184.7657817685648070
    One-Electron Energy =                -732.4379464739550940
    Two-Electron Energy =                 279.5970288719962582
    Total Energy =                       -268.0751358333940289
  Basis Set: (AUG-CC-PVTZ AUX)
    Blend: AUG-CC-PVTZ-RI
    Molecular point group: c1

    Geometry (in Angstrom), charge = 0, multiplicity = 1:

       Center              X                  Y                   Z               Mass
    ------------   -----------------  -----------------  -----------------  -----------------
         O           -2.385901657772    -0.384292920626     0.038101705107    15.994914619570
         O            2.447541742228    -0.262050020626    -0.093254694893    15.994914619570
         C           -0.003851257772    -0.325918020626    -0.032696694893    12.000000000000
         C           -1.269648257772     0.506986979374     0.015539305107    12.000000000000
         C            1.259952742228     0.521235979374     0.030152305107    12.000000000000
         H           -0.022721257772    -1.030954020626     0.808126305107     1.007825032230
         H            0.006978742228    -0.917906020626    -0.952712694893     1.007825032230
         H           -1.316330957772     1.104104079374     0.938847605107     1.007825032230
         H           -1.301888257772     1.189277979374    -0.846828694893     1.007825032230
         H            1.275830742228     1.115353979374     0.956669305107     1.007825032230
         H            1.292450742228     1.222291979374    -0.808574694893     1.007825032230
         H           -3.186002257772     0.126365979374    -0.003713694893     1.007825032230
         H            2.434708742228    -0.912827020626     0.628776305107     1.007825032230

  Basis Set: AUG-CC-PVTZ
    Blend: AUG-CC-PVTZ
  Basis Set: (AUG-CC-PVTZ AUX)
    Blend: AUG-CC-PVTZ-JKFIT
	 Reference Energy          =    -268.0751358333940289 [Eh]
	 Singles Energy            =      -0.0000000000000000 [Eh]
	 Same-Spin Energy          =      -0.2579906964834895 [Eh]
	 Opposite-Spin Energy      =      -0.8573477442635103 [Eh]
	 Correlation Energy        =      -1.1153384407469999 [Eh]
	 Total Energy              =    -269.1904742741410246 [Eh]

	 ================> DF-SCS-MP2 Energies <==================
	-----------------------------------------------------------
	 SCS Same-Spin Scale       =       0.3333333333333333 [-]
	 SCS Opposite-Spin Scale   =       1.2000000000000000 [-]
	 SCS Same-Spin Energy      =      -0.0859968988278298 [Eh]
	 SCS Opposite-Spin Energy  =      -1.0288172931162123 [Eh]
	 SCS Correlation Energy    =      -1.1148141919440422 [Eh]
	 SCS Total Energy          =    -269.1899500253380779 [Eh]
	-----------------------------------------------------------

  Dipole Moment: [D]
     X:    -1.3708      Y:     1.3759      Z:     1.0078     Total:     2.1881

*** Psi4 exiting successfully. Buy a developer a beer!
