                               Psi4 1.3.2 release

  ==> Input File <==

--------------------------------------------------------------------------
#psi4
#
memory 32 gb

molecule  {
0 1
  O       -2.3650430    -0.4218480    -0.0057540
  O        2.4536110    -0.2813640    -0.0931210
  C        0.0022180    -0.3452320    -0.0325630
  C       -1.2174776     0.4287804     0.0151155
  C        1.2660220     0.5019220     0.0302860
  H       -0.0166520    -1.0502680     0.8082600
  H        0.0130480    -0.9372200    -0.9525790
  H       -1.2783560     1.1031170     0.9279430
  H       -1.2958190     1.1699640    -0.8466950
  H        1.2819000     1.0960400     0.9568030
  H        1.2985200     1.2029780    -0.8084410
  H       -3.2064946     0.0636858    -0.0044182
  H        2.4407780    -0.9321410     0.6289100
units angstrom
no_reorient  #important for SAPT in psi4, default
symmetry c1  #important for SAPT in psi4, default
}

set PROPERTIES_ORIGIN ["COM"]
properties('MP2/aug-cc-pvtz', properties = ['dipole'])
--------------------------------------------------------------------------

    Molecular point group: c1
  Charge       = 0
  Multiplicity = 1
  Basis Set: AUG-CC-PVTZ
    Blend: AUG-CC-PVTZ
  Basis Set: (AUG-CC-PVTZ AUX)
    Blend: AUG-CC-PVTZ-JKFIT

    Orbital Energies [Eh]
    ---------------------

    Doubly Occupied:

       1A    -20.561478     2A    -20.561338     3A    -11.288016
       4A    -11.281288     5A    -11.222303     6A     -1.359076
       7A     -1.356262     8A     -1.065944     9A     -0.908151
      10A     -0.815745    11A     -0.708508    12A     -0.687683
      13A     -0.645317    14A     -0.619612    15A     -0.593486
      16A     -0.558165    17A     -0.529258    18A     -0.495819
      19A     -0.486446    20A     -0.448106    21A     -0.436669

  @DF-RHF Final Energy:  -268.06762074672730

   => Energetics <=

    Nuclear Repulsion Energy =            185.5106564560125832
    One-Electron Energy =                -733.8992130955500670
    Two-Electron Energy =                 280.3209358928101551
    Total Energy =                       -268.0676207467273002
  Basis Set: (AUG-CC-PVTZ AUX)
    Blend: AUG-CC-PVTZ-RI
    Molecular point group: c1

    Geometry (in Angstrom), charge = 0, multiplicity = 1:

       Center              X                  Y                   Z               Mass
    ------------   -----------------  -----------------  -----------------  -----------------
         O           -2.381567649050    -0.389073421443     0.003609255249    15.994914619570
         O            2.437086350950    -0.248589421443    -0.083757744751    15.994914619570
         C           -0.014306649050    -0.312457421443    -0.023199744751    12.000000000000
         C           -1.234002249050     0.461554978557     0.024478755249    12.000000000000
         C            1.249497350950     0.534696578557     0.039649255249    12.000000000000
         H           -0.033176649050    -1.017493421443     0.817623255249     1.007825032230
         H           -0.003476649050    -0.904445421443    -0.943215744751     1.007825032230
         H           -1.294880649050     1.135891578557     0.937306255249     1.007825032230
         H           -1.312343649050     1.202738578557    -0.837331744751     1.007825032230
         H            1.265375350950     1.128814578557     0.966166255249     1.007825032230
         H            1.281995350950     1.235752578557    -0.799077744751     1.007825032230
         H           -3.223019249050     0.096460378557     0.004945055249     1.007825032230
         H            2.424253350950    -0.899366421443     0.638273255249     1.007825032230

  Basis Set: AUG-CC-PVTZ
    Blend: AUG-CC-PVTZ
  Basis Set: (AUG-CC-PVTZ AUX)
    Blend: AUG-CC-PVTZ-JKFIT
	 Reference Energy          =    -268.0676207467273002 [Eh]
	 Singles Energy            =      -0.0000000000000000 [Eh]
	 Same-Spin Energy          =      -0.2587970239232126 [Eh]
	 Opposite-Spin Energy      =      -0.8583925232901407 [Eh]
	 Correlation Energy        =      -1.1171895472133533 [Eh]
	 Total Energy              =    -269.1848102939406431 [Eh]

	 ================> DF-SCS-MP2 Energies <==================
	-----------------------------------------------------------
	 SCS Same-Spin Scale       =       0.3333333333333333 [-]
	 SCS Opposite-Spin Scale   =       1.2000000000000000 [-]
	 SCS Same-Spin Energy      =      -0.0862656746410708 [Eh]
	 SCS Opposite-Spin Energy  =      -1.0300710279481688 [Eh]
	 SCS Correlation Energy    =      -1.1163367025892397 [Eh]
	 SCS Total Energy          =    -269.1839574493165514 [Eh]
	-----------------------------------------------------------

  Dipole Moment: [D]
     X:    -1.3424      Y:     1.2777      Z:     1.1116     Total:     2.1610

*** Psi4 exiting successfully. Buy a developer a beer!
