                               Psi4 1.3.2 release

  ==> Input File <==

--------------------------------------------------------------------------
#psi4
#
memory 32 gb

molecule  {
0 1
  O       -2.3726066    -0.4128646     0.0162408
  O        2.4536110    -0.2813640    -0.0931210
  C        0.0022180    -0.3452320    -0.0325630
  C       -1.2635790     0.4876730     0.0156730
  C        1.2660220     0.5019220     0.0302860
  H       -0.0166520    -1.0502680     0.8082600
  H        0.0130480    -0.9372200    -0.9525790
  H       -1.2943135     1.0940459     0.9336019
  H       -1.2958190     1.1699640    -0.8466950
  H        1.2819000     1.0960400     0.9568030
  H        1.2985200     1.2029780    -0.8084410
  H       -3.1799330     0.1070520    -0.0035800
  H        2.4407780    -0.9321410     0.6289100
units angstrom
no_reorient  #important for SAPT in psi4, default
symmetry c1  #important for SAPT in psi4, default
}

set PROPERTIES_ORIGIN ["COM"]
properties('MP2/aug-cc-pvtz', properties = ['dipole'])
--------------------------------------------------------------------------

    Molecular point group: c1
  Charge       = 0
  Multiplicity = 1
  Basis Set: AUG-CC-PVTZ
    Blend: AUG-CC-PVTZ
  Basis Set: (AUG-CC-PVTZ AUX)
    Blend: AUG-CC-PVTZ-JKFIT

    Orbital Energies [Eh]
    ---------------------

    Doubly Occupied:

       1A    -20.562888     2A    -20.559800     3A    -11.283987
       4A    -11.278936     5A    -11.224306     6A     -1.363019
       7A     -1.356073     8A     -1.051880     9A     -0.906782
      10A     -0.819295    11A     -0.706240    12A     -0.688114
      13A     -0.648304    14A     -0.612234    15A     -0.593446
      16A     -0.559285    17A     -0.529952    18A     -0.493734
      19A     -0.482520    20A     -0.450907    21A     -0.444534

  @DF-RHF Final Energy:  -268.07508859417294

   => Energetics <=

    Nuclear Repulsion Energy =            184.7803033340229888
    One-Electron Energy =                -732.4783097635707918
    Two-Electron Energy =                 279.6229178353748921
    Total Energy =                       -268.0750885941729393
  Basis Set: (AUG-CC-PVTZ AUX)
    Blend: AUG-CC-PVTZ-RI
    Molecular point group: c1

    Geometry (in Angstrom), charge = 0, multiplicity = 1:

       Center              X                  Y                   Z               Mass
    ------------   -----------------  -----------------  -----------------  -----------------
         O           -2.380406887933    -0.391726249005     0.020804170611    15.994914619570
         O            2.445810712067    -0.260225649005    -0.088557629389    15.994914619570
         C           -0.005582287933    -0.324093649005    -0.027999629389    12.000000000000
         C           -1.271379287933     0.508811350995     0.020236370611    12.000000000000
         C            1.258221712067     0.523060350995     0.034849370611    12.000000000000
         H           -0.024452287933    -1.029129649005     0.812823370611     1.007825032230
         H            0.005247712067    -0.916081649005    -0.948015629389     1.007825032230
         H           -1.302113787933     1.115184250995     0.938165270611     1.007825032230
         H           -1.303619287933     1.191102350995    -0.842131629389     1.007825032230
         H            1.274099712067     1.117178350995     0.961366370611     1.007825032230
         H            1.290719712067     1.224116350995    -0.803877629389     1.007825032230
         H           -3.187733287933     0.128190350995     0.000983370611     1.007825032230
         H            2.432977712067    -0.911002649005     0.633473370611     1.007825032230

  Basis Set: AUG-CC-PVTZ
    Blend: AUG-CC-PVTZ
  Basis Set: (AUG-CC-PVTZ AUX)
    Blend: AUG-CC-PVTZ-JKFIT
	 Reference Energy          =    -268.0750885941729393 [Eh]
	 Singles Energy            =      -0.0000000000000000 [Eh]
	 Same-Spin Energy          =      -0.2581514333177409 [Eh]
	 Opposite-Spin Energy      =      -0.8577332435545566 [Eh]
	 Correlation Energy        =      -1.1158846768722976 [Eh]
	 Total Energy              =    -269.1909732710452090 [Eh]

	 ================> DF-SCS-MP2 Energies <==================
	-----------------------------------------------------------
	 SCS Same-Spin Scale       =       0.3333333333333333 [-]
	 SCS Opposite-Spin Scale   =       1.2000000000000000 [-]
	 SCS Same-Spin Energy      =      -0.0860504777725803 [Eh]
	 SCS Opposite-Spin Energy  =      -1.0292798922654678 [Eh]
	 SCS Correlation Energy    =      -1.1153303700380481 [Eh]
	 SCS Total Energy          =    -269.1904189642110055 [Eh]
	-----------------------------------------------------------

  Dipole Moment: [D]
     X:    -1.3933      Y:     1.3873      Z:     1.0602     Total:     2.2338

*** Psi4 exiting successfully. Buy a developer a beer!
