                               Psi4 1.3.2 release

  ==> Input File <==

--------------------------------------------------------------------------
#psi4
#
memory 32 gb

molecule  {
0 1
  O       -2.3570634    -0.4314150    -0.0062255
  O        2.4536110    -0.2813640    -0.0931210
  C       -0.0051089    -0.3562424    -0.0328980
  C       -1.2635790     0.4876730     0.0156730
  C        1.2660220     0.5019220     0.0302860
  H       -0.0166520    -1.0502680     0.8082600
  H        0.0130480    -0.9372200    -0.9525790
  H       -1.2783560     1.1031170     0.9279430
  H       -1.2958190     1.1699640    -0.8466950
  H        1.2819000     1.0960400     0.9568030
  H        1.2985200     1.2029780    -0.8084410
  H       -3.1799330     0.1070520    -0.0035800
  H        2.4407780    -0.9321410     0.6289100
units angstrom
no_reorient  #important for SAPT in psi4, default
symmetry c1  #important for SAPT in psi4, default
}

set PROPERTIES_ORIGIN ["COM"]
properties('MP2/aug-cc-pvtz', properties = ['dipole'])
--------------------------------------------------------------------------

    Molecular point group: c1
  Charge       = 0
  Multiplicity = 1
  Basis Set: AUG-CC-PVTZ
    Blend: AUG-CC-PVTZ
  Basis Set: (AUG-CC-PVTZ AUX)
    Blend: AUG-CC-PVTZ-JKFIT

    Orbital Energies [Eh]
    ---------------------

    Doubly Occupied:

       1A    -20.566155     2A    -20.559139     3A    -11.283465
       4A    -11.278672     5A    -11.222787     6A     -1.359557
       7A     -1.355118     8A     -1.049277     9A     -0.904054
      10A     -0.820038    11A     -0.703590    12A     -0.685468
      13A     -0.648414    14A     -0.611029    15A     -0.589747
      16A     -0.559807    17A     -0.530152    18A     -0.495653
      19A     -0.481655    20A     -0.451847    21A     -0.442069

  @DF-RHF Final Energy:  -268.07321966475683

   => Energetics <=

    Nuclear Repulsion Energy =            184.7257311454583544
    One-Electron Energy =                -732.4025160134187900
    Two-Electron Energy =                 279.6035652032036296
    Total Energy =                       -268.0732196647568344
  Basis Set: (AUG-CC-PVTZ AUX)
    Blend: AUG-CC-PVTZ-RI
    Molecular point group: c1

    Geometry (in Angstrom), charge = 0, multiplicity = 1:

       Center              X                  Y                   Z               Mass
    ------------   -----------------  -----------------  -----------------  -----------------
         O           -2.367188028208    -0.404758156232     0.003190703503    15.994914619570
         O            2.443486371792    -0.254707156232    -0.083704796497    15.994914619570
         C           -0.015233528208    -0.329585556232    -0.023481796497    12.000000000000
         C           -1.273703628208     0.514329843768     0.025089203503    12.000000000000
         C            1.255897371792     0.528578843768     0.039702203503    12.000000000000
         H           -0.026776628208    -1.023611156232     0.817676203503     1.007825032230
         H            0.002923371792    -0.910563156232    -0.943162796497     1.007825032230
         H           -1.288480628208     1.129773843768     0.937359203503     1.007825032230
         H           -1.305943628208     1.196620843768    -0.837278796497     1.007825032230
         H            1.271775371792     1.122696843768     0.966219203503     1.007825032230
         H            1.288395371792     1.229634843768    -0.799024796497     1.007825032230
         H           -3.190057628208     0.133708843768     0.005836203503     1.007825032230
         H            2.430653371792    -0.905484156232     0.638326203503     1.007825032230

  Basis Set: AUG-CC-PVTZ
    Blend: AUG-CC-PVTZ
  Basis Set: (AUG-CC-PVTZ AUX)
    Blend: AUG-CC-PVTZ-JKFIT
	 Reference Energy          =    -268.0732196647568344 [Eh]
	 Singles Energy            =      -0.0000000000000000 [Eh]
	 Same-Spin Energy          =      -0.2584598494058612 [Eh]
	 Opposite-Spin Energy      =      -0.8586082153798607 [Eh]
	 Correlation Energy        =      -1.1170680647857218 [Eh]
	 Total Energy              =    -269.1902877295425469 [Eh]

	 ================> DF-SCS-MP2 Energies <==================
	-----------------------------------------------------------
	 SCS Same-Spin Scale       =       0.3333333333333333 [-]
	 SCS Opposite-Spin Scale   =       1.2000000000000000 [-]
	 SCS Same-Spin Energy      =      -0.0861532831352871 [Eh]
	 SCS Opposite-Spin Energy  =      -1.0303298584558327 [Eh]
	 SCS Correlation Energy    =      -1.1164831415911198 [Eh]
	 SCS Total Energy          =    -269.1897028063479524 [Eh]
	-----------------------------------------------------------

  Dipole Moment: [D]
     X:    -1.4310      Y:     1.4066      Z:     1.1133     Total:     2.2947

*** Psi4 exiting successfully. Buy a developer a beer!
