                               Psi4 1.3.2 release

  ==> Input File <==

--------------------------------------------------------------------------
#psi4
#
memory 32 gb

molecule  {
0 1
  O       -2.3650430    -0.4218480    -0.0057540
  O        2.4536110    -0.2813640    -0.0931210
  C        0.0022180    -0.3452320    -0.0325630
  C       -1.2635790     0.4876730     0.0156730
  C        1.2660220     0.5019220     0.0302860
  H       -0.0166520    -1.0502680     0.8082600
  H        0.0130480    -0.9372200    -0.9525790
  H       -1.2783560     1.1031170     0.9279430
  H       -1.2958190     1.1699640    -0.8466950
  H        1.2819000     1.0960400     0.9568030
  H        1.2985200     1.2029780    -0.8084410
  H       -3.3476945     0.2159367    -0.0031324
  H        2.4407780    -0.9321410     0.6289100
units angstrom
no_reorient  #important for SAPT in psi4, default
symmetry c1  #important for SAPT in psi4, default
}

set PROPERTIES_ORIGIN ["COM"]
properties('MP2/aug-cc-pvtz', properties = ['dipole'])
--------------------------------------------------------------------------

    Molecular point group: c1
  Charge       = 0
  Multiplicity = 1
  Basis Set: AUG-CC-PVTZ
    Blend: AUG-CC-PVTZ
  Basis Set: (AUG-CC-PVTZ AUX)
    Blend: AUG-CC-PVTZ-JKFIT

    Orbital Energies [Eh]
    ---------------------

    Doubly Occupied:

       1A    -20.580315     2A    -20.559371     3A    -11.282017
       4A    -11.278513     5A    -11.223383     6A     -1.355936
       7A     -1.329595     8A     -1.046364     9A     -0.897981
      10A     -0.817219    11A     -0.694714    12A     -0.663886
      13A     -0.642135    14A     -0.610281    15A     -0.586429
      16A     -0.553456    17A     -0.528286    18A     -0.488843
      19A     -0.477169    20A     -0.447856    21A     -0.442511

  @DF-RHF Final Energy:  -268.03875735739086

   => Energetics <=

    Nuclear Repulsion Energy =            183.7951855676026298
    One-Electron Energy =                -730.6553716077332865
    Two-Electron Energy =                 278.8214286827397927
    Total Energy =                       -268.0387573573908639
  Basis Set: (AUG-CC-PVTZ AUX)
    Blend: AUG-CC-PVTZ-RI
    Molecular point group: c1

    Geometry (in Angstrom), charge = 0, multiplicity = 1:

       Center              X                  Y                   Z               Mass
    ------------   -----------------  -----------------  -----------------  -----------------
         O           -2.372422358119    -0.400383427894     0.003504250564    15.994914619570
         O            2.446231641881    -0.259899427894    -0.083862749436    15.994914619570
         C           -0.005161358119    -0.323767427894    -0.023304749436    12.000000000000
         C           -1.270958358119     0.509137572106     0.024931250564    12.000000000000
         C            1.258642641881     0.523386572106     0.039544250564    12.000000000000
         H           -0.024031358119    -1.028803427894     0.817518250564     1.007825032230
         H            0.005668641881    -0.915755427894    -0.943320749436     1.007825032230
         H           -1.285735358119     1.124581572106     0.937201250564     1.007825032230
         H           -1.303198358119     1.191428572106    -0.837436749436     1.007825032230
         H            1.274520641881     1.117504572106     0.966061250564     1.007825032230
         H            1.291140641881     1.224442572106    -0.799182749436     1.007825032230
         H           -3.355073858119     0.237401272106     0.006125850564     1.007825032230
         H            2.433398641881    -0.910676427894     0.638168250564     1.007825032230

  Basis Set: AUG-CC-PVTZ
    Blend: AUG-CC-PVTZ
  Basis Set: (AUG-CC-PVTZ AUX)
    Blend: AUG-CC-PVTZ-JKFIT
	 Reference Energy          =    -268.0387573573908639 [Eh]
	 Singles Energy            =      -0.0000000000000000 [Eh]
	 Same-Spin Energy          =      -0.2604119525355428 [Eh]
	 Opposite-Spin Energy      =      -0.8648561703252979 [Eh]
	 Correlation Energy        =      -1.1252681228608408 [Eh]
	 Total Energy              =    -269.1640254802517234 [Eh]

	 ================> DF-SCS-MP2 Energies <==================
	-----------------------------------------------------------
	 SCS Same-Spin Scale       =       0.3333333333333333 [-]
	 SCS Opposite-Spin Scale   =       1.2000000000000000 [-]
	 SCS Same-Spin Energy      =      -0.0868039841785143 [Eh]
	 SCS Opposite-Spin Energy  =      -1.0378274043903575 [Eh]
	 SCS Correlation Energy    =      -1.1246313885688717 [Eh]
	 SCS Total Energy          =    -269.1633887459597076 [Eh]
	-----------------------------------------------------------

  Dipole Moment: [D]
     X:    -1.5270      Y:     1.4513      Z:     1.1107     Total:     2.3815

*** Psi4 exiting successfully. Buy a developer a beer!
