                               Psi4 1.4a3.dev225

  ==> Input File <==

--------------------------------------------------------------------------
#psi4
#
memory 32 gb

molecule  {
0 1
  O       -2.3655480    -0.4216410    -0.0057250
  O        2.4519660    -0.2843820    -0.0939020
  C        0.0026340    -0.3450150    -0.0348160
  C       -1.2643780     0.4871770     0.0157270
  C        1.2666380     0.5015080     0.0285970
  H       -0.0165330    -1.0499780     0.8053450
  H        0.0111760    -0.9353620    -0.9555930
  H       -1.2780140     1.1021720     0.9283990
  H       -1.2984520     1.1712490    -0.8452820
  H        1.2830030     1.0964650     0.9545460
  H        1.3014000     1.2020440    -0.8103600
  H       -3.2239988     0.1319838     0.0097862
  H        2.4586940    -0.9053110     0.6538860
units angstrom
no_reorient  #important for SAPT in psi4, default
symmetry c1  #important for SAPT in psi4, default
}

set PROPERTIES_ORIGIN ["COM"]
properties('MP2/aug-cc-pvtz', properties = ['dipole'])
--------------------------------------------------------------------------

    Molecular point group: c1
  Charge       = 0
  Multiplicity = 1
  Basis Set: AUG-CC-PVTZ
    Blend: AUG-CC-PVTZ
  Basis Set: (AUG-CC-PVTZ AUX)
    Blend: AUG-CC-PVTZ-JKFIT

    Orbital Energies [Eh]
    ---------------------

    Doubly Occupied:

       1A    -20.569122     2A    -20.559509     3A    -11.282998
       4A    -11.278528     5A    -11.223074     6A     -1.356567
       7A     -1.350678     8A     -1.049435     9A     -0.903449
      10A     -0.818010    11A     -0.700487    12A     -0.682134
      13A     -0.647742    14A     -0.611717    15A     -0.588896
      16A     -0.558218    17A     -0.530043    18A     -0.492130
      19A     -0.480745    20A     -0.449739    21A     -0.443874

  @DF-RHF Final Energy:  -268.06938916255746

   => Energetics <=

    Nuclear Repulsion Energy =            184.5111492501998782
    One-Electron Energy =                -732.0068851367809657
    Two-Electron Energy =                 279.4263467240236309
    Total Energy =                       -268.0693891625574565
  Basis Set: (AUG-CC-PVTZ AUX)
    Blend: AUG-CC-PVTZ-RI
    Molecular point group: c1

    Geometry (in Angstrom), charge = 0, multiplicity = 1:

       Center              X                  Y                   Z               Mass
    ------------   -----------------  -----------------  -----------------  -----------------
         O           -2.374387735823    -0.398745137552     0.003911851175    15.994914619570
         O            2.443126264177    -0.261486137552    -0.084265148825    15.994914619570
         C           -0.006205735823    -0.322119137552    -0.025179148825    12.000000000000
         C           -1.273217735823     0.510072862448     0.025363851175    12.000000000000
         C            1.257798264177     0.524403862448     0.038233851175    12.000000000000
         H           -0.025372735823    -1.027082137552     0.814981851175     1.007825032230
         H            0.002336264177    -0.912466137552    -0.945956148825     1.007825032230
         H           -1.286853735823     1.125067862448     0.938035851175     1.007825032230
         H           -1.307291735823     1.194144862448    -0.835645148825     1.007825032230
         H            1.274163264177     1.119360862448     0.964182851175     1.007825032230
         H            1.292560264177     1.224939862448    -0.800723148825     1.007825032230
         H           -3.232838535823     0.154879662448     0.019423051175     1.007825032230
         H            2.449854264177    -0.882415137552     0.663522851175     1.007825032230

  Basis Set: AUG-CC-PVTZ
    Blend: AUG-CC-PVTZ
  Basis Set: (AUG-CC-PVTZ AUX)
    Blend: AUG-CC-PVTZ-JKFIT
	 Reference Energy          =    -268.0693891625574565 [Eh]
	 Singles Energy            =      -0.0000000000000000 [Eh]
	 Same-Spin Energy          =      -0.2588679313314501 [Eh]
	 Opposite-Spin Energy      =      -0.8596932556822563 [Eh]
	 Correlation Energy        =      -1.1185611870137064 [Eh]
	 Total Energy              =    -269.1879503495711674 [Eh]

	 ================> DF-SCS-MP2 Energies <==================
	-----------------------------------------------------------
	 SCS Same-Spin Scale       =       0.3333333333333333 [-]
	 SCS Opposite-Spin Scale   =       1.2000000000000000 [-]
	 SCS Same-Spin Energy      =      -0.0862893104438167 [Eh]
	 SCS Opposite-Spin Energy  =      -1.0316319068187074 [Eh]
	 SCS Correlation Energy    =      -1.1179212172625241 [Eh]
	 SCS Total Energy          =    -269.1873103798199622 [Eh]
	-----------------------------------------------------------

  Dipole Moment: [D]
     X:    -1.4144      Y:     1.4500      Z:     1.1700     Total:     2.3392

*** Psi4 exiting successfully. Buy a developer a beer!
