                               Psi4 1.3.2 release

  ==> Input File <==

--------------------------------------------------------------------------
#psi4
#
memory 32 gb

molecule  {
0 1
  O       -2.3729387    -0.4122117    -0.0052808
  O        2.4536110    -0.2813640    -0.0931210
  C        0.0094485    -0.3341581    -0.0322244
  C       -1.2635790     0.4876730     0.0156730
  C        1.2660220     0.5019220     0.0302860
  H       -0.0166520    -1.0502680     0.8082600
  H        0.0130480    -0.9372200    -0.9525790
  H       -1.2783560     1.1031170     0.9279430
  H       -1.2958190     1.1699640    -0.8466950
  H        1.2819000     1.0960400     0.9568030
  H        1.2985200     1.2029780    -0.8084410
  H       -3.1799330     0.1070520    -0.0035800
  H        2.4407780    -0.9321410     0.6289100
units angstrom
no_reorient  #important for SAPT in psi4, default
symmetry c1  #important for SAPT in psi4, default
}

set PROPERTIES_ORIGIN ["COM"]
properties('MP2/aug-cc-pvtz', properties = ['dipole'])
--------------------------------------------------------------------------

    Molecular point group: c1
  Charge       = 0
  Multiplicity = 1
  Basis Set: AUG-CC-PVTZ
    Blend: AUG-CC-PVTZ
  Basis Set: (AUG-CC-PVTZ AUX)
    Blend: AUG-CC-PVTZ-JKFIT

    Orbital Energies [Eh]
    ---------------------

    Doubly Occupied:

       1A    -20.563819     2A    -20.560013     3A    -11.284306
       4A    -11.278591     5A    -11.224861     6A     -1.363580
       7A     -1.356415     8A     -1.053615     9A     -0.908092
      10A     -0.818156    11A     -0.707648    12A     -0.687487
      13A     -0.648374    14A     -0.613573    15A     -0.593983
      16A     -0.559474    17A     -0.529409    18A     -0.492837
      19A     -0.481911    20A     -0.450694    21A     -0.446095

  @DF-RHF Final Energy:  -268.07489612574636

   => Energetics <=

    Nuclear Repulsion Energy =            184.8708702833097561
    One-Electron Energy =                -732.6456679139477046
    Two-Electron Energy =                 279.6999015048916135
    Total Energy =                       -268.0748961257463634
  Basis Set: (AUG-CC-PVTZ AUX)
    Blend: AUG-CC-PVTZ-RI
    Molecular point group: c1

    Geometry (in Angstrom), charge = 0, multiplicity = 1:

       Center              X                  Y                   Z               Mass
    ------------   -----------------  -----------------  -----------------  -----------------
         O           -2.382021477624    -0.393078175970     0.003830434996    15.994914619570
         O            2.444528222376    -0.262230475970    -0.084009765004    15.994914619570
         C            0.000365722376    -0.315024575970    -0.023113165004    12.000000000000
         C           -1.272661777624     0.506806524030     0.024784234996    12.000000000000
         C            1.256939222376     0.521055524030     0.039397234996    12.000000000000
         H           -0.025734777624    -1.031134475970     0.817371234996     1.007825032230
         H            0.003965222376    -0.918086475970    -0.943467765004     1.007825032230
         H           -1.287438777624     1.122250524030     0.937054234996     1.007825032230
         H           -1.304901777624     1.189097524030    -0.837583765004     1.007825032230
         H            1.272817222376     1.115173524030     0.965914234996     1.007825032230
         H            1.289437222376     1.222111524030    -0.799329765004     1.007825032230
         H           -3.189015777624     0.126185524030     0.005531234996     1.007825032230
         H            2.431695222376    -0.913007475970     0.638021234996     1.007825032230

  Basis Set: AUG-CC-PVTZ
    Blend: AUG-CC-PVTZ
  Basis Set: (AUG-CC-PVTZ AUX)
    Blend: AUG-CC-PVTZ-JKFIT
	 Reference Energy          =    -268.0748961257463634 [Eh]
	 Singles Energy            =      -0.0000000000000000 [Eh]
	 Same-Spin Energy          =      -0.2582313909959418 [Eh]
	 Opposite-Spin Energy      =      -0.8577778086578913 [Eh]
	 Correlation Energy        =      -1.1160091996538331 [Eh]
	 Total Energy              =    -269.1909053254001947 [Eh]

	 ================> DF-SCS-MP2 Energies <==================
	-----------------------------------------------------------
	 SCS Same-Spin Scale       =       0.3333333333333333 [-]
	 SCS Opposite-Spin Scale   =       1.2000000000000000 [-]
	 SCS Same-Spin Energy      =      -0.0860771303319806 [Eh]
	 SCS Opposite-Spin Energy  =      -1.0293333703894696 [Eh]
	 SCS Correlation Energy    =      -1.1154105007214501 [Eh]
	 SCS Total Energy          =    -269.1903066264678159 [Eh]
	-----------------------------------------------------------

  Dipole Moment: [D]
     X:    -1.4019      Y:     1.3872      Z:     1.1098     Total:     2.2630

*** Psi4 exiting successfully. Buy a developer a beer!
