                               Psi4 1.3.2 release

  ==> Input File <==

--------------------------------------------------------------------------
#psi4
#
memory 32 gb

molecule  {
0 1
  O       -2.3326276    -0.4596932    -0.0076300
  O        2.4536110    -0.2813640    -0.0931210
  C       -0.0276622    -0.3888848    -0.0338806
  C       -1.2635790     0.4876730     0.0156730
  C        1.2660220     0.5019220     0.0302860
  H       -0.0166520    -1.0502680     0.8082600
  H        0.0130480    -0.9372200    -0.9525790
  H       -1.2783560     1.1031170     0.9279430
  H       -1.2958190     1.1699640    -0.8466950
  H        1.2819000     1.0960400     0.9568030
  H        1.2985200     1.2029780    -0.8084410
  H       -3.1799330     0.1070520    -0.0035800
  H        2.4407780    -0.9321410     0.6289100
units angstrom
no_reorient  #important for SAPT in psi4, default
symmetry c1  #important for SAPT in psi4, default
}

set PROPERTIES_ORIGIN ["COM"]
properties('MP2/aug-cc-pvtz', properties = ['dipole'])
--------------------------------------------------------------------------

    Molecular point group: c1
  Charge       = 0
  Multiplicity = 1
  Basis Set: AUG-CC-PVTZ
    Blend: AUG-CC-PVTZ
  Basis Set: (AUG-CC-PVTZ AUX)
    Blend: AUG-CC-PVTZ-JKFIT

    Orbital Energies [Eh]
    ---------------------

    Doubly Occupied:

       1A    -20.569607     2A    -20.557867     3A    -11.282590
       4A    -11.278642     5A    -11.220206     6A     -1.355138
       7A     -1.352469     8A     -1.043231     9A     -0.898654
      10A     -0.823046    11A     -0.698381    12A     -0.682255
      13A     -0.648717    14A     -0.607599    15A     -0.583828
      16A     -0.560096    17A     -0.532538    18A     -0.499285
      19A     -0.480756    20A     -0.453127    21A     -0.434457

  @DF-RHF Final Energy:  -268.06541501517239

   => Energetics <=

    Nuclear Repulsion Energy =            184.5361802916933414
    One-Electron Energy =                -732.0782135334915210
    Two-Electron Energy =                 279.4766182266258170
    Total Energy =                       -268.0654150151723911
  Basis Set: (AUG-CC-PVTZ AUX)
    Blend: AUG-CC-PVTZ-RI
    Molecular point group: c1

    Geometry (in Angstrom), charge = 0, multiplicity = 1:

       Center              X                  Y                   Z               Mass
    ------------   -----------------  -----------------  -----------------  -----------------
         O           -2.344332834316    -0.421938535950     0.002236630370    15.994914619570
         O            2.441905765684    -0.243609335950    -0.083254369630    15.994914619570
         C           -0.039367434316    -0.351130135950    -0.024013969630    12.000000000000
         C           -1.275284234316     0.525427664050     0.025539630370    12.000000000000
         C            1.254316765684     0.539676664050     0.040152630370    12.000000000000
         H           -0.028357234316    -1.012513335950     0.818126630370     1.007825032230
         H            0.001342765684    -0.899465335950    -0.942712369630     1.007825032230
         H           -1.290061234316     1.140871664050     0.937809630370     1.007825032230
         H           -1.307524234316     1.207718664050    -0.836828369630     1.007825032230
         H            1.270194765684     1.133794664050     0.966669630370     1.007825032230
         H            1.286814765684     1.240732664050    -0.798574369630     1.007825032230
         H           -3.191638234316     0.144806664050     0.006286630370     1.007825032230
         H            2.429072765684    -0.894386335950     0.638776630370     1.007825032230

  Basis Set: AUG-CC-PVTZ
    Blend: AUG-CC-PVTZ
  Basis Set: (AUG-CC-PVTZ AUX)
    Blend: AUG-CC-PVTZ-JKFIT
	 Reference Energy          =    -268.0654150151723911 [Eh]
	 Singles Energy            =      -0.0000000000000000 [Eh]
	 Same-Spin Energy          =      -0.2589450613847631 [Eh]
	 Opposite-Spin Energy      =      -0.8601767375175788 [Eh]
	 Correlation Energy        =      -1.1191217989023419 [Eh]
	 Total Energy              =    -269.1845368140747610 [Eh]

	 ================> DF-SCS-MP2 Energies <==================
	-----------------------------------------------------------
	 SCS Same-Spin Scale       =       0.3333333333333333 [-]
	 SCS Opposite-Spin Scale   =       1.2000000000000000 [-]
	 SCS Same-Spin Energy      =      -0.0863150204615877 [Eh]
	 SCS Opposite-Spin Energy  =      -1.0322120850210945 [Eh]
	 SCS Correlation Energy    =      -1.1185271054826822 [Eh]
	 SCS Total Energy          =    -269.1839421206550469 [Eh]
	-----------------------------------------------------------

  Dipole Moment: [D]
     X:    -1.4714      Y:     1.4345      Z:     1.1181     Total:     2.3394

*** Psi4 exiting successfully. Buy a developer a beer!
