                               Psi4 1.4a3.dev225

  ==> Input File <==

--------------------------------------------------------------------------
#psi4
#
memory 32 gb

molecule  {
0 1
  O       -2.3655480    -0.4216410    -0.0057250
  O        2.4519660    -0.2843820    -0.0939020
  C        0.0026340    -0.3450150    -0.0348160
  C       -1.3029362     0.4553541     0.0149758
  C        1.2666380     0.5015080     0.0285970
  H       -0.0165330    -1.0499780     0.8053450
  H        0.0111760    -0.9353620    -0.9555930
  H       -1.2780140     1.1021720     0.9283990
  H       -1.2984520     1.1712490    -0.8452820
  H        1.2830030     1.0964650     0.9545460
  H        1.3014000     1.2020440    -0.8103600
  H       -3.1819840     0.1048880     0.0090270
  H        2.4586940    -0.9053110     0.6538860
units angstrom
no_reorient  #important for SAPT in psi4, default
symmetry c1  #important for SAPT in psi4, default
}

set PROPERTIES_ORIGIN ["COM"]
properties('MP2/aug-cc-pvtz', properties = ['dipole'])
--------------------------------------------------------------------------

    Molecular point group: c1
  Charge       = 0
  Multiplicity = 1
  Basis Set: AUG-CC-PVTZ
    Blend: AUG-CC-PVTZ
  Basis Set: (AUG-CC-PVTZ AUX)
    Blend: AUG-CC-PVTZ-JKFIT

    Orbital Energies [Eh]
    ---------------------

    Doubly Occupied:

       1A    -20.570100     2A    -20.559258     3A    -11.285011
       4A    -11.278036     5A    -11.222456     6A     -1.382582
       7A     -1.355781     8A     -1.045977     9A     -0.904699
      10A     -0.815815    11A     -0.715674    12A     -0.688741
      13A     -0.648699    14A     -0.615947    15A     -0.593486
      16A     -0.567023    17A     -0.532807    18A     -0.486994
      19A     -0.477967    20A     -0.444161    21A     -0.443221

  @DF-RHF Final Energy:  -268.07267162751089

   => Energetics <=

    Nuclear Repulsion Energy =            185.0384344490022670
    One-Electron Energy =                -732.9533414471818560
    Two-Electron Energy =                 279.8422353706687318
    Total Energy =                       -268.0726716275108856
  Basis Set: (AUG-CC-PVTZ AUX)
    Blend: AUG-CC-PVTZ-RI
    Molecular point group: c1

    Geometry (in Angstrom), charge = 0, multiplicity = 1:

       Center              X                  Y                   Z               Mass
    ------------   -----------------  -----------------  -----------------  -----------------
         O           -2.368860564165    -0.393364867280     0.004040440634    15.994914619570
         O            2.448653435835    -0.256105867280    -0.084136559366    15.994914619570
         C           -0.000678564165    -0.316738867280    -0.025050559366    12.000000000000
         C           -1.306248764165     0.483630232720     0.024741240634    12.000000000000
         C            1.263325435835     0.529784132720     0.038362440634    12.000000000000
         H           -0.019845564165    -1.021701867280     0.815110440634     1.007825032230
         H            0.007863435835    -0.907085867280    -0.945827559366     1.007825032230
         H           -1.281326564165     1.130448132720     0.938164440634     1.007825032230
         H           -1.301764564165     1.199525132720    -0.835516559366     1.007825032230
         H            1.279690435835     1.124741132720     0.964311440634     1.007825032230
         H            1.298087435835     1.230320132720    -0.800594559366     1.007825032230
         H           -3.185296564165     0.133164132720     0.018792440634     1.007825032230
         H            2.455381435835    -0.877034867280     0.663651440634     1.007825032230

  Basis Set: AUG-CC-PVTZ
    Blend: AUG-CC-PVTZ
  Basis Set: (AUG-CC-PVTZ AUX)
    Blend: AUG-CC-PVTZ-JKFIT
	 Reference Energy          =    -268.0726716275108856 [Eh]
	 Singles Energy            =      -0.0000000000000000 [Eh]
	 Same-Spin Energy          =      -0.2582432280635399 [Eh]
	 Opposite-Spin Energy      =      -0.8574218382301386 [Eh]
	 Correlation Energy        =      -1.1156650662936785 [Eh]
	 Total Energy              =    -269.1883366938045583 [Eh]

	 ================> DF-SCS-MP2 Energies <==================
	-----------------------------------------------------------
	 SCS Same-Spin Scale       =       0.3333333333333333 [-]
	 SCS Opposite-Spin Scale   =       1.2000000000000000 [-]
	 SCS Same-Spin Energy      =      -0.0860810760211800 [Eh]
	 SCS Opposite-Spin Energy  =      -1.0289062058761662 [Eh]
	 SCS Correlation Energy    =      -1.1149872818973461 [Eh]
	 SCS Total Energy          =    -269.1876589094082419 [Eh]
	-----------------------------------------------------------

  Dipole Moment: [D]
     X:    -1.5530      Y:     1.3266      Z:     1.1663     Total:     2.3520

*** Psi4 exiting successfully. Buy a developer a beer!
