                               Psi4 1.4a3.dev225

  ==> Input File <==

--------------------------------------------------------------------------
#psi4
#
memory 32 gb

molecule  {
0 1
  O       -2.3655480    -0.4216410    -0.0057250
  O        2.4519660    -0.2843820    -0.0939020
  C        0.0026340    -0.3450150    -0.0348160
  C       -1.2489547     0.4999062     0.0160275
  C        1.2666380     0.5015080     0.0285970
  H       -0.0165330    -1.0499780     0.8053450
  H        0.0111760    -0.9353620    -0.9555930
  H       -1.2780140     1.1021720     0.9283990
  H       -1.2984520     1.1712490    -0.8452820
  H        1.2830030     1.0964650     0.9545460
  H        1.3014000     1.2020440    -0.8103600
  H       -3.1819840     0.1048880     0.0090270
  H        2.4586940    -0.9053110     0.6538860
units angstrom
no_reorient  #important for SAPT in psi4, default
symmetry c1  #important for SAPT in psi4, default
}

set PROPERTIES_ORIGIN ["COM"]
properties('MP2/aug-cc-pvtz', properties = ['dipole'])
--------------------------------------------------------------------------

    Molecular point group: c1
  Charge       = 0
  Multiplicity = 1
  Basis Set: AUG-CC-PVTZ
    Blend: AUG-CC-PVTZ
  Basis Set: (AUG-CC-PVTZ AUX)
    Blend: AUG-CC-PVTZ-JKFIT

    Orbital Energies [Eh]
    ---------------------

    Doubly Occupied:

       1A    -20.562642     2A    -20.559767     3A    -11.283260
       4A    -11.278885     5A    -11.223661     6A     -1.357028
       7A     -1.352787     8A     -1.053093     9A     -0.906574
      10A     -0.819816    11A     -0.703110    12A     -0.685314
      13A     -0.649126    14A     -0.611665    15A     -0.588983
      16A     -0.556588    17A     -0.529511    18A     -0.496786
      19A     -0.481999    20A     -0.453207    21A     -0.444327

  @DF-RHF Final Energy:  -268.07389742462942

   => Energetics <=

    Nuclear Repulsion Energy =            184.6999126977098911
    One-Electron Energy =                -732.3513664275237716
    Two-Electron Energy =                 279.5775563051844301
    Total Energy =                       -268.0738974246294219
  Basis Set: (AUG-CC-PVTZ AUX)
    Blend: AUG-CC-PVTZ-RI
    Molecular point group: c1

    Geometry (in Angstrom), charge = 0, multiplicity = 1:

       Center              X                  Y                   Z               Mass
    ------------   -----------------  -----------------  -----------------  -----------------
         O           -2.377378082991    -0.400394559869     0.003874497218    15.994914619570
         O            2.440135917009    -0.263135559869    -0.084302502782    15.994914619570
         C           -0.009196082991    -0.323768559869    -0.025216502782    12.000000000000
         C           -1.260784782991     0.521152640131     0.025626997218    12.000000000000
         C            1.254807917009     0.522754440131     0.038196497218    12.000000000000
         H           -0.028363082991    -1.028731559869     0.814944497218     1.007825032230
         H           -0.000654082991    -0.914115559869    -0.945993502782     1.007825032230
         H           -1.289844082991     1.123418440131     0.937998497218     1.007825032230
         H           -1.310282082991     1.192495440131    -0.835682502782     1.007825032230
         H            1.271172917009     1.117711440131     0.964145497218     1.007825032230
         H            1.289569917009     1.223290440131    -0.800760502782     1.007825032230
         H           -3.193814082991     0.126134440131     0.018626497218     1.007825032230
         H            2.446863917009    -0.884064559869     0.663485497218     1.007825032230

  Basis Set: AUG-CC-PVTZ
    Blend: AUG-CC-PVTZ
  Basis Set: (AUG-CC-PVTZ AUX)
    Blend: AUG-CC-PVTZ-JKFIT
	 Reference Energy          =    -268.0738974246294219 [Eh]
	 Singles Energy            =      -0.0000000000000000 [Eh]
	 Same-Spin Energy          =      -0.2583837640403516 [Eh]
	 Opposite-Spin Energy      =      -0.8584723709070444 [Eh]
	 Correlation Energy        =      -1.1168561349473960 [Eh]
	 Total Energy              =    -269.1907535595768195 [Eh]

	 ================> DF-SCS-MP2 Energies <==================
	-----------------------------------------------------------
	 SCS Same-Spin Scale       =       0.3333333333333333 [-]
	 SCS Opposite-Spin Scale   =       1.2000000000000000 [-]
	 SCS Same-Spin Energy      =      -0.0861279213467838 [Eh]
	 SCS Opposite-Spin Energy  =      -1.0301668450884534 [Eh]
	 SCS Correlation Energy    =      -1.1162947664352372 [Eh]
	 SCS Total Energy          =    -269.1901921910646820 [Eh]
	-----------------------------------------------------------

  Dipole Moment: [D]
     X:    -1.3127      Y:     1.4757      Z:     1.1709     Total:     2.2961

*** Psi4 exiting successfully. Buy a developer a beer!
