                               Psi4 1.3.2 release

  ==> Input File <==

--------------------------------------------------------------------------
#psi4
#
memory 32 gb

molecule  {
0 1
  O       -2.3650430    -0.4218480    -0.0057540
  O        2.4536110    -0.2813640    -0.0931210
  C        0.0022180    -0.3452320    -0.0325630
  C       -1.2635790     0.4876730     0.0156730
  C        1.2660220     0.5019220     0.0302860
  H       -0.0166520    -1.0502680     0.8082600
  H        0.0130480    -0.9372200    -0.9525790
  H       -1.2783560     1.1031170     0.9279430
  H       -1.2958190     1.1699640    -0.8466950
  H        1.2819000     1.0960400     0.9568030
  H        1.2985200     1.2029780    -0.8084410
  H       -3.0121715    -0.0018327    -0.0040276
  H        2.4407780    -0.9321410     0.6289100
units angstrom
no_reorient  #important for SAPT in psi4, default
symmetry c1  #important for SAPT in psi4, default
}

set PROPERTIES_ORIGIN ["COM"]
properties('MP2/aug-cc-pvtz', properties = ['dipole'])
--------------------------------------------------------------------------

    Molecular point group: c1
  Charge       = 0
  Multiplicity = 1
  Basis Set: AUG-CC-PVTZ
    Blend: AUG-CC-PVTZ
  Basis Set: (AUG-CC-PVTZ AUX)
    Blend: AUG-CC-PVTZ-JKFIT

    Orbital Energies [Eh]
    ---------------------

    Doubly Occupied:

       1A    -20.560304     2A    -20.543113     3A    -11.286595
       4A    -11.279413     5A    -11.225194     6A     -1.423006
       7A     -1.356811     8A     -1.060348     9A     -0.920025
      10A     -0.822296    11A     -0.741186    12A     -0.692268
      13A     -0.652184    14A     -0.615281    15A     -0.596070
      16A     -0.566202    17A     -0.532368    18A     -0.500355
      19A     -0.484457    20A     -0.457303    21A     -0.445789

  @DF-RHF Final Energy:  -268.02747796233552

   => Energetics <=

    Nuclear Repulsion Energy =            186.2011099224795885
    One-Electron Energy =                -734.9360403963223689
    Two-Electron Energy =                 280.7074525115071992
    Total Energy =                       -268.0274779623355244
  Basis Set: (AUG-CC-PVTZ AUX)
    Blend: AUG-CC-PVTZ-RI
    Molecular point group: c1

    Geometry (in Angstrom), charge = 0, multiplicity = 1:

       Center              X                  Y                   Z               Mass
    ------------   -----------------  -----------------  -----------------  -----------------
         O           -2.376868612901    -0.397497610122     0.003516113498    15.994914619570
         O            2.441785387099    -0.257013610122    -0.083850886502    15.994914619570
         C           -0.009607612901    -0.320881610122    -0.023292886502    12.000000000000
         C           -1.275404612901     0.512023389878     0.024943113498    12.000000000000
         C            1.254196387099     0.526272389878     0.039556113498    12.000000000000
         H           -0.028477612901    -1.025917610122     0.817530113498     1.007825032230
         H            0.001222387099    -0.912869610122    -0.943308886502     1.007825032230
         H           -1.290181612901     1.127467389878     0.937213113498     1.007825032230
         H           -1.307644612901     1.194314389878    -0.837424886502     1.007825032230
         H            1.270074387099     1.120390389878     0.966073113498     1.007825032230
         H            1.286694387099     1.227328389878    -0.799170886502     1.007825032230
         H           -3.023997112901     0.022517689878     0.005242513498     1.007825032230
         H            2.428952387099    -0.907790610122     0.638180113498     1.007825032230

  Basis Set: AUG-CC-PVTZ
    Blend: AUG-CC-PVTZ
  Basis Set: (AUG-CC-PVTZ AUX)
    Blend: AUG-CC-PVTZ-JKFIT
	 Reference Energy          =    -268.0274779623355244 [Eh]
	 Singles Energy            =      -0.0000000000000000 [Eh]
	 Same-Spin Energy          =      -0.2560987629764010 [Eh]
	 Opposite-Spin Energy      =      -0.8526725678693992 [Eh]
	 Correlation Energy        =      -1.1087713308458000 [Eh]
	 Total Energy              =    -269.1362492931813222 [Eh]

	 ================> DF-SCS-MP2 Energies <==================
	-----------------------------------------------------------
	 SCS Same-Spin Scale       =       0.3333333333333333 [-]
	 SCS Opposite-Spin Scale   =       1.2000000000000000 [-]
	 SCS Same-Spin Energy      =      -0.0853662543254670 [Eh]
	 SCS Opposite-Spin Energy  =      -1.0232070814432790 [Eh]
	 SCS Correlation Energy    =      -1.1085733357687459 [Eh]
	 SCS Total Energy          =    -269.1360512981042916 [Eh]
	-----------------------------------------------------------

  Dipole Moment: [D]
     X:    -1.2364      Y:     1.3462      Z:     1.1127     Total:     2.1399

*** Psi4 exiting successfully. Buy a developer a beer!
