                               Psi4 1.4a3.dev225

  ==> Input File <==

--------------------------------------------------------------------------
#psi4
#
memory 32 gb

molecule  {
0 1
  O       -2.3655480    -0.4216410    -0.0057250
  O        2.4519660    -0.2843820    -0.0939020
  C        0.0026340    -0.3450150    -0.0348160
  C       -1.2643780     0.4871770     0.0157270
  C        1.2666380     0.5015080     0.0285970
  H       -0.0165330    -1.0499780     0.8053450
  H        0.0111760    -0.9353620    -0.9555930
  H       -1.2780140     1.1021720     0.9283990
  H       -1.2984520     1.1712490    -0.8452820
  H        1.2830030     1.0964650     0.9545460
  H        1.3014000     1.2020440    -0.8103600
  H       -3.1651781     0.0940497     0.0087233
  H        2.4586940    -0.9053110     0.6538860
units angstrom
no_reorient  #important for SAPT in psi4, default
symmetry c1  #important for SAPT in psi4, default
}

set PROPERTIES_ORIGIN ["COM"]
properties('MP2/aug-cc-pvtz', properties = ['dipole'])
--------------------------------------------------------------------------

    Molecular point group: c1
  Charge       = 0
  Multiplicity = 1
  Basis Set: AUG-CC-PVTZ
    Blend: AUG-CC-PVTZ
  Basis Set: (AUG-CC-PVTZ AUX)
    Blend: AUG-CC-PVTZ-JKFIT

    Orbital Energies [Eh]
    ---------------------

    Doubly Occupied:

       1A    -20.562897     2A    -20.559668     3A    -11.283799
       4A    -11.278678     5A    -11.223381     6A     -1.365779
       7A     -1.356260     8A     -1.051744     9A     -0.907114
      10A     -0.818867    11A     -0.708546    12A     -0.688237
      13A     -0.649152    14A     -0.612580    15A     -0.590570
      16A     -0.560420    17A     -0.530737    18A     -0.494285
      19A     -0.481817    20A     -0.451369    21A     -0.444438

  @DF-RHF Final Energy:  -268.07538216457067

   => Energetics <=

    Nuclear Repulsion Energy =            184.9087727543164021
    One-Electron Energy =                -732.7276336250919258
    Two-Electron Energy =                 279.7434787062048827
    Total Energy =                       -268.0753821645706694
  Basis Set: (AUG-CC-PVTZ AUX)
    Blend: AUG-CC-PVTZ-RI
    Molecular point group: c1

    Geometry (in Angstrom), charge = 0, multiplicity = 1:

       Center              X                  Y                   Z               Mass
    ------------   -----------------  -----------------  -----------------  -----------------
         O           -2.375167210907    -0.398242445714     0.003925936422    15.994914619570
         O            2.442346789093    -0.260983445714    -0.084251063578    15.994914619570
         C           -0.006985210907    -0.321616445714    -0.025165063578    12.000000000000
         C           -1.273997210907     0.510575554286     0.025377936422    12.000000000000
         C            1.257018789093     0.524906554286     0.038247936422    12.000000000000
         H           -0.026152210907    -1.026579445714     0.814995936422     1.007825032230
         H            0.001556789093    -0.911963445714    -0.945942063578     1.007825032230
         H           -1.287633210907     1.125570554286     0.938049936422     1.007825032230
         H           -1.308071210907     1.194647554286    -0.835631063578     1.007825032230
         H            1.273383789093     1.119863554286     0.964196936422     1.007825032230
         H            1.291780789093     1.225442554286    -0.800709063578     1.007825032230
         H           -3.174797310907     0.117448254286     0.018374236422     1.007825032230
         H            2.449074789093    -0.881912445714     0.663536936422     1.007825032230

  Basis Set: AUG-CC-PVTZ
    Blend: AUG-CC-PVTZ
  Basis Set: (AUG-CC-PVTZ AUX)
    Blend: AUG-CC-PVTZ-JKFIT
	 Reference Energy          =    -268.0753821645706694 [Eh]
	 Singles Energy            =      -0.0000000000000000 [Eh]
	 Same-Spin Energy          =      -0.2580874984527003 [Eh]
	 Opposite-Spin Energy      =      -0.8575058732046164 [Eh]
	 Correlation Energy        =      -1.1155933716573165 [Eh]
	 Total Energy              =    -269.1909755362279952 [Eh]

	 ================> DF-SCS-MP2 Energies <==================
	-----------------------------------------------------------
	 SCS Same-Spin Scale       =       0.3333333333333333 [-]
	 SCS Opposite-Spin Scale   =       1.2000000000000000 [-]
	 SCS Same-Spin Energy      =      -0.0860291661509001 [Eh]
	 SCS Opposite-Spin Energy  =      -1.0290070478455395 [Eh]
	 SCS Correlation Energy    =      -1.1150362139964396 [Eh]
	 SCS Total Energy          =    -269.1904183785671307 [Eh]
	-----------------------------------------------------------

  Dipole Moment: [D]
     X:    -1.3639      Y:     1.4307      Z:     1.1696     Total:     2.2968

*** Psi4 exiting successfully. Buy a developer a beer!
