                               Psi4 1.3.2 release

  ==> Input File <==

--------------------------------------------------------------------------
#psi4
#
memory 32 gb

molecule  {
0 1
  O       -2.3650430    -0.4218480    -0.0057540
  O        2.4536110    -0.2813640    -0.0931210
  C        0.0022180    -0.3452320    -0.0325630
  C       -1.2796235     0.5067577     0.0158459
  C        1.2660220     0.5019220     0.0302860
  H       -0.0166520    -1.0502680     0.8082600
  H        0.0130480    -0.9372200    -0.9525790
  H       -1.2783560     1.1031170     0.9279430
  H       -1.2958190     1.1699640    -0.8466950
  H        1.2819000     1.0960400     0.9568030
  H        1.2985200     1.2029780    -0.8084410
  H       -3.1705790     0.1211910    -0.0033018
  H        2.4407780    -0.9321410     0.6289100
units angstrom
no_reorient  #important for SAPT in psi4, default
symmetry c1  #important for SAPT in psi4, default
}

set PROPERTIES_ORIGIN ["COM"]
properties('MP2/aug-cc-pvtz', properties = ['dipole'])
--------------------------------------------------------------------------

    Molecular point group: c1
  Charge       = 0
  Multiplicity = 1
  Basis Set: AUG-CC-PVTZ
    Blend: AUG-CC-PVTZ
  Basis Set: (AUG-CC-PVTZ AUX)
    Blend: AUG-CC-PVTZ-JKFIT

    Orbital Energies [Eh]
    ---------------------

    Doubly Occupied:

       1A    -20.566192     2A    -20.559018     3A    -11.282921
       4A    -11.277847     5A    -11.224249     6A     -1.362783
       7A     -1.355329     8A     -1.047168     9A     -0.905707
      10A     -0.820004    11A     -0.704498    12A     -0.686259
      13A     -0.649903    14A     -0.611040    15A     -0.590833
      16A     -0.561065    17A     -0.529907    18A     -0.492696
      19A     -0.479405    20A     -0.455564    21A     -0.442675

  @DF-RHF Final Energy:  -268.07352973294940

   => Energetics <=

    Nuclear Repulsion Energy =            184.5650380112486744
    One-Electron Energy =                -732.0670104861239906
    Two-Electron Energy =                 279.4284427419258918
    Total Energy =                       -268.0735297329493960
  Basis Set: (AUG-CC-PVTZ AUX)
    Blend: AUG-CC-PVTZ-RI
    Molecular point group: c1

    Geometry (in Angstrom), charge = 0, multiplicity = 1:

       Center              X                  Y                   Z               Mass
    ------------   -----------------  -----------------  -----------------  -----------------
         O           -2.372237846387    -0.402139181296     0.003479214225    15.994914619570
         O            2.446416153613    -0.261655181296    -0.083887785775    15.994914619570
         C           -0.004976846387    -0.325523181296    -0.023329785775    12.000000000000
         C           -1.286818346387     0.526466518704     0.025079114225    12.000000000000
         C            1.258827153613     0.521630818704     0.039519214225    12.000000000000
         H           -0.023846846387    -1.030559181296     0.817493214225     1.007825032230
         H            0.005853153613    -0.917511181296    -0.943345785775     1.007825032230
         H           -1.285550846387     1.122825818704     0.937176214225     1.007825032230
         H           -1.303013846387     1.189672818704    -0.837461785775     1.007825032230
         H            1.274705153613     1.115748818704     0.966036214225     1.007825032230
         H            1.291325153613     1.222686818704    -0.799207785775     1.007825032230
         H           -3.177773846387     0.140899818704     0.005931414225     1.007825032230
         H            2.433583153613    -0.912432181296     0.638143214225     1.007825032230

  Basis Set: AUG-CC-PVTZ
    Blend: AUG-CC-PVTZ
  Basis Set: (AUG-CC-PVTZ AUX)
    Blend: AUG-CC-PVTZ-JKFIT
	 Reference Energy          =    -268.0735297329493960 [Eh]
	 Singles Energy            =      -0.0000000000000000 [Eh]
	 Same-Spin Energy          =      -0.2582998466141164 [Eh]
	 Opposite-Spin Energy      =      -0.8583076104358571 [Eh]
	 Correlation Energy        =      -1.1166074570499736 [Eh]
	 Total Energy              =    -269.1901371899993478 [Eh]

	 ================> DF-SCS-MP2 Energies <==================
	-----------------------------------------------------------
	 SCS Same-Spin Scale       =       0.3333333333333333 [-]
	 SCS Opposite-Spin Scale   =       1.2000000000000000 [-]
	 SCS Same-Spin Energy      =      -0.0860999488713721 [Eh]
	 SCS Opposite-Spin Energy  =      -1.0299691325230285 [Eh]
	 SCS Correlation Energy    =      -1.1160690813944005 [Eh]
	 SCS Total Energy          =    -269.1895988143438103 [Eh]
	-----------------------------------------------------------

  Dipole Moment: [D]
     X:    -1.4392      Y:     1.4306      Z:     1.1115     Total:     2.3137

*** Psi4 exiting successfully. Buy a developer a beer!
