                               Psi4 1.3.2 release

  ==> Input File <==

--------------------------------------------------------------------------
#psi4
#
memory 32 gb

molecule  {
0 1
  O       -2.3650430    -0.4218480    -0.0057540
  O        2.4536110    -0.2813640    -0.0931210
  C        0.0022180    -0.3452320    -0.0325630
  C       -1.2635790     0.4876730     0.0156730
  C        1.2660220     0.5019220     0.0302860
  H       -0.0166520    -1.0502680     0.8082600
  H        0.0130480    -0.9372200    -0.9525790
  H       -1.2783560     1.1031170     0.9279430
  H       -1.2958190     1.1699640    -0.8466950
  H        1.2819000     1.0960400     0.9568030
  H        1.2985200     1.2029780    -0.8084410
  H       -3.2638137     0.1614944    -0.0033562
  H        2.4407780    -0.9321410     0.6289100
units angstrom
no_reorient  #important for SAPT in psi4, default
symmetry c1  #important for SAPT in psi4, default
}

set PROPERTIES_ORIGIN ["COM"]
properties('MP2/aug-cc-pvtz', properties = ['dipole'])
--------------------------------------------------------------------------

    Molecular point group: c1
  Charge       = 0
  Multiplicity = 1
  Basis Set: AUG-CC-PVTZ
    Blend: AUG-CC-PVTZ
  Basis Set: (AUG-CC-PVTZ AUX)
    Blend: AUG-CC-PVTZ-JKFIT

    Orbital Energies [Eh]
    ---------------------

    Doubly Occupied:

       1A    -20.573330     2A    -20.559396     3A    -11.282805
       4A    -11.278486     5A    -11.223444     6A     -1.356034
       7A     -1.342480     8A     -1.048446     9A     -0.901336
      10A     -0.817985    11A     -0.697073    12A     -0.675922
      13A     -0.645969    14A     -0.611129    15A     -0.589314
      16A     -0.556564    17A     -0.528814    18A     -0.491297
      19A     -0.480001    20A     -0.449237    21A     -0.443385

  @DF-RHF Final Energy:  -268.06105965326140

   => Energetics <=

    Nuclear Repulsion Energy =            184.2588024766326669
    One-Electron Energy =                -731.5348284591266292
    Two-Electron Energy =                 279.2149663292325386
    Total Energy =                       -268.0610596532613954
  Basis Set: (AUG-CC-PVTZ AUX)
    Blend: AUG-CC-PVTZ-RI
    Molecular point group: c1

    Geometry (in Angstrom), charge = 0, multiplicity = 1:

       Center              X                  Y                   Z               Mass
    ------------   -----------------  -----------------  -----------------  -----------------
         O           -2.373533922477    -0.399661974113     0.003507216298    15.994914619570
         O            2.445120077523    -0.259177974113    -0.083859783702    15.994914619570
         C           -0.006272922477    -0.323045974113    -0.023301783702    12.000000000000
         C           -1.272069922477     0.509859025887     0.024934216298    12.000000000000
         C            1.257531077523     0.524108025887     0.039547216298    12.000000000000
         H           -0.025142922477    -1.028081974113     0.817521216298     1.007825032230
         H            0.004557077523    -0.915033974113    -0.943317783702     1.007825032230
         H           -1.286846922477     1.125303025887     0.937204216298     1.007825032230
         H           -1.304309922477     1.192150025887    -0.837433783702     1.007825032230
         H            1.273409077523     1.118226025887     0.966064216298     1.007825032230
         H            1.290029077523     1.225164025887    -0.799179783702     1.007825032230
         H           -3.272304622477     0.183680425887     0.005905016298     1.007825032230
         H            2.432287077523    -0.909954974113     0.638171216298     1.007825032230

  Basis Set: AUG-CC-PVTZ
    Blend: AUG-CC-PVTZ
  Basis Set: (AUG-CC-PVTZ AUX)
    Blend: AUG-CC-PVTZ-JKFIT
	 Reference Energy          =    -268.0610596532613954 [Eh]
	 Singles Energy            =      -0.0000000000000000 [Eh]
	 Same-Spin Energy          =      -0.2594227198555734 [Eh]
	 Opposite-Spin Energy      =      -0.8613908791878973 [Eh]
	 Correlation Energy        =      -1.1208135990434707 [Eh]
	 Total Energy              =    -269.1818732523048538 [Eh]

	 ================> DF-SCS-MP2 Energies <==================
	-----------------------------------------------------------
	 SCS Same-Spin Scale       =       0.3333333333333333 [-]
	 SCS Opposite-Spin Scale   =       1.2000000000000000 [-]
	 SCS Same-Spin Energy      =      -0.0864742399518578 [Eh]
	 SCS Opposite-Spin Energy  =      -1.0336690550254766 [Eh]
	 SCS Correlation Energy    =      -1.1201432949773344 [Eh]
	 SCS Total Energy          =    -269.1812029482387061 [Eh]
	-----------------------------------------------------------

  Dipole Moment: [D]
     X:    -1.4819      Y:     1.4247      Z:     1.1111     Total:     2.3367

*** Psi4 exiting successfully. Buy a developer a beer!
