                               Psi4 1.3.2 release

  ==> Input File <==

--------------------------------------------------------------------------
#psi4
#
memory 32 gb

molecule  {
0 1
  O       -2.3650430    -0.4218480    -0.0057540
  O        2.4536110    -0.2813640    -0.0931210
  C        0.0022180    -0.3452320    -0.0325630
  C       -1.2488264     0.5095843     0.0172016
  C        1.2510047     0.5238069     0.0316520
  H       -0.0166520    -1.0502680     0.8082600
  H        0.0130480    -0.9372200    -0.9525790
  H       -1.2783560     1.1031170     0.9279430
  H       -1.2958190     1.1699640    -0.8466950
  H        1.2819000     1.0960400     0.9568030
  H        1.2985200     1.2029780    -0.8084410
  H       -3.1799330     0.1070520    -0.0035800
  H        2.4407780    -0.9321410     0.6289100
units angstrom
no_reorient  #important for SAPT in psi4, default
symmetry c1  #important for SAPT in psi4, default
}

set PROPERTIES_ORIGIN ["COM"]
properties('MP2/aug-cc-pvtz', properties = ['dipole'])
--------------------------------------------------------------------------

    Molecular point group: c1
  Charge       = 0
  Multiplicity = 1
  Basis Set: AUG-CC-PVTZ
    Blend: AUG-CC-PVTZ
  Basis Set: (AUG-CC-PVTZ AUX)
    Blend: AUG-CC-PVTZ-JKFIT

    Orbital Energies [Eh]
    ---------------------

    Doubly Occupied:

       1A    -20.562662     2A    -20.556669     3A    -11.283301
       4A    -11.278219     5A    -11.225201     6A     -1.351995
       7A     -1.345918     8A     -1.054098     9A     -0.907895
      10A     -0.821651    11A     -0.699982    12A     -0.685163
      13A     -0.647663    14A     -0.607531    15A     -0.588174
      16A     -0.555253    17A     -0.526467    18A     -0.499249
      19A     -0.484615    20A     -0.455725    21A     -0.445069

  @DF-RHF Final Energy:  -268.07240869373896

   => Energetics <=

    Nuclear Repulsion Energy =            184.4198418352935391
    One-Electron Energy =                -731.8194968816919754
    Two-Electron Energy =                 279.3272463526595288
    Total Energy =                       -268.0724086937389643
  Basis Set: (AUG-CC-PVTZ AUX)
    Blend: AUG-CC-PVTZ-RI
    Molecular point group: c1

    Geometry (in Angstrom), charge = 0, multiplicity = 1:

       Center              X                  Y                   Z               Mass
    ------------   -----------------  -----------------  -----------------  -----------------
         O           -2.374603719586    -0.405850941245     0.003053455005    15.994914619570
         O            2.444050280414    -0.265366941245    -0.084313544995    15.994914619570
         C           -0.007342719586    -0.329234941245    -0.023755544995    12.000000000000
         C           -1.258387119586     0.525581358755     0.026009055005    12.000000000000
         C            1.241443980414     0.539803958755     0.040459455005    12.000000000000
         H           -0.026212719586    -1.034270941245     0.817067455005     1.007825032230
         H            0.003487280414    -0.921222941245    -0.943771544995     1.007825032230
         H           -1.287916719586     1.119114058755     0.936750455005     1.007825032230
         H           -1.305379719586     1.185961058755    -0.837887544995     1.007825032230
         H            1.272339280414     1.112037058755     0.965610455005     1.007825032230
         H            1.288959280414     1.218975058755    -0.799633544995     1.007825032230
         H           -3.189493719586     0.123049058755     0.005227455005     1.007825032230
         H            2.431217280414    -0.916143941245     0.637717455005     1.007825032230

  Basis Set: AUG-CC-PVTZ
    Blend: AUG-CC-PVTZ
  Basis Set: (AUG-CC-PVTZ AUX)
    Blend: AUG-CC-PVTZ-JKFIT
	 Reference Energy          =    -268.0724086937389643 [Eh]
	 Singles Energy            =      -0.0000000000000000 [Eh]
	 Same-Spin Energy          =      -0.2584272458342993 [Eh]
	 Opposite-Spin Energy      =      -0.8590091941744826 [Eh]
	 Correlation Energy        =      -1.1174364400087820 [Eh]
	 Total Energy              =    -269.1898451337477240 [Eh]

	 ================> DF-SCS-MP2 Energies <==================
	-----------------------------------------------------------
	 SCS Same-Spin Scale       =       0.3333333333333333 [-]
	 SCS Opposite-Spin Scale   =       1.2000000000000000 [-]
	 SCS Same-Spin Energy      =      -0.0861424152780998 [Eh]
	 SCS Opposite-Spin Energy  =      -1.0308110330093792 [Eh]
	 SCS Correlation Energy    =      -1.1169534482874790 [Eh]
	 SCS Total Energy          =    -269.1893621420264253 [Eh]
	-----------------------------------------------------------

  Dipole Moment: [D]
     X:    -1.4176      Y:     1.5097      Z:     1.1209     Total:     2.3548

*** Psi4 exiting successfully. Buy a developer a beer!
