                               Psi4 1.3.2 release

  ==> Input File <==

--------------------------------------------------------------------------
#psi4
#
memory 32 gb

molecule  {
0 1
  S        2.3127110    -1.0235480     0.0053950
  N       -0.6038690    -1.4671430     0.0025680
  N        1.5465020     1.4501510    -0.0053670
  C       -2.6591070     0.4777660    -0.0131840
  C       -0.3303560    -0.1463500    -0.0014890
  C       -1.3149260     0.8499960    -0.0079370
  C        1.0885480     0.2076610    -0.0012920
  C       -2.9473560    -0.8932820    -0.0075970
  C       -3.7562130     1.5070280     0.0143710
  C       -1.9011700    -1.8146870    -0.0009620
  C        3.5068880     0.2049870     0.0025490
  C        2.9141540     1.4483870    -0.0033310
  H       -1.0097250     1.8934330    -0.0150530
  H       -3.9776190    -1.2428240    -0.0150370
  H       -4.0970980     1.6828510     1.0402330
  H       -3.4086480     2.4606730    -0.3912090
  H       -4.6191930     1.1768790    -0.5707550
  H       -2.1040920    -2.8844300    -0.0003970
  H        4.5634156    -0.0331228    -0.2450198
  H        3.4487670     2.3922440    -0.0062430
units angstrom
no_reorient  #important for SAPT in psi4, default
symmetry c1  #important for SAPT in psi4, default
}

set PROPERTIES_ORIGIN ["COM"]
properties('MP2/aug-cc-pvtz', properties = ['dipole'])
--------------------------------------------------------------------------

    Molecular point group: c1
  Charge       = 0
  Multiplicity = 1
  Basis Set: AUG-CC-PVTZ
    Blend: AUG-CC-PVTZ
  Basis Set: (AUG-CC-PVTZ AUX)
    Blend: AUG-CC-PVTZ-JKFIT

    Orbital Energies [Eh]
    ---------------------

    Doubly Occupied:

       1A    -91.993552     2A    -15.572652     3A    -15.572206
       4A    -11.312368     5A    -11.294178     6A    -11.282136
       7A    -11.271850     8A    -11.269405     9A    -11.265070
      10A    -11.243747    11A    -11.242324    12A    -11.239980
      13A     -8.993567    14A     -6.674330    15A     -6.673765
      16A     -6.673110    17A     -1.285139    18A     -1.256910
      19A     -1.114149    20A     -1.065065    21A     -1.060182
      22A     -0.984406    23A     -0.972536    24A     -0.872174
      25A     -0.843625    26A     -0.781547    27A     -0.749704
      28A     -0.695614    29A     -0.679179    30A     -0.670095
      31A     -0.634252    32A     -0.596184    33A     -0.587889
      34A     -0.575685    35A     -0.566517    36A     -0.561842
      37A     -0.546177    38A     -0.525836    39A     -0.514723
      40A     -0.500439    41A     -0.441469    42A     -0.421459
      43A     -0.393207    44A     -0.381868    45A     -0.366574
      46A     -0.305241

  @DF-RHF Final Energy:  -852.05801453183858

   => Energetics <=

    Nuclear Repulsion Energy =            720.2480665934086801
    One-Electron Energy =               -2595.5643067484106723
    Two-Electron Energy =                1023.2582256231635256
    Total Energy =                       -852.0580145318385803
  Basis Set: (AUG-CC-PVTZ AUX)
    Blend: AUG-CC-PVTZ-RI
    Molecular point group: c1

    Geometry (in Angstrom), charge = 0, multiplicity = 1:

       Center              X                  Y                   Z               Mass
    ------------   -----------------  -----------------  -----------------  -----------------
         S            2.249909663217    -0.993006778061     0.007089165733    31.972071174400
         N           -0.666670336783    -1.436601778061     0.004262165733    14.003074004430
         N            1.483700663217     1.480692221939    -0.003672834267    14.003074004430
         C           -2.721908336783     0.508307221939    -0.011489834267    12.000000000000
         C           -0.393157336783    -0.115808778061     0.000205165733    12.000000000000
         C           -1.377727336783     0.880537221939    -0.006242834267    12.000000000000
         C            1.025746663217     0.238202221939     0.000402165733    12.000000000000
         C           -3.010157336783    -0.862740778061    -0.005902834267    12.000000000000
         C           -3.819014336783     1.537569221939     0.016065165733    12.000000000000
         C           -1.963971336783    -1.784145778061     0.000732165733    12.000000000000
         C            3.444086663217     0.235528221939     0.004243165733    12.000000000000
         C            2.851352663217     1.478928221939    -0.001636834267    12.000000000000
         H           -1.072526336783     1.923974221939    -0.013358834267     1.007825032230
         H           -4.040420336783    -1.212282778061    -0.013342834267     1.007825032230
         H           -4.159899336783     1.713392221939     1.041927165733     1.007825032230
         H           -3.471449336783     2.491214221939    -0.389514834267     1.007825032230
         H           -4.681994336783     1.207420221939    -0.569060834267     1.007825032230
         H           -2.166893336783    -2.853888778061     0.001297165733     1.007825032230
         H            4.500614263217    -0.002581578061    -0.243325634267     1.007825032230
         H            3.385965663217     2.422785221939    -0.004548834267     1.007825032230

  Basis Set: AUG-CC-PVTZ
    Blend: AUG-CC-PVTZ
  Basis Set: (AUG-CC-PVTZ AUX)
    Blend: AUG-CC-PVTZ-JKFIT
	 Reference Energy          =    -852.0580145318385803 [Eh]
	 Singles Energy            =      -0.0000000000000000 [Eh]
	 Same-Spin Energy          =      -0.5693491915094524 [Eh]
	 Opposite-Spin Energy      =      -1.7096760571519396 [Eh]
	 Correlation Energy        =      -2.2790252486613918 [Eh]
	 Total Energy              =    -854.3370397804999357 [Eh]

	 ================> DF-SCS-MP2 Energies <==================
	-----------------------------------------------------------
	 SCS Same-Spin Scale       =       0.3333333333333333 [-]
	 SCS Opposite-Spin Scale   =       1.2000000000000000 [-]
	 SCS Same-Spin Energy      =      -0.1897830638364841 [Eh]
	 SCS Opposite-Spin Energy  =      -2.0516112685823273 [Eh]
	 SCS Correlation Energy    =      -2.2413943324188113 [Eh]
	 SCS Total Energy          =    -854.2994088642574297 [Eh]
	-----------------------------------------------------------

  Dipole Moment: [D]
     X:    -1.3337      Y:     0.4080      Z:    -0.1547     Total:     1.4032

*** Psi4 exiting successfully. Buy a developer a beer!
