                               Psi4 1.3.2 release

  ==> Input File <==

--------------------------------------------------------------------------
#psi4
#
memory 32 gb

molecule  {
0 1
  S        2.3127110    -1.0235480     0.0053950
  N       -0.6038690    -1.4671430     0.0025680
  N        1.5465020     1.4501510    -0.0053670
  C       -2.6591070     0.4777660    -0.0131840
  C       -0.3303560    -0.1463500    -0.0014890
  C       -1.3149260     0.8499960    -0.0079370
  C        1.0885480     0.2076610    -0.0012920
  C       -2.9473560    -0.8932820    -0.0075970
  C       -3.7562130     1.5070280     0.0143710
  C       -1.9011700    -1.8146870    -0.0009620
  C        3.5068880     0.2049870     0.0025490
  C        2.9141540     1.4483870    -0.0033310
  H       -1.0097250     1.8934330    -0.0150530
  H       -3.9776190    -1.2428240    -0.0150370
  H       -4.0970980     1.6828510     1.0402330
  H       -3.4086480     2.4606730    -0.3912090
  H       -4.6191930     1.1768790    -0.5707550
  H       -2.1040920    -2.8844300    -0.0003970
  H        4.5630320    -0.0321470     0.0049780
  H        3.4486160     2.3926419     0.0937561
units angstrom
no_reorient  #important for SAPT in psi4, default
symmetry c1  #important for SAPT in psi4, default
}

set PROPERTIES_ORIGIN ["COM"]
properties('MP2/aug-cc-pvtz', properties = ['dipole'])
--------------------------------------------------------------------------

    Molecular point group: c1
  Charge       = 0
  Multiplicity = 1
  Basis Set: AUG-CC-PVTZ
    Blend: AUG-CC-PVTZ
  Basis Set: (AUG-CC-PVTZ AUX)
    Blend: AUG-CC-PVTZ-JKFIT

    Orbital Energies [Eh]
    ---------------------

    Doubly Occupied:

       1A    -91.993835     2A    -15.572467     3A    -15.571933
       4A    -11.311784     5A    -11.294005     6A    -11.281934
       7A    -11.271640     8A    -11.268854     9A    -11.263485
      10A    -11.243454    11A    -11.242012    12A    -11.239810
      13A     -8.993825    14A     -6.674590    15A     -6.674039
      16A     -6.673378    17A     -1.284816    18A     -1.256636
      19A     -1.113918    20A     -1.065337    21A     -1.060317
      22A     -0.984287    23A     -0.972413    24A     -0.871960
      25A     -0.843916    26A     -0.783692    27A     -0.749508
      28A     -0.697376    29A     -0.678961    30A     -0.671243
      31A     -0.633793    32A     -0.595934    33A     -0.587405
      34A     -0.572804    35A     -0.571135    36A     -0.561763
      37A     -0.547026    38A     -0.526518    39A     -0.515132
      40A     -0.500116    41A     -0.441290    42A     -0.421280
      43A     -0.393591    44A     -0.381634    45A     -0.366353
      46A     -0.305013

  @DF-RHF Final Energy:  -852.06094247216231

   => Energetics <=

    Nuclear Repulsion Energy =            720.3416142651620930
    One-Electron Energy =               -2595.7526914210548057
    Two-Electron Energy =                1023.3501346837302890
    Total Energy =                       -852.0609424721623100
  Basis Set: (AUG-CC-PVTZ AUX)
    Blend: AUG-CC-PVTZ-RI
    Molecular point group: c1

    Geometry (in Angstrom), charge = 0, multiplicity = 1:

       Center              X                  Y                   Z               Mass
    ------------   -----------------  -----------------  -----------------  -----------------
         S            2.249912723776    -0.993014642426     0.005085450696    31.972071174400
         N           -0.666667276224    -1.436609642426     0.002258450696    14.003074004430
         N            1.483703723776     1.480684357574    -0.005676549304    14.003074004430
         C           -2.721905276224     0.508299357574    -0.013493549304    12.000000000000
         C           -0.393154276224    -0.115816642426    -0.001798549304    12.000000000000
         C           -1.377724276224     0.880529357574    -0.008246549304    12.000000000000
         C            1.025749723776     0.238194357574    -0.001601549304    12.000000000000
         C           -3.010154276224    -0.862748642426    -0.007906549304    12.000000000000
         C           -3.819011276224     1.537561357574     0.014061450696    12.000000000000
         C           -1.963968276224    -1.784153642426    -0.001271549304    12.000000000000
         C            3.444089723776     0.235520357574     0.002239450696    12.000000000000
         C            2.851355723776     1.478920357574    -0.003640549304    12.000000000000
         H           -1.072523276224     1.923966357574    -0.015362549304     1.007825032230
         H           -4.040417276224    -1.212290642426    -0.015346549304     1.007825032230
         H           -4.159896276224     1.713384357574     1.039923450696     1.007825032230
         H           -3.471446276224     2.491206357574    -0.391518549304     1.007825032230
         H           -4.681991276224     1.207412357574    -0.571064549304     1.007825032230
         H           -2.166890276224    -2.853896642426    -0.000706549304     1.007825032230
         H            4.500233723776    -0.001613642426     0.004668450696     1.007825032230
         H            3.385817723776     2.423175257574     0.093446550696     1.007825032230

  Basis Set: AUG-CC-PVTZ
    Blend: AUG-CC-PVTZ
  Basis Set: (AUG-CC-PVTZ AUX)
    Blend: AUG-CC-PVTZ-JKFIT
	 Reference Energy          =    -852.0609424721623100 [Eh]
	 Singles Energy            =      -0.0000000000000000 [Eh]
	 Same-Spin Energy          =      -0.5691830495769878 [Eh]
	 Opposite-Spin Energy      =      -1.7093384396497981 [Eh]
	 Correlation Energy        =      -2.2785214892267858 [Eh]
	 Total Energy              =    -854.3394639613891286 [Eh]

	 ================> DF-SCS-MP2 Energies <==================
	-----------------------------------------------------------
	 SCS Same-Spin Scale       =       0.3333333333333333 [-]
	 SCS Opposite-Spin Scale   =       1.2000000000000000 [-]
	 SCS Same-Spin Energy      =      -0.1897276831923293 [Eh]
	 SCS Opposite-Spin Energy  =      -2.0512061275797575 [Eh]
	 SCS Correlation Energy    =      -2.2409338107720869 [Eh]
	 SCS Total Energy          =    -854.3018762829343586 [Eh]
	-----------------------------------------------------------

  Dipole Moment: [D]
     X:    -1.2869      Y:     0.3881      Z:     0.1154     Total:     1.3491

*** Psi4 exiting successfully. Buy a developer a beer!
