                               Psi4 1.3.2 release

  ==> Input File <==

--------------------------------------------------------------------------
#psi4
#
memory 32 gb

molecule  {
0 1
  S        2.3127110    -1.0235480     0.0053950
  N       -0.6038690    -1.4671430     0.0025680
  N        1.5465020     1.4501510    -0.0053670
  C       -2.6591070     0.4777660    -0.0131840
  C       -0.3303560    -0.1463500    -0.0014890
  C       -1.3149260     0.8499960    -0.0079370
  C        1.0885480     0.2076610    -0.0012920
  C       -2.9473560    -0.8932820    -0.0075970
  C       -3.7562130     1.5070280     0.0143710
  C       -1.9011700    -1.8146870    -0.0009620
  C        3.5068880     0.2049870     0.0025490
  C        2.9141540     1.4483870    -0.0033310
  H       -1.0097250     1.8934330    -0.0150530
  H       -3.9776190    -1.2428240    -0.0150370
  H       -4.0970980     1.6828510     1.0402330
  H       -3.4086480     2.4606730    -0.3912090
  H       -4.6191930     1.1768790    -0.5707550
  H       -2.1040920    -2.8844300    -0.0003970
  H        4.5631087    -0.0323422    -0.0450216
  H        3.4487670     2.3922440    -0.0062430
units angstrom
no_reorient  #important for SAPT in psi4, default
symmetry c1  #important for SAPT in psi4, default
}

set PROPERTIES_ORIGIN ["COM"]
properties('MP2/aug-cc-pvtz', properties = ['dipole'])
--------------------------------------------------------------------------

    Molecular point group: c1
  Charge       = 0
  Multiplicity = 1
  Basis Set: AUG-CC-PVTZ
    Blend: AUG-CC-PVTZ
  Basis Set: (AUG-CC-PVTZ AUX)
    Blend: AUG-CC-PVTZ-JKFIT

    Orbital Energies [Eh]
    ---------------------

    Doubly Occupied:

       1A    -91.993758     2A    -15.572444     3A    -15.571917
       4A    -11.311771     5A    -11.293990     6A    -11.281922
       7A    -11.271630     8A    -11.268519     9A    -11.263418
      10A    -11.243445    11A    -11.242004    12A    -11.239805
      13A     -8.993747    14A     -6.674513    15A     -6.673961
      16A     -6.673300    17A     -1.284798    18A     -1.256622
      19A     -1.113909    20A     -1.065293    21A     -1.060281
      22A     -0.984392    23A     -0.972415    24A     -0.872026
      25A     -0.843878    26A     -0.783860    27A     -0.749615
      28A     -0.697377    29A     -0.679062    30A     -0.671321
      31A     -0.634037    32A     -0.595895    33A     -0.587548
      34A     -0.573047    35A     -0.570931    36A     -0.561786
      37A     -0.547000    38A     -0.526400    39A     -0.515093
      40A     -0.500465    41A     -0.441277    42A     -0.421257
      43A     -0.393535    44A     -0.381669    45A     -0.366378
      46A     -0.304999

  @DF-RHF Final Energy:  -852.06142885810152

   => Energetics <=

    Nuclear Repulsion Energy =            720.3549954902628087
    One-Electron Energy =               -2595.7802285786951870
    Two-Electron Energy =                1023.3638042303308566
    Total Energy =                       -852.0614288581015217
  Basis Set: (AUG-CC-PVTZ AUX)
    Blend: AUG-CC-PVTZ-RI
    Molecular point group: c1

    Geometry (in Angstrom), charge = 0, multiplicity = 1:

       Center              X                  Y                   Z               Mass
    ------------   -----------------  -----------------  -----------------  -----------------
         S            2.249911420205    -0.993011246958     0.005944185876    31.972071174400
         N           -0.666668579795    -1.436606246958     0.003117185876    14.003074004430
         N            1.483702420205     1.480687753042    -0.004817814124    14.003074004430
         C           -2.721906579795     0.508302753042    -0.012634814124    12.000000000000
         C           -0.393155579795    -0.115813246958    -0.000939814124    12.000000000000
         C           -1.377725579795     0.880532753042    -0.007387814124    12.000000000000
         C            1.025748420205     0.238197753042    -0.000742814124    12.000000000000
         C           -3.010155579795    -0.862745246958    -0.007047814124    12.000000000000
         C           -3.819012579795     1.537564753042     0.014920185876    12.000000000000
         C           -1.963969579795    -1.784150246958    -0.000412814124    12.000000000000
         C            3.444088420205     0.235523753042     0.003098185876    12.000000000000
         C            2.851354420205     1.478923753042    -0.002781814124    12.000000000000
         H           -1.072524579795     1.923969753042    -0.014503814124     1.007825032230
         H           -4.040418579795    -1.212287246958    -0.014487814124     1.007825032230
         H           -4.159897579795     1.713387753042     1.040782185876     1.007825032230
         H           -3.471447579795     2.491209753042    -0.390659814124     1.007825032230
         H           -4.681992579795     1.207415753042    -0.570205814124     1.007825032230
         H           -2.166891579795    -2.853893246958     0.000152185876     1.007825032230
         H            4.500309120205    -0.001805446958    -0.044472414124     1.007825032230
         H            3.385967420205     2.422780753042    -0.005693814124     1.007825032230

  Basis Set: AUG-CC-PVTZ
    Blend: AUG-CC-PVTZ
  Basis Set: (AUG-CC-PVTZ AUX)
    Blend: AUG-CC-PVTZ-JKFIT
	 Reference Energy          =    -852.0614288581015217 [Eh]
	 Singles Energy            =      -0.0000000000000000 [Eh]
	 Same-Spin Energy          =      -0.5691556460732253 [Eh]
	 Opposite-Spin Energy      =      -1.7092832875065469 [Eh]
	 Correlation Energy        =      -2.2784389335797721 [Eh]
	 Total Energy              =    -854.3398677916812858 [Eh]

	 ================> DF-SCS-MP2 Energies <==================
	-----------------------------------------------------------
	 SCS Same-Spin Scale       =       0.3333333333333333 [-]
	 SCS Opposite-Spin Scale   =       1.2000000000000000 [-]
	 SCS Same-Spin Energy      =      -0.1897185486910751 [Eh]
	 SCS Opposite-Spin Energy  =      -2.0511399450078560 [Eh]
	 SCS Correlation Energy    =      -2.2408584936989313 [Eh]
	 SCS Total Energy          =    -854.3022873518004872 [Eh]
	-----------------------------------------------------------

  Dipole Moment: [D]
     X:    -1.2823      Y:     0.3955      Z:     0.0022     Total:     1.3419

*** Psi4 exiting successfully. Buy a developer a beer!
