                               Psi4 1.3.2 release

  ==> Input File <==

--------------------------------------------------------------------------
#psi4
#
memory 32 gb

molecule  {
0 1
  S        2.3127110    -1.0235480     0.0053950
  N       -0.6038690    -1.4671430     0.0025680
  N        1.5465020     1.4501510    -0.0053670
  C       -2.6591070     0.4777660    -0.0131840
  C       -0.3306794    -0.1453625     0.2485088
  C       -1.3149260     0.8499960    -0.0079370
  C        1.0885480     0.2076610    -0.0012920
  C       -2.9473560    -0.8932820    -0.0075970
  C       -3.7562130     1.5070280     0.0143710
  C       -1.9011700    -1.8146870    -0.0009620
  C        3.5068880     0.2049870     0.0025490
  C        2.9141540     1.4483870    -0.0033310
  H       -1.0097250     1.8934330    -0.0150530
  H       -3.9776190    -1.2428240    -0.0150370
  H       -4.0970980     1.6828510     1.0402330
  H       -3.4086480     2.4606730    -0.3912090
  H       -4.6191930     1.1768790    -0.5707550
  H       -2.1040920    -2.8844300    -0.0003970
  H        4.5630320    -0.0321470     0.0049780
  H        3.4487670     2.3922440    -0.0062430
units angstrom
no_reorient  #important for SAPT in psi4, default
symmetry c1  #important for SAPT in psi4, default
}

set PROPERTIES_ORIGIN ["COM"]
properties('MP2/aug-cc-pvtz', properties = ['dipole'])
--------------------------------------------------------------------------

    Molecular point group: c1
  Charge       = 0
  Multiplicity = 1
  Basis Set: AUG-CC-PVTZ
    Blend: AUG-CC-PVTZ
  Basis Set: (AUG-CC-PVTZ AUX)
    Blend: AUG-CC-PVTZ-JKFIT

    Orbital Energies [Eh]
    ---------------------

    Doubly Occupied:

       1A    -91.991992     2A    -15.576727     3A    -15.570367
       4A    -11.312975     5A    -11.299287     6A    -11.281475
       7A    -11.271469     8A    -11.267501     9A    -11.261775
      10A    -11.248291    11A    -11.246718    12A    -11.240356
      13A     -8.992117    14A     -6.672889    15A     -6.672326
      16A     -6.671657    17A     -1.282009    18A     -1.252951
      19A     -1.113741    20A     -1.062821    21A     -1.058171
      22A     -0.982960    23A     -0.971063    24A     -0.870035
      25A     -0.840342    26A     -0.782946    27A     -0.745482
      28A     -0.696035    29A     -0.674789    30A     -0.671649
      31A     -0.635202    32A     -0.595197    33A     -0.586165
      34A     -0.573044    35A     -0.567581    36A     -0.561138
      37A     -0.546999    38A     -0.526658    39A     -0.509979
      40A     -0.499213    41A     -0.440678    42A     -0.422613
      43A     -0.392051    44A     -0.379358    45A     -0.363066
      46A     -0.304039

  @DF-RHF Final Energy:  -852.03727460773678

   => Energetics <=

    Nuclear Repulsion Energy =            719.3862548757387003
    One-Electron Energy =               -2593.8752663600007509
    Two-Electron Energy =                1022.4517368765251604
    Total Energy =                       -852.0372746077367765
  Basis Set: (AUG-CC-PVTZ AUX)
    Blend: AUG-CC-PVTZ-RI
    Molecular point group: c1

    Geometry (in Angstrom), charge = 0, multiplicity = 1:

       Center              X                  Y                   Z               Mass
    ------------   -----------------  -----------------  -----------------  -----------------
         S            2.249933904196    -0.993079678402    -0.011383411543    31.972071174400
         N           -0.666646095804    -1.436674678402    -0.014210411543    14.003074004430
         N            1.483724904196     1.480619321598    -0.022145411543    14.003074004430
         C           -2.721884095804     0.508234321598    -0.029962411543    12.000000000000
         C           -0.393456495804    -0.114894178402     0.231730388457    12.000000000000
         C           -1.377703095804     0.880464321598    -0.024715411543    12.000000000000
         C            1.025770904196     0.238129321598    -0.018070411543    12.000000000000
         C           -3.010133095804    -0.862813678402    -0.024375411543    12.000000000000
         C           -3.818990095804     1.537496321598    -0.002407411543    12.000000000000
         C           -1.963947095804    -1.784218678402    -0.017740411543    12.000000000000
         C            3.444110904196     0.235455321598    -0.014229411543    12.000000000000
         C            2.851376904196     1.478855321598    -0.020109411543    12.000000000000
         H           -1.072502095804     1.923901321598    -0.031831411543     1.007825032230
         H           -4.040396095804    -1.212355678402    -0.031815411543     1.007825032230
         H           -4.159875095804     1.713319321598     1.023454588457     1.007825032230
         H           -3.471425095804     2.491141321598    -0.407987411543     1.007825032230
         H           -4.681970095804     1.207347321598    -0.587533411543     1.007825032230
         H           -2.166869095804    -2.853961678402    -0.017175411543     1.007825032230
         H            4.500254904196    -0.001678678402    -0.011800411543     1.007825032230
         H            3.385989904196     2.422712321598    -0.023021411543     1.007825032230

  Basis Set: AUG-CC-PVTZ
    Blend: AUG-CC-PVTZ
  Basis Set: (AUG-CC-PVTZ AUX)
    Blend: AUG-CC-PVTZ-JKFIT
	 Reference Energy          =    -852.0372746077367765 [Eh]
	 Singles Energy            =      -0.0000000000000000 [Eh]
	 Same-Spin Energy          =      -0.5703634986385995 [Eh]
	 Opposite-Spin Energy      =      -1.7121934542575623 [Eh]
	 Correlation Energy        =      -2.2825569528961616 [Eh]
	 Total Energy              =    -854.3198315606329061 [Eh]

	 ================> DF-SCS-MP2 Energies <==================
	-----------------------------------------------------------
	 SCS Same-Spin Scale       =       0.3333333333333333 [-]
	 SCS Opposite-Spin Scale   =       1.2000000000000000 [-]
	 SCS Same-Spin Energy      =      -0.1901211662128665 [Eh]
	 SCS Opposite-Spin Energy  =      -2.0546321451090748 [Eh]
	 SCS Correlation Energy    =      -2.2447533113219413 [Eh]
	 SCS Total Energy          =    -854.2820279190586916 [Eh]
	-----------------------------------------------------------

  Dipole Moment: [D]
     X:    -1.4263      Y:     0.3783      Z:     0.1156     Total:     1.4802

*** Psi4 exiting successfully. Buy a developer a beer!
