                               Psi4 1.3.2 release

  ==> Input File <==

--------------------------------------------------------------------------
#psi4
#
memory 32 gb

molecule  {
0 1
  S        2.3127110    -1.0235480     0.0053950
  N       -0.6038690    -1.4671430     0.0025680
  N        1.5465020     1.4501510    -0.0053670
  C       -2.6591070     0.4777660    -0.0131840
  C       -0.3306147    -0.1455600     0.1985093
  C       -1.3149260     0.8499960    -0.0079370
  C        1.0885480     0.2076610    -0.0012920
  C       -2.9473560    -0.8932820    -0.0075970
  C       -3.7562130     1.5070280     0.0143710
  C       -1.9011700    -1.8146870    -0.0009620
  C        3.5068880     0.2049870     0.0025490
  C        2.9141540     1.4483870    -0.0033310
  H       -1.0097250     1.8934330    -0.0150530
  H       -3.9776190    -1.2428240    -0.0150370
  H       -4.0970980     1.6828510     1.0402330
  H       -3.4086480     2.4606730    -0.3912090
  H       -4.6191930     1.1768790    -0.5707550
  H       -2.1040920    -2.8844300    -0.0003970
  H        4.5630320    -0.0321470     0.0049780
  H        3.4487670     2.3922440    -0.0062430
units angstrom
no_reorient  #important for SAPT in psi4, default
symmetry c1  #important for SAPT in psi4, default
}

set PROPERTIES_ORIGIN ["COM"]
properties('MP2/aug-cc-pvtz', properties = ['dipole'])
--------------------------------------------------------------------------

    Molecular point group: c1
  Charge       = 0
  Multiplicity = 1
  Basis Set: AUG-CC-PVTZ
    Blend: AUG-CC-PVTZ
  Basis Set: (AUG-CC-PVTZ AUX)
    Blend: AUG-CC-PVTZ-JKFIT

    Orbital Energies [Eh]
    ---------------------

    Doubly Occupied:

       1A    -91.992621     2A    -15.575055     3A    -15.571107
       4A    -11.312577     5A    -11.297493     6A    -11.281625
       7A    -11.271508     8A    -11.267861     9A    -11.262341
      10A    -11.246063    11A    -11.245504    12A    -11.240165
      13A     -8.992707    14A     -6.673478    15A     -6.672918
      16A     -6.672251    17A     -1.282988    18A     -1.254263
      19A     -1.113772    20A     -1.063678    21A     -1.058977
      22A     -0.983454    23A     -0.971519    24A     -0.870732
      25A     -0.841566    26A     -0.783314    27A     -0.746948
      28A     -0.696520    29A     -0.676237    30A     -0.671652
      31A     -0.634807    32A     -0.595361    33A     -0.586671
      34A     -0.573077    35A     -0.568722    36A     -0.561425
      37A     -0.547068    38A     -0.526531    39A     -0.511822
      40A     -0.499674    41A     -0.440886    42A     -0.422227
      43A     -0.392584    44A     -0.380085    45A     -0.364245
      46A     -0.304366

  @DF-RHF Final Energy:  -852.04601737562302

   => Energetics <=

    Nuclear Repulsion Energy =            719.7314431276242885
    One-Electron Energy =               -2594.5540335050936847
    Two-Electron Energy =                1022.7765730018463728
    Total Energy =                       -852.0460173756230233
  Basis Set: (AUG-CC-PVTZ AUX)
    Blend: AUG-CC-PVTZ-RI
    Molecular point group: c1

    Geometry (in Angstrom), charge = 0, multiplicity = 1:

       Center              X                  Y                   Z               Mass
    ------------   -----------------  -----------------  -----------------  -----------------
         S            2.249929493855    -0.993066215615    -0.007975145199    31.972071174400
         N           -0.666650506145    -1.436661215615    -0.010802145199    14.003074004430
         N            1.483720493855     1.480632784385    -0.018737145199    14.003074004430
         C           -2.721888506145     0.508247784385    -0.026554145199    12.000000000000
         C           -0.393396206145    -0.115078215615     0.185139154801    12.000000000000
         C           -1.377707506145     0.880477784385    -0.021307145199    12.000000000000
         C            1.025766493855     0.238142784385    -0.014662145199    12.000000000000
         C           -3.010137506145    -0.862800215615    -0.020967145199    12.000000000000
         C           -3.818994506145     1.537509784385     0.001000854801    12.000000000000
         C           -1.963951506145    -1.784205215615    -0.014332145199    12.000000000000
         C            3.444106493855     0.235468784385    -0.010821145199    12.000000000000
         C            2.851372493855     1.478868784385    -0.016701145199    12.000000000000
         H           -1.072506506145     1.923914784385    -0.028423145199     1.007825032230
         H           -4.040400506145    -1.212342215615    -0.028407145199     1.007825032230
         H           -4.159879506145     1.713332784385     1.026862854801     1.007825032230
         H           -3.471429506145     2.491154784385    -0.404579145199     1.007825032230
         H           -4.681974506145     1.207360784385    -0.584125145199     1.007825032230
         H           -2.166873506145    -2.853948215615    -0.013767145199     1.007825032230
         H            4.500250493855    -0.001665215615    -0.008392145199     1.007825032230
         H            3.385985493855     2.422725784385    -0.019613145199     1.007825032230

  Basis Set: AUG-CC-PVTZ
    Blend: AUG-CC-PVTZ
  Basis Set: (AUG-CC-PVTZ AUX)
    Blend: AUG-CC-PVTZ-JKFIT
	 Reference Energy          =    -852.0460173756230233 [Eh]
	 Singles Energy            =      -0.0000000000000000 [Eh]
	 Same-Spin Energy          =      -0.5699226952920373 [Eh]
	 Opposite-Spin Energy      =      -1.7110347031413835 [Eh]
	 Correlation Energy        =      -2.2809573984334208 [Eh]
	 Total Energy              =    -854.3269747740564526 [Eh]

	 ================> DF-SCS-MP2 Energies <==================
	-----------------------------------------------------------
	 SCS Same-Spin Scale       =       0.3333333333333333 [-]
	 SCS Opposite-Spin Scale   =       1.2000000000000000 [-]
	 SCS Same-Spin Energy      =      -0.1899742317640124 [Eh]
	 SCS Opposite-Spin Energy  =      -2.0532416437696601 [Eh]
	 SCS Correlation Energy    =      -2.2432158755336724 [Eh]
	 SCS Total Energy          =    -854.2892332511567020 [Eh]
	-----------------------------------------------------------

  Dipole Moment: [D]
     X:    -1.3732      Y:     0.3838      Z:     0.1030     Total:     1.4295

*** Psi4 exiting successfully. Buy a developer a beer!
