                               Psi4 1.3.2 release

  ==> Input File <==

--------------------------------------------------------------------------
#psi4
#
memory 32 gb

molecule  {
0 1
  S        2.3127110    -1.0235480     0.0053950
  N       -0.6038690    -1.4671430     0.0025680
  N        1.5465020     1.4501510    -0.0053670
  C       -2.6591070     0.4777660    -0.0131840
  C       -0.3303560    -0.1463500    -0.0014890
  C       -1.3149260     0.8499960    -0.0079370
  C        1.0885480     0.2076610    -0.0012920
  C       -2.9473560    -0.8932820    -0.0075970
  C       -3.7562130     1.5070280     0.0143710
  C       -1.9011700    -1.8146870    -0.0009620
  C        3.5068880     0.2049870     0.0025490
  C        2.9141540     1.4483870    -0.0033310
  H       -1.0097250     1.8934330    -0.0150530
  H       -3.9776190    -1.2428240    -0.0150370
  H       -4.0970980     1.6828510     1.0402330
  H       -3.4086480     2.4606730    -0.3912090
  H       -4.6191930     1.1768790    -0.5707550
  H       -2.1040920    -2.8844300    -0.0003970
  H        4.5631854    -0.0325373    -0.0950211
  H        3.4487670     2.3922440    -0.0062430
units angstrom
no_reorient  #important for SAPT in psi4, default
symmetry c1  #important for SAPT in psi4, default
}

set PROPERTIES_ORIGIN ["COM"]
properties('MP2/aug-cc-pvtz', properties = ['dipole'])
--------------------------------------------------------------------------

    Molecular point group: c1
  Charge       = 0
  Multiplicity = 1
  Basis Set: AUG-CC-PVTZ
    Blend: AUG-CC-PVTZ
  Basis Set: (AUG-CC-PVTZ AUX)
    Blend: AUG-CC-PVTZ-JKFIT

    Orbital Energies [Eh]
    ---------------------

    Doubly Occupied:

       1A    -91.993729     2A    -15.572469     3A    -15.571954
       4A    -11.311847     5A    -11.294014     6A    -11.281949
       7A    -11.271658     8A    -11.268632     9A    -11.263628
      10A    -11.243483    11A    -11.242045    12A    -11.239827
      13A     -8.993722    14A     -6.674487    15A     -6.673934
      16A     -6.673274    17A     -1.284841    18A     -1.256659
      19A     -1.113939    20A     -1.065257    21A     -1.060271
      22A     -0.984392    23A     -0.972430    24A     -0.872044
      25A     -0.843841    26A     -0.783548    27A     -0.749626
      28A     -0.697137    29A     -0.679075    30A     -0.671177
      31A     -0.634065    32A     -0.595937    33A     -0.587592
      34A     -0.573778    35A     -0.569944    36A     -0.561798
      37A     -0.546925    38A     -0.526322    39A     -0.515053
      40A     -0.500461    41A     -0.441301    42A     -0.421282
      43A     -0.393493    44A     -0.381695    45A     -0.366402
      46A     -0.305029

  @DF-RHF Final Energy:  -852.06104060509904

   => Energetics <=

    Nuclear Repulsion Energy =            720.3412939731709912
    One-Electron Energy =               -2595.7527332967742950
    Two-Electron Energy =                1023.3503987185041524
    Total Energy =                       -852.0610406050990377
  Basis Set: (AUG-CC-PVTZ AUX)
    Blend: AUG-CC-PVTZ-RI
    Molecular point group: c1

    Geometry (in Angstrom), charge = 0, multiplicity = 1:

       Center              X                  Y                   Z               Mass
    ------------   -----------------  -----------------  -----------------  -----------------
         S            2.249910981101    -0.993010130020     0.006230430554    31.972071174400
         N           -0.666669018899    -1.436605130020     0.003403430554    14.003074004430
         N            1.483701981101     1.480688869980    -0.004531569446    14.003074004430
         C           -2.721907018899     0.508303869980    -0.012348569446    12.000000000000
         C           -0.393156018899    -0.115812130020    -0.000653569446    12.000000000000
         C           -1.377726018899     0.880533869980    -0.007101569446    12.000000000000
         C            1.025747981101     0.238198869980    -0.000456569446    12.000000000000
         C           -3.010156018899    -0.862744130020    -0.006761569446    12.000000000000
         C           -3.819013018899     1.537565869980     0.015206430554    12.000000000000
         C           -1.963970018899    -1.784149130020    -0.000126569446    12.000000000000
         C            3.444087981101     0.235524869980     0.003384430554    12.000000000000
         C            2.851353981101     1.478924869980    -0.002495569446    12.000000000000
         H           -1.072525018899     1.923970869980    -0.014217569446     1.007825032230
         H           -4.040419018899    -1.212286130020    -0.014201569446     1.007825032230
         H           -4.159898018899     1.713388869980     1.041068430554     1.007825032230
         H           -3.471448018899     2.491210869980    -0.390373569446     1.007825032230
         H           -4.681993018899     1.207416869980    -0.569919569446     1.007825032230
         H           -2.166892018899    -2.853892130020     0.000438430554     1.007825032230
         H            4.500385381101    -0.001999430020    -0.094185669446     1.007825032230
         H            3.385966981101     2.422781869980    -0.005407569446     1.007825032230

  Basis Set: AUG-CC-PVTZ
    Blend: AUG-CC-PVTZ
  Basis Set: (AUG-CC-PVTZ AUX)
    Blend: AUG-CC-PVTZ-JKFIT
	 Reference Energy          =    -852.0610406050990377 [Eh]
	 Singles Energy            =      -0.0000000000000000 [Eh]
	 Same-Spin Energy          =      -0.5691798206088331 [Eh]
	 Opposite-Spin Energy      =      -1.7093283557163854 [Eh]
	 Correlation Energy        =      -2.2785081763252184 [Eh]
	 Total Energy              =    -854.3395487814242415 [Eh]

	 ================> DF-SCS-MP2 Energies <==================
	-----------------------------------------------------------
	 SCS Same-Spin Scale       =       0.3333333333333333 [-]
	 SCS Opposite-Spin Scale   =       1.2000000000000000 [-]
	 SCS Same-Spin Energy      =      -0.1897266068696110 [Eh]
	 SCS Opposite-Spin Energy  =      -2.0511940268596622 [Eh]
	 SCS Correlation Energy    =      -2.2409206337292731 [Eh]
	 SCS Total Energy          =    -854.3019612388283122 [Eh]
	-----------------------------------------------------------

  Dipole Moment: [D]
     X:    -1.2888      Y:     0.3971      Z:    -0.0375     Total:     1.3491

*** Psi4 exiting successfully. Buy a developer a beer!
