                               Psi4 1.3.2 release

  ==> Input File <==

--------------------------------------------------------------------------
#psi4
#
memory 32 gb

molecule  {
0 1
  S        2.3127110    -1.0235480     0.0053950
  N       -0.6038690    -1.4671430     0.0025680
  N        1.5465020     1.4501510    -0.0053670
  C       -2.6591070     0.4777660    -0.0131840
  C       -0.3303560    -0.1463500    -0.0014890
  C       -1.3149260     0.8499960    -0.0079370
  C        1.0888018     0.2070588    -0.1512906
  C       -2.9473560    -0.8932820    -0.0075970
  C       -3.7562130     1.5070280     0.0143710
  C       -1.9011700    -1.8146870    -0.0009620
  C        3.5068880     0.2049870     0.0025490
  C        2.9141540     1.4483870    -0.0033310
  H       -1.0097250     1.8934330    -0.0150530
  H       -3.9776190    -1.2428240    -0.0150370
  H       -4.0970980     1.6828510     1.0402330
  H       -3.4086480     2.4606730    -0.3912090
  H       -4.6191930     1.1768790    -0.5707550
  H       -2.1040920    -2.8844300    -0.0003970
  H        4.5630320    -0.0321470     0.0049780
  H        3.4487670     2.3922440    -0.0062430
units angstrom
no_reorient  #important for SAPT in psi4, default
symmetry c1  #important for SAPT in psi4, default
}

set PROPERTIES_ORIGIN ["COM"]
properties('MP2/aug-cc-pvtz', properties = ['dipole'])
--------------------------------------------------------------------------

    Molecular point group: c1
  Charge       = 0
  Multiplicity = 1
  Basis Set: AUG-CC-PVTZ
    Blend: AUG-CC-PVTZ
  Basis Set: (AUG-CC-PVTZ AUX)
    Blend: AUG-CC-PVTZ-JKFIT

    Orbital Energies [Eh]
    ---------------------

    Doubly Occupied:

       1A    -91.994416     2A    -15.574798     3A    -15.571244
       4A    -11.313070     5A    -11.294329     6A    -11.281567
       7A    -11.271247     8A    -11.268971     9A    -11.264577
      10A    -11.242836    11A    -11.241349    12A    -11.239514
      13A     -8.994273    14A     -6.675019    15A     -6.674460
      16A     -6.673804    17A     -1.283207    18A     -1.255738
      19A     -1.113407    20A     -1.064469    21A     -1.059251
      22A     -0.983920    23A     -0.972030    24A     -0.870772
      25A     -0.843118    26A     -0.782827    27A     -0.749304
      28A     -0.697145    29A     -0.678592    30A     -0.671073
      31A     -0.633806    32A     -0.595524    33A     -0.586743
      34A     -0.573678    35A     -0.568777    36A     -0.561363
      37A     -0.546736    38A     -0.526348    39A     -0.512786
      40A     -0.500274    41A     -0.441829    42A     -0.421506
      43A     -0.392167    44A     -0.380798    45A     -0.365833
      46A     -0.305246

  @DF-RHF Final Energy:  -852.05471184589896

   => Energetics <=

    Nuclear Repulsion Energy =            719.9902188765896653
    One-Electron Energy =               -2595.0623800801481593
    Two-Electron Energy =                1023.0174493576596433
    Total Energy =                       -852.0547118458989644
  Basis Set: (AUG-CC-PVTZ AUX)
    Blend: AUG-CC-PVTZ-RI
    Molecular point group: c1

    Geometry (in Angstrom), charge = 0, multiplicity = 1:

       Center              X                  Y                   Z               Mass
    ------------   -----------------  -----------------  -----------------  -----------------
         S            2.249894558776    -0.992971314898     0.015882746473    31.972071174400
         N           -0.666685441224    -1.436566314898     0.013055746473    14.003074004430
         N            1.483685558776     1.480727685102     0.005120746473    14.003074004430
         C           -2.721923441224     0.508342685102    -0.002696253527    12.000000000000
         C           -0.393172441224    -0.115773314898     0.008998746473    12.000000000000
         C           -1.377742441224     0.880572685102     0.002550746473    12.000000000000
         C            1.025985358776     0.237635485102    -0.140802853527    12.000000000000
         C           -3.010172441224    -0.862705314898     0.002890746473    12.000000000000
         C           -3.819029441224     1.537604685102     0.024858746473    12.000000000000
         C           -1.963986441224    -1.784110314898     0.009525746473    12.000000000000
         C            3.444071558776     0.235563685102     0.013036746473    12.000000000000
         C            2.851337558776     1.478963685102     0.007156746473    12.000000000000
         H           -1.072541441224     1.924009685102    -0.004565253527     1.007825032230
         H           -4.040435441224    -1.212247314898    -0.004549253527     1.007825032230
         H           -4.159914441224     1.713427685102     1.050720746473     1.007825032230
         H           -3.471464441224     2.491249685102    -0.380721253527     1.007825032230
         H           -4.682009441224     1.207455685102    -0.560267253527     1.007825032230
         H           -2.166908441224    -2.853853314898     0.010090746473     1.007825032230
         H            4.500215558776    -0.001570314898     0.015465746473     1.007825032230
         H            3.385950558776     2.422820685102     0.004244746473     1.007825032230

  Basis Set: AUG-CC-PVTZ
    Blend: AUG-CC-PVTZ
  Basis Set: (AUG-CC-PVTZ AUX)
    Blend: AUG-CC-PVTZ-JKFIT
	 Reference Energy          =    -852.0547118458989644 [Eh]
	 Singles Energy            =      -0.0000000000000000 [Eh]
	 Same-Spin Energy          =      -0.5695946382410418 [Eh]
	 Opposite-Spin Energy      =      -1.7102291581990197 [Eh]
	 Correlation Energy        =      -2.2798237964400614 [Eh]
	 Total Energy              =    -854.3345356423390058 [Eh]

	 ================> DF-SCS-MP2 Energies <==================
	-----------------------------------------------------------
	 SCS Same-Spin Scale       =       0.3333333333333333 [-]
	 SCS Opposite-Spin Scale   =       1.2000000000000000 [-]
	 SCS Same-Spin Energy      =      -0.1898648794136806 [Eh]
	 SCS Opposite-Spin Energy  =      -2.0522749898388235 [Eh]
	 SCS Correlation Energy    =      -2.2421398692525041 [Eh]
	 SCS Total Energy          =    -854.2968517151514334 [Eh]
	-----------------------------------------------------------

  Dipole Moment: [D]
     X:    -1.2213      Y:     0.4177      Z:     0.0845     Total:     1.2935

*** Psi4 exiting successfully. Buy a developer a beer!
