                               Psi4 1.3.2 release

  ==> Input File <==

--------------------------------------------------------------------------
#psi4
#
memory 32 gb

molecule  {
0 1
  S        2.3127110    -1.0235480     0.0053950
  N       -0.6038690    -1.4671430     0.0025680
  N        1.5465020     1.4501510    -0.0053670
  C       -2.6591070     0.4777660    -0.0131840
  C       -0.3303560    -0.1463500    -0.0014890
  C       -1.3149260     0.8499960    -0.0079370
  C        1.0885480     0.2076610    -0.0012920
  C       -2.9473560    -0.8932820    -0.0075970
  C       -3.7562130     1.5070280     0.0143710
  C       -1.9011700    -1.8146870    -0.0009620
  C        3.5068880     0.2049870     0.0025490
  C        2.9141540     1.4483870    -0.0033310
  H       -1.0097250     1.8934330    -0.0150530
  H       -3.9776190    -1.2428240    -0.0150370
  H       -4.0970980     1.6828510     1.0402330
  H       -3.4086480     2.4606730    -0.3912090
  H       -4.6191930     1.1768790    -0.5707550
  H       -2.1040920    -2.8844300    -0.0003970
  H        4.5630320    -0.0321470     0.0049780
  H        3.4483894     2.3932389     0.2437547
units angstrom
no_reorient  #important for SAPT in psi4, default
symmetry c1  #important for SAPT in psi4, default
}

set PROPERTIES_ORIGIN ["COM"]
properties('MP2/aug-cc-pvtz', properties = ['dipole'])
--------------------------------------------------------------------------

    Molecular point group: c1
  Charge       = 0
  Multiplicity = 1
  Basis Set: AUG-CC-PVTZ
    Blend: AUG-CC-PVTZ
  Basis Set: (AUG-CC-PVTZ AUX)
    Blend: AUG-CC-PVTZ-JKFIT

    Orbital Energies [Eh]
    ---------------------

    Doubly Occupied:

       1A    -91.994192     2A    -15.572643     3A    -15.572076
       4A    -11.311988     5A    -11.294127     6A    -11.282042
       7A    -11.271741     8A    -11.270773     9A    -11.264192
      10A    -11.243569    11A    -11.242127    12A    -11.239877
      13A     -8.994186    14A     -6.674947    15A     -6.674398
      16A     -6.673737    17A     -1.284989    18A     -1.256770
      19A     -1.114023    20A     -1.065518    21A     -1.060486
      22A     -0.983783    23A     -0.972434    24A     -0.871679
      25A     -0.844048    26A     -0.782405    27A     -0.748996
      28A     -0.697015    29A     -0.678543    30A     -0.670551
      31A     -0.632591    32A     -0.596157    33A     -0.586741
      34A     -0.573430    35A     -0.569820    36A     -0.561657
      37A     -0.547181    38A     -0.526878    39A     -0.515264
      40A     -0.498266    41A     -0.441391    42A     -0.421444
      43A     -0.393816    44A     -0.381503    45A     -0.366272
      46A     -0.305145

  @DF-RHF Final Energy:  -852.05742806814601

   => Energetics <=

    Nuclear Repulsion Energy =            720.2499031777997516
    One-Electron Energy =               -2595.5638380022373894
    Two-Electron Energy =                1023.2565067562916283
    Total Energy =                       -852.0574280681460095
  Basis Set: (AUG-CC-PVTZ AUX)
    Blend: AUG-CC-PVTZ-RI
    Molecular point group: c1

    Geometry (in Angstrom), charge = 0, multiplicity = 1:

       Center              X                  Y                   Z               Mass
    ------------   -----------------  -----------------  -----------------  -----------------
         S            2.249914021050    -0.993018060222     0.004226716090    31.972071174400
         N           -0.666665978950    -1.436613060222     0.001399716090    14.003074004430
         N            1.483705021050     1.480680939778    -0.006535283910    14.003074004430
         C           -2.721903978950     0.508295939778    -0.014352283910    12.000000000000
         C           -0.393152978950    -0.115820060222    -0.002657283910    12.000000000000
         C           -1.377722978950     0.880525939778    -0.009105283910    12.000000000000
         C            1.025751021050     0.238190939778    -0.002460283910    12.000000000000
         C           -3.010152978950    -0.862752060222    -0.008765283910    12.000000000000
         C           -3.819009978950     1.537557939778     0.013202716090    12.000000000000
         C           -1.963966978950    -1.784157060222    -0.002130283910    12.000000000000
         C            3.444091021050     0.235516939778     0.001380716090    12.000000000000
         C            2.851357021050     1.478916939778    -0.004499283910    12.000000000000
         H           -1.072521978950     1.923962939778    -0.016221283910     1.007825032230
         H           -4.040415978950    -1.212294060222    -0.016205283910     1.007825032230
         H           -4.159894978950     1.713380939778     1.039064716090     1.007825032230
         H           -3.471444978950     2.491202939778    -0.392377283910     1.007825032230
         H           -4.681989978950     1.207408939778    -0.571923283910     1.007825032230
         H           -2.166888978950    -2.853900060222    -0.001565283910     1.007825032230
         H            4.500235021050    -0.001617060222     0.003809716090     1.007825032230
         H            3.385592421050     2.423768839778     0.242586416090     1.007825032230

  Basis Set: AUG-CC-PVTZ
    Blend: AUG-CC-PVTZ
  Basis Set: (AUG-CC-PVTZ AUX)
    Blend: AUG-CC-PVTZ-JKFIT
	 Reference Energy          =    -852.0574280681460095 [Eh]
	 Singles Energy            =      -0.0000000000000000 [Eh]
	 Same-Spin Energy          =      -0.5693687894155093 [Eh]
	 Opposite-Spin Energy      =      -1.7097758703156161 [Eh]
	 Correlation Energy        =      -2.2791446597311253 [Eh]
	 Total Energy              =    -854.3365727278771828 [Eh]

	 ================> DF-SCS-MP2 Energies <==================
	-----------------------------------------------------------
	 SCS Same-Spin Scale       =       0.3333333333333333 [-]
	 SCS Opposite-Spin Scale   =       1.2000000000000000 [-]
	 SCS Same-Spin Energy      =      -0.1897895964718364 [Eh]
	 SCS Opposite-Spin Energy  =      -2.0517310443787391 [Eh]
	 SCS Correlation Energy    =      -2.2415206408505757 [Eh]
	 SCS Total Energy          =    -854.2989487089965905 [Eh]
	-----------------------------------------------------------

  Dipole Moment: [D]
     X:    -1.3214      Y:     0.3514      Z:     0.2231     Total:     1.3854

*** Psi4 exiting successfully. Buy a developer a beer!
