                               Psi4 1.3.2 release

  ==> Input File <==

--------------------------------------------------------------------------
#psi4
#
memory 32 gb

molecule  {
0 1
  S        2.3127110    -1.0235480     0.0053950
  N       -0.6038690    -1.4671430     0.0025680
  N        1.5465020     1.4501510    -0.0053670
  C       -2.6591070     0.4777660    -0.0131840
  C       -0.3303560    -0.1463500    -0.0014890
  C       -1.3149260     0.8499960    -0.0079370
  C        1.0889710     0.2066574    -0.2512896
  C       -2.9473560    -0.8932820    -0.0075970
  C       -3.7562130     1.5070280     0.0143710
  C       -1.9011700    -1.8146870    -0.0009620
  C        3.5068880     0.2049870     0.0025490
  C        2.9141540     1.4483870    -0.0033310
  H       -1.0097250     1.8934330    -0.0150530
  H       -3.9776190    -1.2428240    -0.0150370
  H       -4.0970980     1.6828510     1.0402330
  H       -3.4086480     2.4606730    -0.3912090
  H       -4.6191930     1.1768790    -0.5707550
  H       -2.1040920    -2.8844300    -0.0003970
  H        4.5630320    -0.0321470     0.0049780
  H        3.4487670     2.3922440    -0.0062430
units angstrom
no_reorient  #important for SAPT in psi4, default
symmetry c1  #important for SAPT in psi4, default
}

set PROPERTIES_ORIGIN ["COM"]
properties('MP2/aug-cc-pvtz', properties = ['dipole'])
--------------------------------------------------------------------------

    Molecular point group: c1
  Charge       = 0
  Multiplicity = 1
  Basis Set: AUG-CC-PVTZ
    Blend: AUG-CC-PVTZ
  Basis Set: (AUG-CC-PVTZ AUX)
    Blend: AUG-CC-PVTZ-JKFIT

    Orbital Energies [Eh]
    ---------------------

    Doubly Occupied:

       1A    -91.995548     2A    -15.578916     3A    -15.570065
       4A    -11.315205     5A    -11.294842     6A    -11.280927
       7A    -11.270576     8A    -11.269923     9A    -11.266871
      10A    -11.241773    11A    -11.240237    12A    -11.239009
      13A     -8.995161    14A     -6.675873    15A     -6.675300
      16A     -6.674658    17A     -1.280524    18A     -1.254202
      19A     -1.112543    20A     -1.063125    21A     -1.057465
      22A     -0.983065    23A     -0.971358    24A     -0.868676
      25A     -0.841767    26A     -0.780943    27A     -0.748809
      28A     -0.696628    29A     -0.677771    30A     -0.670618
      31A     -0.633366    32A     -0.594847    33A     -0.585301
      34A     -0.573881    35A     -0.566000    36A     -0.560573
      37A     -0.545970    38A     -0.526063    39A     -0.509509
      40A     -0.499509    41A     -0.442820    42A     -0.421686
      43A     -0.389948    44A     -0.379334    45A     -0.364889
      46A     -0.305747

  @DF-RHF Final Energy:  -852.04255085557770

   => Energetics <=

    Nuclear Repulsion Energy =            719.3457833840362809
    One-Electron Energy =               -2593.7930282235806771
    Two-Electron Energy =                1022.4046939839668084
    Total Energy =                       -852.0425508555777014
  Basis Set: (AUG-CC-PVTZ AUX)
    Blend: AUG-CC-PVTZ-RI
    Molecular point group: c1

    Geometry (in Angstrom), charge = 0, multiplicity = 1:

       Center              X                  Y                   Z               Mass
    ------------   -----------------  -----------------  -----------------  -----------------
         S            2.249883025087    -0.992943953062     0.022699279160    31.972071174400
         N           -0.666696974913    -1.436538953062     0.019872279160    14.003074004430
         N            1.483674025087     1.480755046938     0.011937279160    14.003074004430
         C           -2.721934974913     0.508370046938     0.004120279160    12.000000000000
         C           -0.393183974913    -0.115745953062     0.015815279160    12.000000000000
         C           -1.377753974913     0.880600046938     0.009367279160    12.000000000000
         C            1.026143025087     0.237261446938    -0.233985320840    12.000000000000
         C           -3.010183974913    -0.862677953062     0.009707279160    12.000000000000
         C           -3.819040974913     1.537632046938     0.031675279160    12.000000000000
         C           -1.963997974913    -1.784082953062     0.016342279160    12.000000000000
         C            3.444060025087     0.235591046938     0.019853279160    12.000000000000
         C            2.851326025087     1.478991046938     0.013973279160    12.000000000000
         H           -1.072552974913     1.924037046938     0.002251279160     1.007825032230
         H           -4.040446974913    -1.212219953062     0.002267279160     1.007825032230
         H           -4.159925974913     1.713455046938     1.057537279160     1.007825032230
         H           -3.471475974913     2.491277046938    -0.373904720840     1.007825032230
         H           -4.682020974913     1.207483046938    -0.553450720840     1.007825032230
         H           -2.166919974913    -2.853825953062     0.016907279160     1.007825032230
         H            4.500204025087    -0.001542953062     0.022282279160     1.007825032230
         H            3.385939025087     2.422848046938     0.011061279160     1.007825032230

  Basis Set: AUG-CC-PVTZ
    Blend: AUG-CC-PVTZ
  Basis Set: (AUG-CC-PVTZ AUX)
    Blend: AUG-CC-PVTZ-JKFIT
	 Reference Energy          =    -852.0425508555777014 [Eh]
	 Singles Energy            =      -0.0000000000000000 [Eh]
	 Same-Spin Energy          =      -0.5703967845732949 [Eh]
	 Opposite-Spin Energy      =      -1.7121675941289729 [Eh]
	 Correlation Energy        =      -2.2825643787022676 [Eh]
	 Total Energy              =    -854.3251152342800196 [Eh]

	 ================> DF-SCS-MP2 Energies <==================
	-----------------------------------------------------------
	 SCS Same-Spin Scale       =       0.3333333333333333 [-]
	 SCS Opposite-Spin Scale   =       1.2000000000000000 [-]
	 SCS Same-Spin Energy      =      -0.1901322615244316 [Eh]
	 SCS Opposite-Spin Energy  =      -2.0546011129547672 [Eh]
	 SCS Correlation Energy    =      -2.2447333744791989 [Eh]
	 SCS Total Energy          =    -854.2872842300569118 [Eh]
	-----------------------------------------------------------

  Dipole Moment: [D]
     X:    -1.1214      Y:     0.4575      Z:     0.1179     Total:     1.2169

*** Psi4 exiting successfully. Buy a developer a beer!
