                               Psi4 1.3.2 release

  ==> Input File <==

--------------------------------------------------------------------------
#psi4
#
memory 32 gb

molecule  {
0 1
  S        2.3127110    -1.0235480     0.0053950
  N       -0.6038690    -1.4671430     0.0025680
  N        1.5465020     1.4501510    -0.0053670
  C       -2.6591070     0.4777660    -0.0131840
  C       -0.3303560    -0.1463500    -0.0014890
  C       -1.3149260     0.8499960    -0.0079370
  C        1.0885480     0.2076610    -0.0012920
  C       -2.9473560    -0.8932820    -0.0075970
  C       -3.7562130     1.5070280     0.0143710
  C       -1.9011700    -1.8146870    -0.0009620
  C        3.5068880     0.2049870     0.0025490
  C        2.9141540     1.4483870    -0.0033310
  H       -1.0097250     1.8934330    -0.0150530
  H       -3.9776190    -1.2428240    -0.0150370
  H       -4.0970980     1.6828510     1.0402330
  H       -3.4086480     2.4606730    -0.3912090
  H       -4.6191930     1.1768790    -0.5707550
  H       -2.1040920    -2.8844300    -0.0003970
  H        4.5633389    -0.0329277    -0.1950202
  H        3.4487670     2.3922440    -0.0062430
units angstrom
no_reorient  #important for SAPT in psi4, default
symmetry c1  #important for SAPT in psi4, default
}

set PROPERTIES_ORIGIN ["COM"]
properties('MP2/aug-cc-pvtz', properties = ['dipole'])
--------------------------------------------------------------------------

    Molecular point group: c1
  Charge       = 0
  Multiplicity = 1
  Basis Set: AUG-CC-PVTZ
    Blend: AUG-CC-PVTZ
  Basis Set: (AUG-CC-PVTZ AUX)
    Blend: AUG-CC-PVTZ-JKFIT

    Orbital Energies [Eh]
    ---------------------

    Doubly Occupied:

       1A    -91.993623     2A    -15.572573     3A    -15.572099
       4A    -11.312147     5A    -11.294108     6A    -11.282056
       7A    -11.271768     8A    -11.269077     9A    -11.264459
      10A    -11.243634    11A    -11.242205    12A    -11.239915
      13A     -8.993630    14A     -6.674393    15A     -6.673834
      16A     -6.673176    17A     -1.285012    18A     -1.256803
      19A     -1.114060    20A     -1.065136    21A     -1.060225
      22A     -0.984397    23A     -0.972490    24A     -0.872117
      25A     -0.843709    26A     -0.782368    27A     -0.749670
      28A     -0.696233    29A     -0.679133    30A     -0.670575
      31A     -0.634172    32A     -0.596083    33A     -0.587762
      34A     -0.575123    35A     -0.567683    36A     -0.561835
      37A     -0.546527    38A     -0.526041    39A     -0.514877
      40A     -0.500449    41A     -0.441398    42A     -0.421384
      43A     -0.393328    44A     -0.381794    45A     -0.366501
      46A     -0.305150

  @DF-RHF Final Energy:  -852.05937391017767

   => Energetics <=

    Nuclear Repulsion Energy =            720.2874709697654225
    One-Electron Energy =               -2595.6442299359605386
    Two-Electron Energy =                1023.2973850560175606
    Total Energy =                       -852.0593739101776691
  Basis Set: (AUG-CC-PVTZ AUX)
    Blend: AUG-CC-PVTZ-RI
    Molecular point group: c1

    Geometry (in Angstrom), charge = 0, multiplicity = 1:

       Center              X                  Y                   Z               Mass
    ------------   -----------------  -----------------  -----------------  -----------------
         S            2.249910102321    -0.993007894999     0.006802920483    31.972071174400
         N           -0.666669897679    -1.436602894999     0.003975920483    14.003074004430
         N            1.483701102321     1.480691105001    -0.003959079517    14.003074004430
         C           -2.721907897679     0.508306105001    -0.011776079517    12.000000000000
         C           -0.393156897679    -0.115809894999    -0.000081079517    12.000000000000
         C           -1.377726897679     0.880536105001    -0.006529079517    12.000000000000
         C            1.025747102321     0.238201105001     0.000115920483    12.000000000000
         C           -3.010156897679    -0.862741894999    -0.006189079517    12.000000000000
         C           -3.819013897679     1.537568105001     0.015778920483    12.000000000000
         C           -1.963970897679    -1.784146894999     0.000445920483    12.000000000000
         C            3.444087102321     0.235527105001     0.003956920483    12.000000000000
         C            2.851353102321     1.478927105001    -0.001923079517    12.000000000000
         H           -1.072525897679     1.923973105001    -0.013645079517     1.007825032230
         H           -4.040419897679    -1.212283894999    -0.013629079517     1.007825032230
         H           -4.159898897679     1.713391105001     1.041640920483     1.007825032230
         H           -3.471448897679     2.491213105001    -0.389801079517     1.007825032230
         H           -4.681993897679     1.207419105001    -0.569347079517     1.007825032230
         H           -2.166892897679    -2.853889894999     0.001010920483     1.007825032230
         H            4.500538002321    -0.002387594999    -0.193612279517     1.007825032230
         H            3.385966102321     2.422784105001    -0.004835079517     1.007825032230

  Basis Set: AUG-CC-PVTZ
    Blend: AUG-CC-PVTZ
  Basis Set: (AUG-CC-PVTZ AUX)
    Blend: AUG-CC-PVTZ-JKFIT
	 Reference Energy          =    -852.0593739101776691 [Eh]
	 Singles Energy            =      -0.0000000000000000 [Eh]
	 Same-Spin Energy          =      -0.5692767122786964 [Eh]
	 Opposite-Spin Energy      =      -1.7095213794833966 [Eh]
	 Correlation Energy        =      -2.2787980917620931 [Eh]
	 Total Energy              =    -854.3381720019397108 [Eh]

	 ================> DF-SCS-MP2 Energies <==================
	-----------------------------------------------------------
	 SCS Same-Spin Scale       =       0.3333333333333333 [-]
	 SCS Opposite-Spin Scale   =       1.2000000000000000 [-]
	 SCS Same-Spin Energy      =      -0.1897589040928988 [Eh]
	 SCS Opposite-Spin Energy  =      -2.0514256553800756 [Eh]
	 SCS Correlation Energy    =      -2.2411845594729742 [Eh]
	 SCS Total Energy          =    -854.3005584696506958 [Eh]
	-----------------------------------------------------------

  Dipole Moment: [D]
     X:    -1.3147      Y:     0.4034      Z:    -0.1161     Total:     1.3801

*** Psi4 exiting successfully. Buy a developer a beer!
