                               Psi4 1.3.2 release

  ==> Input File <==

--------------------------------------------------------------------------
#psi4
#
memory 32 gb

molecule  {
0 1
  S        2.3127110    -1.0235480     0.0053950
  N       -0.6038690    -1.4671430     0.0025680
  N        1.5465020     1.4501510    -0.0053670
  C       -2.6591070     0.4777660    -0.0131840
  C       -0.3303560    -0.1463500    -0.0014890
  C       -1.3149260     0.8499960    -0.0079370
  C        1.0885480     0.2076610    -0.0012920
  C       -2.9473560    -0.8932820    -0.0075970
  C       -3.7562130     1.5070280     0.0143710
  C       -1.9011700    -1.8146870    -0.0009620
  C        3.5068880     0.2049870     0.0025490
  C        2.9141540     1.4483870    -0.0033310
  H       -1.0097250     1.8934330    -0.0150530
  H       -3.9776190    -1.2428240    -0.0150370
  H       -4.0970980     1.6828510     1.0402330
  H       -3.4086480     2.4606730    -0.3912090
  H       -4.6191930     1.1768790    -0.5707550
  H       -2.1040920    -2.8844300    -0.0003970
  H        4.5630320    -0.0321470     0.0049780
  H        3.4484649     2.3930399     0.1937552
units angstrom
no_reorient  #important for SAPT in psi4, default
symmetry c1  #important for SAPT in psi4, default
}

set PROPERTIES_ORIGIN ["COM"]
properties('MP2/aug-cc-pvtz', properties = ['dipole'])
--------------------------------------------------------------------------

    Molecular point group: c1
  Charge       = 0
  Multiplicity = 1
  Basis Set: AUG-CC-PVTZ
    Blend: AUG-CC-PVTZ
  Basis Set: (AUG-CC-PVTZ AUX)
    Blend: AUG-CC-PVTZ-JKFIT

    Orbital Energies [Eh]
    ---------------------

    Doubly Occupied:

       1A    -91.994039     2A    -15.572566     3A    -15.572015
       4A    -11.311900     5A    -11.294075     6A    -11.281996
       7A    -11.271697     8A    -11.269958     9A    -11.263892
      10A    -11.243520    11A    -11.242078    12A    -11.239848
      13A     -8.994032    14A     -6.674794    15A     -6.674244
      16A     -6.673584    17A     -1.284914    18A     -1.256712
      19A     -1.113978    20A     -1.065438    21A     -1.060414
      22A     -0.983989    23A     -0.972425    24A     -0.871792
      25A     -0.843991    26A     -0.782927    27A     -0.749208
      28A     -0.697156    29A     -0.678704    30A     -0.670852
      31A     -0.633103    32A     -0.596068    33A     -0.587022
      34A     -0.573208    35A     -0.570333    36A     -0.561707
      37A     -0.547114    38A     -0.526728    39A     -0.515207
      40A     -0.499064    41A     -0.441349    42A     -0.421374
      43A     -0.393720    44A     -0.381557    45A     -0.366306
      46A     -0.305088

  @DF-RHF Final Energy:  -852.05899122308244

   => Energetics <=

    Nuclear Repulsion Energy =            720.2886676475845888
    One-Electron Energy =               -2595.6439410908660648
    Two-Electron Energy =                1023.2962822201990321
    Total Energy =                       -852.0589912230824439
  Basis Set: (AUG-CC-PVTZ AUX)
    Blend: AUG-CC-PVTZ-RI
    Molecular point group: c1

    Geometry (in Angstrom), charge = 0, multiplicity = 1:

       Center              X                  Y                   Z               Mass
    ------------   -----------------  -----------------  -----------------  -----------------
         S            2.249913588816    -0.993016920957     0.004512960768    31.972071174400
         N           -0.666666411184    -1.436611920957     0.001685960768    14.003074004430
         N            1.483704588816     1.480682079043    -0.006249039232    14.003074004430
         C           -2.721904411184     0.508297079043    -0.014066039232    12.000000000000
         C           -0.393153411184    -0.115818920957    -0.002371039232    12.000000000000
         C           -1.377723411184     0.880527079043    -0.008819039232    12.000000000000
         C            1.025750588816     0.238192079043    -0.002174039232    12.000000000000
         C           -3.010153411184    -0.862750920957    -0.008479039232    12.000000000000
         C           -3.819010411184     1.537559079043     0.013488960768    12.000000000000
         C           -1.963967411184    -1.784155920957    -0.001844039232    12.000000000000
         C            3.444090588816     0.235518079043     0.001666960768    12.000000000000
         C            2.851356588816     1.478918079043    -0.004213039232    12.000000000000
         H           -1.072522411184     1.923964079043    -0.015935039232     1.007825032230
         H           -4.040416411184    -1.212292920957    -0.015919039232     1.007825032230
         H           -4.159895411184     1.713382079043     1.039350960768     1.007825032230
         H           -3.471445411184     2.491204079043    -0.392091039232     1.007825032230
         H           -4.681990411184     1.207410079043    -0.571637039232     1.007825032230
         H           -2.166889411184    -2.853898920957    -0.001279039232     1.007825032230
         H            4.500234588816    -0.001615920957     0.004095960768     1.007825032230
         H            3.385667488816     2.423570979043     0.192873160768     1.007825032230

  Basis Set: AUG-CC-PVTZ
    Blend: AUG-CC-PVTZ
  Basis Set: (AUG-CC-PVTZ AUX)
    Blend: AUG-CC-PVTZ-JKFIT
	 Reference Energy          =    -852.0589912230824439 [Eh]
	 Singles Energy            =      -0.0000000000000000 [Eh]
	 Same-Spin Energy          =      -0.5692895968485374 [Eh]
	 Opposite-Spin Energy      =      -1.7095793981811178 [Eh]
	 Correlation Energy        =      -2.2788689950296552 [Eh]
	 Total Energy              =    -854.3378602181121551 [Eh]

	 ================> DF-SCS-MP2 Energies <==================
	-----------------------------------------------------------
	 SCS Same-Spin Scale       =       0.3333333333333333 [-]
	 SCS Opposite-Spin Scale   =       1.2000000000000000 [-]
	 SCS Same-Spin Energy      =      -0.1897631989495125 [Eh]
	 SCS Opposite-Spin Energy  =      -2.0514952778173412 [Eh]
	 SCS Correlation Energy    =      -2.2412584767668537 [Eh]
	 SCS Total Energy          =    -854.3002496998492461 [Eh]
	-----------------------------------------------------------

  Dipole Moment: [D]
     X:    -1.3067      Y:     0.3670      Z:     0.1877     Total:     1.3702

*** Psi4 exiting successfully. Buy a developer a beer!
