                               Psi4 1.3.2 release

  ==> Input File <==

--------------------------------------------------------------------------
#psi4
#
memory 32 gb

molecule  {
0 1
  S        2.3127110    -1.0235480     0.0053950
  N       -0.6038690    -1.4671430     0.0025680
  N        1.5465020     1.4501510    -0.0053670
  C       -2.6591070     0.4777660    -0.0131840
  C       -0.3305500    -0.1457575     0.1485097
  C       -1.3149260     0.8499960    -0.0079370
  C        1.0885480     0.2076610    -0.0012920
  C       -2.9473560    -0.8932820    -0.0075970
  C       -3.7562130     1.5070280     0.0143710
  C       -1.9011700    -1.8146870    -0.0009620
  C        3.5068880     0.2049870     0.0025490
  C        2.9141540     1.4483870    -0.0033310
  H       -1.0097250     1.8934330    -0.0150530
  H       -3.9776190    -1.2428240    -0.0150370
  H       -4.0970980     1.6828510     1.0402330
  H       -3.4086480     2.4606730    -0.3912090
  H       -4.6191930     1.1768790    -0.5707550
  H       -2.1040920    -2.8844300    -0.0003970
  H        4.5630320    -0.0321470     0.0049780
  H        3.4487670     2.3922440    -0.0062430
units angstrom
no_reorient  #important for SAPT in psi4, default
symmetry c1  #important for SAPT in psi4, default
}

set PROPERTIES_ORIGIN ["COM"]
properties('MP2/aug-cc-pvtz', properties = ['dipole'])
--------------------------------------------------------------------------

    Molecular point group: c1
  Charge       = 0
  Multiplicity = 1
  Basis Set: AUG-CC-PVTZ
    Blend: AUG-CC-PVTZ
  Basis Set: (AUG-CC-PVTZ AUX)
    Blend: AUG-CC-PVTZ-JKFIT

    Orbital Energies [Eh]
    ---------------------

    Doubly Occupied:

       1A    -91.993115     2A    -15.573719     3A    -15.571686
       4A    -11.312234     5A    -11.296014     6A    -11.281752
       7A    -11.271548     8A    -11.268135     9A    -11.262782
      10A    -11.244590    11A    -11.244303    12A    -11.240017
      13A     -8.993166    14A     -6.673935    15A     -6.673379
      16A     -6.672713    17A     -1.283764    18A     -1.255289
      19A     -1.113815    20A     -1.064375    21A     -1.059569
      22A     -0.983857    23A     -0.971892    24A     -0.871290
      25A     -0.842561    26A     -0.783600    27A     -0.748106
      28A     -0.696920    29A     -0.677457    30A     -0.671552
      31A     -0.634491    32A     -0.595533    33A     -0.587057
      34A     -0.573029    35A     -0.569749    36A     -0.561596
      37A     -0.547090    38A     -0.526452    39A     -0.513258
      40A     -0.500027    41A     -0.441053    42A     -0.421853
      43A     -0.393004    44A     -0.380722    45A     -0.365172
      46A     -0.304633

  @DF-RHF Final Energy:  -852.05281559046898

   => Energetics <=

    Nuclear Repulsion Energy =            720.0034201894226271
    One-Electron Energy =               -2595.0887627046249690
    Two-Electron Energy =                1023.0325269247332471
    Total Energy =                       -852.0528155904689811
  Basis Set: (AUG-CC-PVTZ AUX)
    Blend: AUG-CC-PVTZ-RI
    Molecular point group: c1

    Geometry (in Angstrom), charge = 0, multiplicity = 1:

       Center              X                  Y                   Z               Mass
    ------------   -----------------  -----------------  -----------------  -----------------
         S            2.249925083514    -0.993052752828    -0.004566872039    31.972071174400
         N           -0.666654916486    -1.436647752828    -0.007393872039    14.003074004430
         N            1.483716083514     1.480646247172    -0.015328872039    14.003074004430
         C           -2.721892916486     0.508261247172    -0.023145872039    12.000000000000
         C           -0.393335916486    -0.115262252828     0.138547827961    12.000000000000
         C           -1.377711916486     0.880491247172    -0.017898872039    12.000000000000
         C            1.025762083514     0.238156247172    -0.011253872039    12.000000000000
         C           -3.010141916486    -0.862786752828    -0.017558872039    12.000000000000
         C           -3.818998916486     1.537523247172     0.004409127961    12.000000000000
         C           -1.963955916486    -1.784191752828    -0.010923872039    12.000000000000
         C            3.444102083514     0.235482247172    -0.007412872039    12.000000000000
         C            2.851368083514     1.478882247172    -0.013292872039    12.000000000000
         H           -1.072510916486     1.923928247172    -0.025014872039     1.007825032230
         H           -4.040404916486    -1.212328752828    -0.024998872039     1.007825032230
         H           -4.159883916486     1.713346247172     1.030271127961     1.007825032230
         H           -3.471433916486     2.491168247172    -0.401170872039     1.007825032230
         H           -4.681978916486     1.207374247172    -0.580716872039     1.007825032230
         H           -2.166877916486    -2.853934752828    -0.010358872039     1.007825032230
         H            4.500246083514    -0.001651752828    -0.004983872039     1.007825032230
         H            3.385981083514     2.422739247172    -0.016204872039     1.007825032230

  Basis Set: AUG-CC-PVTZ
    Blend: AUG-CC-PVTZ
  Basis Set: (AUG-CC-PVTZ AUX)
    Blend: AUG-CC-PVTZ-JKFIT
	 Reference Energy          =    -852.0528155904689811 [Eh]
	 Singles Energy            =      -0.0000000000000000 [Eh]
	 Same-Spin Energy          =      -0.5695804754811479 [Eh]
	 Opposite-Spin Energy      =      -1.7101870305126425 [Eh]
	 Correlation Energy        =      -2.2797675059937905 [Eh]
	 Total Energy              =    -854.3325830964628267 [Eh]

	 ================> DF-SCS-MP2 Energies <==================
	-----------------------------------------------------------
	 SCS Same-Spin Scale       =       0.3333333333333333 [-]
	 SCS Opposite-Spin Scale   =       1.2000000000000000 [-]
	 SCS Same-Spin Energy      =      -0.1898601584937160 [Eh]
	 SCS Opposite-Spin Energy  =      -2.0522244366151710 [Eh]
	 SCS Correlation Energy    =      -2.2420845951088868 [Eh]
	 SCS Total Energy          =    -854.2949001855778306 [Eh]
	-----------------------------------------------------------

  Dipole Moment: [D]
     X:    -1.3318      Y:     0.3883      Z:     0.0891     Total:     1.3901

*** Psi4 exiting successfully. Buy a developer a beer!
