                               Psi4 1.3.2 release

  ==> Input File <==

--------------------------------------------------------------------------
#psi4
#
memory 32 gb

molecule  {
0 1
  S        2.3127110    -1.0235480     0.0053950
  N       -0.6038690    -1.4671430     0.0025680
  N        1.5465020     1.4501510    -0.0053670
  C       -2.6591070     0.4777660    -0.0131840
  C       -0.3303560    -0.1463500    -0.0014890
  C       -1.3149260     0.8499960    -0.0079370
  C        1.0888864     0.2068581    -0.2012901
  C       -2.9473560    -0.8932820    -0.0075970
  C       -3.7562130     1.5070280     0.0143710
  C       -1.9011700    -1.8146870    -0.0009620
  C        3.5068880     0.2049870     0.0025490
  C        2.9141540     1.4483870    -0.0033310
  H       -1.0097250     1.8934330    -0.0150530
  H       -3.9776190    -1.2428240    -0.0150370
  H       -4.0970980     1.6828510     1.0402330
  H       -3.4086480     2.4606730    -0.3912090
  H       -4.6191930     1.1768790    -0.5707550
  H       -2.1040920    -2.8844300    -0.0003970
  H        4.5630320    -0.0321470     0.0049780
  H        3.4487670     2.3922440    -0.0062430
units angstrom
no_reorient  #important for SAPT in psi4, default
symmetry c1  #important for SAPT in psi4, default
}

set PROPERTIES_ORIGIN ["COM"]
properties('MP2/aug-cc-pvtz', properties = ['dipole'])
--------------------------------------------------------------------------

    Molecular point group: c1
  Charge       = 0
  Multiplicity = 1
  Basis Set: AUG-CC-PVTZ
    Blend: AUG-CC-PVTZ
  Basis Set: (AUG-CC-PVTZ AUX)
    Blend: AUG-CC-PVTZ-JKFIT

    Orbital Energies [Eh]
    ---------------------

    Doubly Occupied:

       1A    -91.994918     2A    -15.576613     3A    -15.570726
       4A    -11.314038     5A    -11.294569     6A    -11.281289
       7A    -11.270954     8A    -11.269375     9A    -11.265567
      10A    -11.242369    11A    -11.240859    12A    -11.239293
      13A     -8.994668    14A     -6.675399    15A     -6.674834
      16A     -6.674184    17A     -1.282015    18A     -1.255063
      19A     -1.113028    20A     -1.063860    21A     -1.058463
      22A     -0.983549    23A     -0.971736    24A     -0.869837
      25A     -0.842524    26A     -0.781982    27A     -0.749080
      28A     -0.696912    29A     -0.678232    30A     -0.670865
      31A     -0.633621    32A     -0.595227    33A     -0.586118
      34A     -0.573864    35A     -0.567431    36A     -0.561025
      37A     -0.546422    38A     -0.526251    39A     -0.511224
      40A     -0.500021    41A     -0.442264    42A     -0.421622
      43A     -0.391163    44A     -0.380145    45A     -0.365418
      46A     -0.305458

  @DF-RHF Final Energy:  -852.04939246035167

   => Energetics <=

    Nuclear Repulsion Energy =            719.7064572334494414
    One-Electron Energy =               -2594.5035522062294149
    Two-Electron Energy =                1022.7477025124284182
    Total Energy =                       -852.0493924603516689
  Basis Set: (AUG-CC-PVTZ AUX)
    Blend: AUG-CC-PVTZ-RI
    Molecular point group: c1

    Geometry (in Angstrom), charge = 0, multiplicity = 1:

       Center              X                  Y                   Z               Mass
    ------------   -----------------  -----------------  -----------------  -----------------
         S            2.249888791931    -0.992957633980     0.019291012816    31.972071174400
         N           -0.666691208069    -1.436552633980     0.016464012816    14.003074004430
         N            1.483679791931     1.480741366020     0.008529012816    14.003074004430
         C           -2.721929208069     0.508356366020     0.000712012816    12.000000000000
         C           -0.393178208069    -0.115759633980     0.012407012816    12.000000000000
         C           -1.377748208069     0.880586366020     0.005959012816    12.000000000000
         C            1.026064191931     0.237448466020    -0.187394087184    12.000000000000
         C           -3.010178208069    -0.862691633980     0.006299012816    12.000000000000
         C           -3.819035208069     1.537618366020     0.028267012816    12.000000000000
         C           -1.963992208069    -1.784096633980     0.012934012816    12.000000000000
         C            3.444065791931     0.235577366020     0.016445012816    12.000000000000
         C            2.851331791931     1.478977366020     0.010565012816    12.000000000000
         H           -1.072547208069     1.924023366020    -0.001156987184     1.007825032230
         H           -4.040441208069    -1.212233633980    -0.001140987184     1.007825032230
         H           -4.159920208069     1.713441366020     1.054129012816     1.007825032230
         H           -3.471470208069     2.491263366020    -0.377312987184     1.007825032230
         H           -4.682015208069     1.207469366020    -0.556858987184     1.007825032230
         H           -2.166914208069    -2.853839633980     0.013499012816     1.007825032230
         H            4.500209791931    -0.001556633980     0.018874012816     1.007825032230
         H            3.385944791931     2.422834366020     0.007653012816     1.007825032230

  Basis Set: AUG-CC-PVTZ
    Blend: AUG-CC-PVTZ
  Basis Set: (AUG-CC-PVTZ AUX)
    Blend: AUG-CC-PVTZ-JKFIT
	 Reference Energy          =    -852.0493924603516689 [Eh]
	 Singles Energy            =      -0.0000000000000000 [Eh]
	 Same-Spin Energy          =      -0.5699453906575707 [Eh]
	 Opposite-Spin Energy      =      -1.7110601953228723 [Eh]
	 Correlation Energy        =      -2.2810055859804432 [Eh]
	 Total Energy              =    -854.3303980463321068 [Eh]

	 ================> DF-SCS-MP2 Energies <==================
	-----------------------------------------------------------
	 SCS Same-Spin Scale       =       0.3333333333333333 [-]
	 SCS Opposite-Spin Scale   =       1.2000000000000000 [-]
	 SCS Same-Spin Energy      =      -0.1899817968858569 [Eh]
	 SCS Opposite-Spin Energy  =      -2.0532722343874465 [Eh]
	 SCS Correlation Energy    =      -2.2432540312733034 [Eh]
	 SCS Total Energy          =    -854.2926464916249643 [Eh]
	-----------------------------------------------------------

  Dipole Moment: [D]
     X:    -1.1768      Y:     0.4353      Z:     0.1006     Total:     1.2588

*** Psi4 exiting successfully. Buy a developer a beer!
