                               Psi4 1.3.2 release

  ==> Input File <==

--------------------------------------------------------------------------
#psi4
#
memory 32 gb

molecule  {
0 1
  S        2.3127110    -1.0235480     0.0053950
  N       -0.6038690    -1.4671430     0.0025680
  N        1.5465020     1.4501510    -0.0053670
  C       -2.6591070     0.4777660    -0.0131840
  C       -0.3303560    -0.1463500    -0.0014890
  C       -1.3149260     0.8499960    -0.0079370
  C        1.0885480     0.2076610    -0.0012920
  C       -2.9473560    -0.8932820    -0.0075970
  C       -3.7562130     1.5070280     0.0143710
  C       -1.9011700    -1.8146870    -0.0009620
  C        3.5068880     0.2049870     0.0025490
  C        2.9141540     1.4483870    -0.0033310
  H       -1.0097250     1.8934330    -0.0150530
  H       -3.9776190    -1.2428240    -0.0150370
  H       -4.0970980     1.6828510     1.0402330
  H       -3.4086480     2.4606730    -0.3912090
  H       -4.6191930     1.1768790    -0.5707550
  H       -2.1040920    -2.8844300    -0.0003970
  H        4.5630320    -0.0321470     0.0049780
  H        3.4485405     2.3928409     0.1437556
units angstrom
no_reorient  #important for SAPT in psi4, default
symmetry c1  #important for SAPT in psi4, default
}

set PROPERTIES_ORIGIN ["COM"]
properties('MP2/aug-cc-pvtz', properties = ['dipole'])
--------------------------------------------------------------------------

    Molecular point group: c1
  Charge       = 0
  Multiplicity = 1
  Basis Set: AUG-CC-PVTZ
    Blend: AUG-CC-PVTZ
  Basis Set: (AUG-CC-PVTZ AUX)
    Blend: AUG-CC-PVTZ-JKFIT

    Orbital Energies [Eh]
    ---------------------

    Doubly Occupied:

       1A    -91.993920     2A    -15.572508     3A    -15.571967
       4A    -11.311832     5A    -11.294034     6A    -11.281960
       7A    -11.271664     8A    -11.269316     9A    -11.263655
      10A    -11.243481    11A    -11.242039    12A    -11.239826
      13A     -8.993911    14A     -6.674675    15A     -6.674125
      16A     -6.673464    17A     -1.284857    18A     -1.256668
      19A     -1.113943    20A     -1.065378    21A     -1.060358
      22A     -0.984159    23A     -0.972418    24A     -0.871888
      25A     -0.843947    26A     -0.783363    27A     -0.749381
      28A     -0.697280    29A     -0.678848    30A     -0.671082
      31A     -0.633504    32A     -0.595993    33A     -0.587244
      34A     -0.572995    35A     -0.570776    36A     -0.561740
      37A     -0.547063    38A     -0.526607    39A     -0.515163
      40A     -0.499679    41A     -0.441315    42A     -0.421319
      43A     -0.393645    44A     -0.381601    45A     -0.366333
      46A     -0.305044

  @DF-RHF Final Energy:  -852.06014909374176

   => Energetics <=

    Nuclear Repulsion Energy =            720.3193732966095695
    One-Electron Energy =               -2595.7071033729757801
    Two-Electron Energy =                1023.3275809826243403
    Total Energy =                       -852.0601490937417566
  Basis Set: (AUG-CC-PVTZ AUX)
    Blend: AUG-CC-PVTZ-RI
    Molecular point group: c1

    Geometry (in Angstrom), charge = 0, multiplicity = 1:

       Center              X                  Y                   Z               Mass
    ------------   -----------------  -----------------  -----------------  -----------------
         S            2.249913156010    -0.993015781691     0.004799206018    31.972071174400
         N           -0.666666843990    -1.436610781691     0.001972206018    14.003074004430
         N            1.483704156010     1.480683218309    -0.005962793982    14.003074004430
         C           -2.721904843990     0.508298218309    -0.013779793982    12.000000000000
         C           -0.393153843990    -0.115817781691    -0.002084793982    12.000000000000
         C           -1.377723843990     0.880528218309    -0.008532793982    12.000000000000
         C            1.025750156010     0.238193218309    -0.001887793982    12.000000000000
         C           -3.010153843990    -0.862749781691    -0.008192793982    12.000000000000
         C           -3.819010843990     1.537560218309     0.013775206018    12.000000000000
         C           -1.963967843990    -1.784154781691    -0.001557793982    12.000000000000
         C            3.444090156010     0.235519218309     0.001953206018    12.000000000000
         C            2.851356156010     1.478919218309    -0.003926793982    12.000000000000
         H           -1.072522843990     1.923965218309    -0.015648793982     1.007825032230
         H           -4.040416843990    -1.212291781691    -0.015632793982     1.007825032230
         H           -4.159895843990     1.713383218309     1.039637206018     1.007825032230
         H           -3.471445843990     2.491205218309    -0.391804793982     1.007825032230
         H           -4.681990843990     1.207411218309    -0.571350793982     1.007825032230
         H           -2.166889843990    -2.853897781691    -0.000992793982     1.007825032230
         H            4.500234156010    -0.001614781691     0.004382206018     1.007825032230
         H            3.385742656010     2.423373118309     0.143159806018     1.007825032230

  Basis Set: AUG-CC-PVTZ
    Blend: AUG-CC-PVTZ
  Basis Set: (AUG-CC-PVTZ AUX)
    Blend: AUG-CC-PVTZ-JKFIT
	 Reference Energy          =    -852.0601490937417566 [Eh]
	 Singles Energy            =      -0.0000000000000000 [Eh]
	 Same-Spin Energy          =      -0.5692275220493066 [Eh]
	 Opposite-Spin Energy      =      -1.7094346273531795 [Eh]
	 Correlation Energy        =      -2.2786621494024861 [Eh]
	 Total Energy              =    -854.3388112431442778 [Eh]

	 ================> DF-SCS-MP2 Energies <==================
	-----------------------------------------------------------
	 SCS Same-Spin Scale       =       0.3333333333333333 [-]
	 SCS Opposite-Spin Scale   =       1.2000000000000000 [-]
	 SCS Same-Spin Energy      =      -0.1897425073497689 [Eh]
	 SCS Opposite-Spin Energy  =      -2.0513215528238153 [Eh]
	 SCS Correlation Energy    =      -2.2410640601735841 [Eh]
	 SCS Total Energy          =    -854.3012131539153415 [Eh]
	-----------------------------------------------------------

  Dipole Moment: [D]
     X:    -1.2952      Y:     0.3793      Z:     0.1517     Total:     1.3581

*** Psi4 exiting successfully. Buy a developer a beer!
