                               Psi4 1.3.2 release

  ==> Input File <==

--------------------------------------------------------------------------
#psi4
#
memory 32 gb

molecule  {
0 1
  S        2.3127110    -1.0235480     0.0053950
  N       -0.6038690    -1.4671430     0.0025680
  N        1.5465020     1.4501510    -0.0053670
  C       -2.6591070     0.4777660    -0.0131840
  C       -0.3303560    -0.1463500    -0.0014890
  C       -1.3149260     0.8499960    -0.0079370
  C        1.0887172     0.2072596    -0.1012911
  C       -2.9473560    -0.8932820    -0.0075970
  C       -3.7562130     1.5070280     0.0143710
  C       -1.9011700    -1.8146870    -0.0009620
  C        3.5068880     0.2049870     0.0025490
  C        2.9141540     1.4483870    -0.0033310
  H       -1.0097250     1.8934330    -0.0150530
  H       -3.9776190    -1.2428240    -0.0150370
  H       -4.0970980     1.6828510     1.0402330
  H       -3.4086480     2.4606730    -0.3912090
  H       -4.6191930     1.1768790    -0.5707550
  H       -2.1040920    -2.8844300    -0.0003970
  H        4.5630320    -0.0321470     0.0049780
  H        3.4487670     2.3922440    -0.0062430
units angstrom
no_reorient  #important for SAPT in psi4, default
symmetry c1  #important for SAPT in psi4, default
}

set PROPERTIES_ORIGIN ["COM"]
properties('MP2/aug-cc-pvtz', properties = ['dipole'])
--------------------------------------------------------------------------

    Molecular point group: c1
  Charge       = 0
  Multiplicity = 1
  Basis Set: AUG-CC-PVTZ
    Blend: AUG-CC-PVTZ
  Basis Set: (AUG-CC-PVTZ AUX)
    Blend: AUG-CC-PVTZ-JKFIT

    Orbital Energies [Eh]
    ---------------------

    Doubly Occupied:

       1A    -91.994054     2A    -15.573488     3A    -15.571616
       4A    -11.312345     5A    -11.294141     6A    -11.281763
       7A    -11.271455     8A    -11.268695     9A    -11.263887
      10A    -11.243170    11A    -11.241702    12A    -11.239671
      13A     -8.993987    14A     -6.674743    15A     -6.674189
      16A     -6.673529    17A     -1.284076    18A     -1.256223
      19A     -1.113679    20A     -1.064925    21A     -1.059821
      22A     -0.984183    23A     -0.972240    24A     -0.871457
      25A     -0.843545    26A     -0.783452    27A     -0.749472
      28A     -0.697317    29A     -0.678850    30A     -0.671232
      31A     -0.633932    32A     -0.595734    33A     -0.587183
      34A     -0.573335    35A     -0.569987    36A     -0.561598
      37A     -0.546929    38A     -0.526385    39A     -0.514024
      40A     -0.500397    41A     -0.441518    42A     -0.421380
      43A     -0.392922    44A     -0.381275    45A     -0.366131
      46A     -0.305102

  @DF-RHF Final Energy:  -852.05850982159461

   => Energetics <=

    Nuclear Repulsion Energy =            720.1947067352283511
    One-Electron Energy =               -2595.4649496564679794
    Two-Electron Energy =                1023.2117330996449027
    Total Energy =                       -852.0585098215946118
  Basis Set: (AUG-CC-PVTZ AUX)
    Blend: AUG-CC-PVTZ-RI
    Molecular point group: c1

    Geometry (in Angstrom), charge = 0, multiplicity = 1:

       Center              X                  Y                   Z               Mass
    ------------   -----------------  -----------------  -----------------  -----------------
         S            2.249900325620    -0.992985002632     0.012474480129    31.972071174400
         N           -0.666679674380    -1.436580002632     0.009647480129    14.003074004430
         N            1.483691325620     1.480713997368     0.001712480129    14.003074004430
         C           -2.721917674380     0.508328997368    -0.006104519871    12.000000000000
         C           -0.393166674380    -0.115787002632     0.005590480129    12.000000000000
         C           -1.377736674380     0.880558997368    -0.000857519871    12.000000000000
         C            1.025906525620     0.237822597368    -0.094211619871    12.000000000000
         C           -3.010166674380    -0.862719002632    -0.000517519871    12.000000000000
         C           -3.819023674380     1.537590997368     0.021450480129    12.000000000000
         C           -1.963980674380    -1.784124002632     0.006117480129    12.000000000000
         C            3.444077325620     0.235549997368     0.009628480129    12.000000000000
         C            2.851343325620     1.478949997368     0.003748480129    12.000000000000
         H           -1.072535674380     1.923995997368    -0.007973519871     1.007825032230
         H           -4.040429674380    -1.212261002632    -0.007957519871     1.007825032230
         H           -4.159908674380     1.713413997368     1.047312480129     1.007825032230
         H           -3.471458674380     2.491235997368    -0.384129519871     1.007825032230
         H           -4.682003674380     1.207441997368    -0.563675519871     1.007825032230
         H           -2.166902674380    -2.853867002632     0.006682480129     1.007825032230
         H            4.500221325620    -0.001584002632     0.012057480129     1.007825032230
         H            3.385956325620     2.422806997368     0.000836480129     1.007825032230

  Basis Set: AUG-CC-PVTZ
    Blend: AUG-CC-PVTZ
  Basis Set: (AUG-CC-PVTZ AUX)
    Blend: AUG-CC-PVTZ-JKFIT
	 Reference Energy          =    -852.0585098215946118 [Eh]
	 Singles Energy            =      -0.0000000000000000 [Eh]
	 Same-Spin Energy          =      -0.5693455498330852 [Eh]
	 Opposite-Spin Energy      =      -1.7096701038930668 [Eh]
	 Correlation Energy        =      -2.2790156537261521 [Eh]
	 Total Energy              =    -854.3375254753207173 [Eh]

	 ================> DF-SCS-MP2 Energies <==================
	-----------------------------------------------------------
	 SCS Same-Spin Scale       =       0.3333333333333333 [-]
	 SCS Opposite-Spin Scale   =       1.2000000000000000 [-]
	 SCS Same-Spin Energy      =      -0.1897818499443617 [Eh]
	 SCS Opposite-Spin Energy  =      -2.0516041246716803 [Eh]
	 SCS Correlation Energy    =      -2.2413859746160418 [Eh]
	 SCS Total Energy          =    -854.2998957962106488 [Eh]
	-----------------------------------------------------------

  Dipole Moment: [D]
     X:    -1.2537      Y:     0.4050      Z:     0.0697     Total:     1.3193

*** Psi4 exiting successfully. Buy a developer a beer!
