                               Psi4 1.3.2 release

  ==> Input File <==

--------------------------------------------------------------------------
#psi4
#
memory 32 gb

molecule  {
0 1
  S        2.3127110    -1.0235480     0.0053950
  N       -0.6038690    -1.4671430     0.0025680
  N        1.5465020     1.4501510    -0.0053670
  C       -2.6591070     0.4777660    -0.0131840
  C       -0.3303560    -0.1463500    -0.0014890
  C       -1.3149260     0.8499960    -0.0079370
  C        1.0885480     0.2076610    -0.0012920
  C       -2.9473560    -0.8932820    -0.0075970
  C       -3.7562130     1.5070280     0.0143710
  C       -1.9011700    -1.8146870    -0.0009620
  C        3.5068880     0.2049870     0.0025490
  C        2.9141540     1.4483870    -0.0033310
  H       -1.0097250     1.8934330    -0.0150530
  H       -3.9776190    -1.2428240    -0.0150370
  H       -4.0970980     1.6828510     1.0402330
  H       -3.4086480     2.4606730    -0.3912090
  H       -4.6191930     1.1768790    -0.5707550
  H       -2.1040920    -2.8844300    -0.0003970
  H        4.5630320    -0.0321470     0.0049780
  H        3.4486915     2.3924430     0.0437565
units angstrom
no_reorient  #important for SAPT in psi4, default
symmetry c1  #important for SAPT in psi4, default
}

set PROPERTIES_ORIGIN ["COM"]
properties('MP2/aug-cc-pvtz', properties = ['dipole'])
--------------------------------------------------------------------------

    Molecular point group: c1
  Charge       = 0
  Multiplicity = 1
  Basis Set: AUG-CC-PVTZ
    Blend: AUG-CC-PVTZ
  Basis Set: (AUG-CC-PVTZ AUX)
    Blend: AUG-CC-PVTZ-JKFIT

    Orbital Energies [Eh]
    ---------------------

    Doubly Occupied:

       1A    -91.993784     2A    -15.572443     3A    -15.571913
       4A    -11.311755     5A    -11.293988     6A    -11.281918
       7A    -11.271625     8A    -11.268575     9A    -11.263382
      10A    -11.243438    11A    -11.241996    12A    -11.239801
      13A     -8.993773    14A     -6.674538    15A     -6.673987
      16A     -6.673327    17A     -1.284792    18A     -1.256617
      19A     -1.113903    20A     -1.065313    21A     -1.060292
      22A     -0.984365    23A     -0.972410    24A     -0.872005
      25A     -0.843897    26A     -0.783896    27A     -0.749585
      28A     -0.697438    29A     -0.679033    30A     -0.671337
      31A     -0.633968    32A     -0.595894    33A     -0.587502
      34A     -0.572670    35A     -0.571373    36A     -0.561777
      37A     -0.547006    38A     -0.526461    39A     -0.515113
      40A     -0.500378    41A     -0.441274    42A     -0.421257
      43A     -0.393559    44A     -0.381654    45A     -0.366366
      46A     -0.304995

  @DF-RHF Final Energy:  -852.06140426440425

   => Energetics <=

    Nuclear Repulsion Energy =            720.3550851190749427
    One-Electron Energy =               -2595.7802355443527631
    Two-Electron Energy =                1023.3637461608736885
    Total Energy =                       -852.0614042644042456
  Basis Set: (AUG-CC-PVTZ AUX)
    Blend: AUG-CC-PVTZ-RI
    Molecular point group: c1

    Geometry (in Angstrom), charge = 0, multiplicity = 1:

       Center              X                  Y                   Z               Mass
    ------------   -----------------  -----------------  -----------------  -----------------
         S            2.249912291542    -0.993013503733     0.005371695947    31.972071174400
         N           -0.666667708458    -1.436608503733     0.002544695947    14.003074004430
         N            1.483703291542     1.480685496267    -0.005390304053    14.003074004430
         C           -2.721905708458     0.508300496267    -0.013207304053    12.000000000000
         C           -0.393154708458    -0.115815503733    -0.001512304053    12.000000000000
         C           -1.377724708458     0.880530496267    -0.007960304053    12.000000000000
         C            1.025749291542     0.238195496267    -0.001315304053    12.000000000000
         C           -3.010154708458    -0.862747503733    -0.007620304053    12.000000000000
         C           -3.819011708458     1.537562496267     0.014347695947    12.000000000000
         C           -1.963968708458    -1.784152503733    -0.000985304053    12.000000000000
         C            3.444089291542     0.235521496267     0.002525695947    12.000000000000
         C            2.851355291542     1.478921496267    -0.003354304053    12.000000000000
         H           -1.072523708458     1.923967496267    -0.015076304053     1.007825032230
         H           -4.040417708458    -1.212289503733    -0.015060304053     1.007825032230
         H           -4.159896708458     1.713385496267     1.040209695947     1.007825032230
         H           -3.471446708458     2.491207496267    -0.391232304053     1.007825032230
         H           -4.681991708458     1.207413496267    -0.570778304053     1.007825032230
         H           -2.166890708458    -2.853895503733    -0.000420304053     1.007825032230
         H            4.500233291542    -0.001612503733     0.004954695947     1.007825032230
         H            3.385892791542     2.422977496267     0.043733195947     1.007825032230

  Basis Set: AUG-CC-PVTZ
    Blend: AUG-CC-PVTZ
  Basis Set: (AUG-CC-PVTZ AUX)
    Blend: AUG-CC-PVTZ-JKFIT
	 Reference Energy          =    -852.0614042644042456 [Eh]
	 Singles Energy            =      -0.0000000000000000 [Eh]
	 Same-Spin Energy          =      -0.5691563920127513 [Eh]
	 Opposite-Spin Energy      =      -1.7092851687414310 [Eh]
	 Correlation Energy        =      -2.2784415607541821 [Eh]
	 Total Energy              =    -854.3398458251584771 [Eh]

	 ================> DF-SCS-MP2 Energies <==================
	-----------------------------------------------------------
	 SCS Same-Spin Scale       =       0.3333333333333333 [-]
	 SCS Opposite-Spin Scale   =       1.2000000000000000 [-]
	 SCS Same-Spin Energy      =      -0.1897187973375837 [Eh]
	 SCS Opposite-Spin Energy  =      -2.0511422024897170 [Eh]
	 SCS Correlation Energy    =      -2.2408609998273006 [Eh]
	 SCS Total Energy          =    -854.3022652642315506 [Eh]
	-----------------------------------------------------------

  Dipole Moment: [D]
     X:    -1.2818      Y:     0.3934      Z:     0.0788     Total:     1.3431

*** Psi4 exiting successfully. Buy a developer a beer!
