                               Psi4 1.3.2 release

  ==> Input File <==

--------------------------------------------------------------------------
#psi4
#
memory 32 gb

molecule  {
0 1
  S        2.3127110    -1.0235480     0.0053950
  N       -0.6038690    -1.4671430     0.0025680
  N        1.5465020     1.4501510    -0.0053670
  C       -2.6591070     0.4777660    -0.0131840
  C       -0.3303560    -0.1463500    -0.0014890
  C       -1.3149260     0.8499960    -0.0079370
  C        1.0886326     0.2074603    -0.0512915
  C       -2.9473560    -0.8932820    -0.0075970
  C       -3.7562130     1.5070280     0.0143710
  C       -1.9011700    -1.8146870    -0.0009620
  C        3.5068880     0.2049870     0.0025490
  C        2.9141540     1.4483870    -0.0033310
  H       -1.0097250     1.8934330    -0.0150530
  H       -3.9776190    -1.2428240    -0.0150370
  H       -4.0970980     1.6828510     1.0402330
  H       -3.4086480     2.4606730    -0.3912090
  H       -4.6191930     1.1768790    -0.5707550
  H       -2.1040920    -2.8844300    -0.0003970
  H        4.5630320    -0.0321470     0.0049780
  H        3.4487670     2.3922440    -0.0062430
units angstrom
no_reorient  #important for SAPT in psi4, default
symmetry c1  #important for SAPT in psi4, default
}

set PROPERTIES_ORIGIN ["COM"]
properties('MP2/aug-cc-pvtz', properties = ['dipole'])
--------------------------------------------------------------------------

    Molecular point group: c1
  Charge       = 0
  Multiplicity = 1
  Basis Set: AUG-CC-PVTZ
    Blend: AUG-CC-PVTZ
  Basis Set: (AUG-CC-PVTZ AUX)
    Blend: AUG-CC-PVTZ-JKFIT

    Orbital Energies [Eh]
    ---------------------

    Doubly Occupied:

       1A    -91.993839     2A    -15.572698     3A    -15.571837
       4A    -11.311897     5A    -11.294023     6A    -11.281878
       7A    -11.271579     8A    -11.268534     9A    -11.263481
      10A    -11.243370    11A    -11.241917    12A    -11.239766
      13A     -8.993814    14A     -6.674577    15A     -6.674025
      16A     -6.673364    17A     -1.284605    18A     -1.256515
      19A     -1.113843    20A     -1.065208    21A     -1.060168
      22A     -0.984340    23A     -0.972366    24A     -0.871877
      25A     -0.843804    26A     -0.783836    27A     -0.749576
      28A     -0.697423    29A     -0.679005    30A     -0.671332
      31A     -0.634005    32A     -0.595851    33A     -0.587445
      34A     -0.572885    35A     -0.570986    36A     -0.561737
      37A     -0.547014    38A     -0.526403    39A     -0.514822
      40A     -0.500451    41A     -0.441332    42A     -0.421285
      43A     -0.393391    44A     -0.381565    45A     -0.366311
      46A     -0.305018

  @DF-RHF Final Energy:  -852.06079030510534

   => Energetics <=

    Nuclear Repulsion Energy =            720.3181869255088259
    One-Electron Energy =               -2595.7079562619683202
    Two-Electron Energy =                1023.3289790313541516
    Total Energy =                       -852.0607903051053427
  Basis Set: (AUG-CC-PVTZ AUX)
    Blend: AUG-CC-PVTZ-RI
    Molecular point group: c1

    Geometry (in Angstrom), charge = 0, multiplicity = 1:

       Center              X                  Y                   Z               Mass
    ------------   -----------------  -----------------  -----------------  -----------------
         S            2.249906092464    -0.992998683550     0.009066206969    31.972071174400
         N           -0.666673907536    -1.436593683550     0.006239206969    14.003074004430
         N            1.483697092464     1.480700316450    -0.001695793031    14.003074004430
         C           -2.721911907536     0.508315316450    -0.009512793031    12.000000000000
         C           -0.393160907536    -0.115800683550     0.002182206969    12.000000000000
         C           -1.377730907536     0.880545316450    -0.004265793031    12.000000000000
         C            1.025827692464     0.238009616450    -0.047620293031    12.000000000000
         C           -3.010160907536    -0.862732683550    -0.003925793031    12.000000000000
         C           -3.819017907536     1.537577316450     0.018042206969    12.000000000000
         C           -1.963974907536    -1.784137683550     0.002709206969    12.000000000000
         C            3.444083092464     0.235536316450     0.006220206969    12.000000000000
         C            2.851349092464     1.478936316450     0.000340206969    12.000000000000
         H           -1.072529907536     1.923982316450    -0.011381793031     1.007825032230
         H           -4.040423907536    -1.212274683550    -0.011365793031     1.007825032230
         H           -4.159902907536     1.713400316450     1.043904206969     1.007825032230
         H           -3.471452907536     2.491222316450    -0.387537793031     1.007825032230
         H           -4.681997907536     1.207428316450    -0.567083793031     1.007825032230
         H           -2.166896907536    -2.853880683550     0.003274206969     1.007825032230
         H            4.500227092464    -0.001597683550     0.008649206969     1.007825032230
         H            3.385962092464     2.422793316450    -0.002571793031     1.007825032230

  Basis Set: AUG-CC-PVTZ
    Blend: AUG-CC-PVTZ
  Basis Set: (AUG-CC-PVTZ AUX)
    Blend: AUG-CC-PVTZ-JKFIT
	 Reference Energy          =    -852.0607903051053427 [Eh]
	 Singles Energy            =      -0.0000000000000000 [Eh]
	 Same-Spin Energy          =      -0.5691975840817087 [Eh]
	 Opposite-Spin Energy      =      -1.7093633344335704 [Eh]
	 Correlation Energy        =      -2.2785609185152791 [Eh]
	 Total Energy              =    -854.3393512236206107 [Eh]

	 ================> DF-SCS-MP2 Energies <==================
	-----------------------------------------------------------
	 SCS Same-Spin Scale       =       0.3333333333333333 [-]
	 SCS Opposite-Spin Scale   =       1.2000000000000000 [-]
	 SCS Same-Spin Energy      =      -0.1897325280272362 [Eh]
	 SCS Opposite-Spin Energy  =      -2.0512360013202842 [Eh]
	 SCS Correlation Energy    =      -2.2409685293475206 [Eh]
	 SCS Total Energy          =    -854.3017588344528122 [Eh]
	-----------------------------------------------------------

  Dipole Moment: [D]
     X:    -1.2734      Y:     0.3974      Z:     0.0557     Total:     1.3351

*** Psi4 exiting successfully. Buy a developer a beer!
