                               Psi4 1.3.2 release

  ==> Input File <==

--------------------------------------------------------------------------
#psi4
#
memory 32 gb

molecule  {
0 1
  S        2.3127110    -1.0235480     0.0053950
  N       -0.6038690    -1.4671430     0.0025680
  N        1.5465020     1.4501510    -0.0053670
  C       -2.6591070     0.4777660    -0.0131840
  C       -0.3304854    -0.1459550     0.0985101
  C       -1.3149260     0.8499960    -0.0079370
  C        1.0885480     0.2076610    -0.0012920
  C       -2.9473560    -0.8932820    -0.0075970
  C       -3.7562130     1.5070280     0.0143710
  C       -1.9011700    -1.8146870    -0.0009620
  C        3.5068880     0.2049870     0.0025490
  C        2.9141540     1.4483870    -0.0033310
  H       -1.0097250     1.8934330    -0.0150530
  H       -3.9776190    -1.2428240    -0.0150370
  H       -4.0970980     1.6828510     1.0402330
  H       -3.4086480     2.4606730    -0.3912090
  H       -4.6191930     1.1768790    -0.5707550
  H       -2.1040920    -2.8844300    -0.0003970
  H        4.5630320    -0.0321470     0.0049780
  H        3.4487670     2.3922440    -0.0062430
units angstrom
no_reorient  #important for SAPT in psi4, default
symmetry c1  #important for SAPT in psi4, default
}

set PROPERTIES_ORIGIN ["COM"]
properties('MP2/aug-cc-pvtz', properties = ['dipole'])
--------------------------------------------------------------------------

    Molecular point group: c1
  Charge       = 0
  Multiplicity = 1
  Basis Set: AUG-CC-PVTZ
    Blend: AUG-CC-PVTZ
  Basis Set: (AUG-CC-PVTZ AUX)
    Blend: AUG-CC-PVTZ-JKFIT

    Orbital Energies [Eh]
    ---------------------

    Doubly Occupied:

       1A    -91.993473     2A    -15.572739     3A    -15.572102
       4A    -11.311970     5A    -11.294910     6A    -11.281846
       7A    -11.271584     8A    -11.268329     9A    -11.263097
      10A    -11.243949    11A    -11.243033    12A    -11.239909
      13A     -8.993494    14A     -6.674261    15A     -6.673707
      16A     -6.673044    17A     -1.284328    18A     -1.256024
      19A     -1.113857    20A     -1.064888    21A     -1.059974
      22A     -0.984154    23A     -0.972171    24A     -0.871696
      25A     -0.843294    26A     -0.783804    27A     -0.748941
      28A     -0.697217    29A     -0.678350    30A     -0.671456
      31A     -0.634256    32A     -0.595688    33A     -0.587326
      34A     -0.572899    35A     -0.570605    36A     -0.561700
      37A     -0.547080    38A     -0.526416    39A     -0.514283
      40A     -0.500274    41A     -0.441174    42A     -0.421541
      43A     -0.393306    44A     -0.381225    45A     -0.365837
      46A     -0.304830

  @DF-RHF Final Energy:  -852.05766959657819

   => Energetics <=

    Nuclear Repulsion Energy =            720.1998216226634213
    One-Electron Energy =               -2595.4749040849587800
    Two-Electron Energy =                1023.2174128657171650
    Total Energy =                       -852.0576695965781937
  Basis Set: (AUG-CC-PVTZ AUX)
    Blend: AUG-CC-PVTZ-RI
    Molecular point group: c1

    Geometry (in Angstrom), charge = 0, multiplicity = 1:

       Center              X                  Y                   Z               Mass
    ------------   -----------------  -----------------  -----------------  -----------------
         S            2.249920679990    -0.993039290042    -0.001158598879    31.972071174400
         N           -0.666659320010    -1.436634290042    -0.003985598879    14.003074004430
         N            1.483711679990     1.480659709958    -0.011920598879    14.003074004430
         C           -2.721897320010     0.508274709958    -0.019737598879    12.000000000000
         C           -0.393275720010    -0.115446290042     0.091956501121    12.000000000000
         C           -1.377716320010     0.880504709958    -0.014490598879    12.000000000000
         C            1.025757679990     0.238169709958    -0.007845598879    12.000000000000
         C           -3.010146320010    -0.862773290042    -0.014150598879    12.000000000000
         C           -3.819003320010     1.537536709958     0.007817401121    12.000000000000
         C           -1.963960320010    -1.784178290042    -0.007515598879    12.000000000000
         C            3.444097679990     0.235495709958    -0.004004598879    12.000000000000
         C            2.851363679990     1.478895709958    -0.009884598879    12.000000000000
         H           -1.072515320010     1.923941709958    -0.021606598879     1.007825032230
         H           -4.040409320010    -1.212315290042    -0.021590598879     1.007825032230
         H           -4.159888320010     1.713359709958     1.033679401121     1.007825032230
         H           -3.471438320010     2.491181709958    -0.397762598879     1.007825032230
         H           -4.681983320010     1.207387709958    -0.577308598879     1.007825032230
         H           -2.166882320010    -2.853921290042    -0.006950598879     1.007825032230
         H            4.500241679990    -0.001638290042    -0.001575598879     1.007825032230
         H            3.385976679990     2.422752709958    -0.012796598879     1.007825032230

  Basis Set: AUG-CC-PVTZ
    Blend: AUG-CC-PVTZ
  Basis Set: (AUG-CC-PVTZ AUX)
    Blend: AUG-CC-PVTZ-JKFIT
	 Reference Energy          =    -852.0576695965781937 [Eh]
	 Singles Energy            =      -0.0000000000000000 [Eh]
	 Same-Spin Energy          =      -0.5693387018775484 [Eh]
	 Opposite-Spin Energy      =      -1.7096363081926556 [Eh]
	 Correlation Energy        =      -2.2789750100702042 [Eh]
	 Total Energy              =    -854.3366446066484059 [Eh]

	 ================> DF-SCS-MP2 Energies <==================
	-----------------------------------------------------------
	 SCS Same-Spin Scale       =       0.3333333333333333 [-]
	 SCS Opposite-Spin Scale   =       1.2000000000000000 [-]
	 SCS Same-Spin Energy      =      -0.1897795672925161 [Eh]
	 SCS Opposite-Spin Energy  =      -2.0515635698311865 [Eh]
	 SCS Correlation Energy    =      -2.2413431371237027 [Eh]
	 SCS Total Energy          =    -854.2990127337019430 [Eh]
	-----------------------------------------------------------

  Dipole Moment: [D]
     X:    -1.3025      Y:     0.3917      Z:     0.0741     Total:     1.3621

*** Psi4 exiting successfully. Buy a developer a beer!
