                               Psi4 1.3.2 release

  ==> Input File <==

--------------------------------------------------------------------------
#psi4
#
memory 32 gb

molecule  {
0 1
  S        2.3127110    -1.0235480     0.0053950
  N       -0.6038690    -1.4671430     0.0025680
  N        1.5465020     1.4501510    -0.0053670
  C       -2.6591070     0.4777660    -0.0131840
  C       -0.3304207    -0.1461525     0.0485106
  C       -1.3149260     0.8499960    -0.0079370
  C        1.0885480     0.2076610    -0.0012920
  C       -2.9473560    -0.8932820    -0.0075970
  C       -3.7562130     1.5070280     0.0143710
  C       -1.9011700    -1.8146870    -0.0009620
  C        3.5068880     0.2049870     0.0025490
  C        2.9141540     1.4483870    -0.0033310
  H       -1.0097250     1.8934330    -0.0150530
  H       -3.9776190    -1.2428240    -0.0150370
  H       -4.0970980     1.6828510     1.0402330
  H       -3.4086480     2.4606730    -0.3912090
  H       -4.6191930     1.1768790    -0.5707550
  H       -2.1040920    -2.8844300    -0.0003970
  H        4.5630320    -0.0321470     0.0049780
  H        3.4487670     2.3922440    -0.0062430
units angstrom
no_reorient  #important for SAPT in psi4, default
symmetry c1  #important for SAPT in psi4, default
}

set PROPERTIES_ORIGIN ["COM"]
properties('MP2/aug-cc-pvtz', properties = ['dipole'])
--------------------------------------------------------------------------

    Molecular point group: c1
  Charge       = 0
  Multiplicity = 1
  Basis Set: AUG-CC-PVTZ
    Blend: AUG-CC-PVTZ
  Basis Set: (AUG-CC-PVTZ AUX)
    Blend: AUG-CC-PVTZ-JKFIT

    Orbital Energies [Eh]
    ---------------------

    Doubly Occupied:

       1A    -91.993693     2A    -15.572352     3A    -15.572132
       4A    -11.311804     5A    -11.294224     6A    -11.281901
       7A    -11.271609     8A    -11.268444     9A    -11.263285
      10A    -11.243567    11A    -11.242260    12A    -11.239836
      13A     -8.993691    14A     -6.674457    15A     -6.673905
      16A     -6.673244    17A     -1.284670    18A     -1.256465
      19A     -1.113887    20A     -1.065201    21A     -1.060209
      22A     -0.984334    23A     -0.972346    24A     -0.871942
      25A     -0.843742    26A     -0.783926    27A     -0.749445
      28A     -0.697399    29A     -0.678887    30A     -0.671392
      31A     -0.634101    32A     -0.595806    33A     -0.587483
      34A     -0.572722    35A     -0.571221    36A     -0.561759
      37A     -0.547048    38A     -0.526415    39A     -0.514899
      40A     -0.500420    41A     -0.441247    42A     -0.421330
      43A     -0.393489    44A     -0.381548    45A     -0.366236
      46A     -0.304951

  @DF-RHF Final Energy:  -852.06058265573267

   => Energetics <=

    Nuclear Repulsion Energy =            720.3189046990729594
    One-Electron Energy =               -2595.7091279573837710
    Two-Electron Energy =                1023.3296406025782517
    Total Energy =                       -852.0605826557326736
  Basis Set: (AUG-CC-PVTZ AUX)
    Blend: AUG-CC-PVTZ-RI
    Molecular point group: c1

    Geometry (in Angstrom), charge = 0, multiplicity = 1:

       Center              X                  Y                   Z               Mass
    ------------   -----------------  -----------------  -----------------  -----------------
         S            2.249916269649    -0.993025827255     0.002249667465    31.972071174400
         N           -0.666663730351    -1.436620827255    -0.000577332535    14.003074004430
         N            1.483707269649     1.480673172745    -0.008512332535    14.003074004430
         C           -2.721901730351     0.508288172745    -0.016329332535    12.000000000000
         C           -0.393215430351    -0.115630327255     0.045365267465    12.000000000000
         C           -1.377720730351     0.880518172745    -0.011082332535    12.000000000000
         C            1.025753269649     0.238183172745    -0.004437332535    12.000000000000
         C           -3.010150730351    -0.862759827255    -0.010742332535    12.000000000000
         C           -3.819007730351     1.537550172745     0.011225667465    12.000000000000
         C           -1.963964730351    -1.784164827255    -0.004107332535    12.000000000000
         C            3.444093269649     0.235509172745    -0.000596332535    12.000000000000
         C            2.851359269649     1.478909172745    -0.006476332535    12.000000000000
         H           -1.072519730351     1.923955172745    -0.018198332535     1.007825032230
         H           -4.040413730351    -1.212301827255    -0.018182332535     1.007825032230
         H           -4.159892730351     1.713373172745     1.037087667465     1.007825032230
         H           -3.471442730351     2.491195172745    -0.394354332535     1.007825032230
         H           -4.681987730351     1.207401172745    -0.573900332535     1.007825032230
         H           -2.166886730351    -2.853907827255    -0.003542332535     1.007825032230
         H            4.500237269649    -0.001624827255     0.001832667465     1.007825032230
         H            3.385972269649     2.422766172745    -0.009388332535     1.007825032230

  Basis Set: AUG-CC-PVTZ
    Blend: AUG-CC-PVTZ
  Basis Set: (AUG-CC-PVTZ AUX)
    Blend: AUG-CC-PVTZ-JKFIT
	 Reference Energy          =    -852.0605826557326736 [Eh]
	 Singles Energy            =      -0.0000000000000000 [Eh]
	 Same-Spin Energy          =      -0.5691962038105041 [Eh]
	 Opposite-Spin Energy      =      -1.7093531514680604 [Eh]
	 Correlation Energy        =      -2.2785493552785647 [Eh]
	 Total Energy              =    -854.3391320110112019 [Eh]

	 ================> DF-SCS-MP2 Energies <==================
	-----------------------------------------------------------
	 SCS Same-Spin Scale       =       0.3333333333333333 [-]
	 SCS Opposite-Spin Scale   =       1.2000000000000000 [-]
	 SCS Same-Spin Energy      =      -0.1897320679368347 [Eh]
	 SCS Opposite-Spin Energy  =      -2.0512237817616725 [Eh]
	 SCS Correlation Energy    =      -2.2409558496985071 [Eh]
	 SCS Total Energy          =    -854.3015385054311537 [Eh]
	-----------------------------------------------------------

  Dipole Moment: [D]
     X:    -1.2852      Y:     0.3939      Z:     0.0583     Total:     1.3455

*** Psi4 exiting successfully. Buy a developer a beer!
