                               Psi4 1.3.2 release

  ==> Input File <==

--------------------------------------------------------------------------
#psi4
#
memory 32 gb

molecule  {
0 1
  S        2.3127110    -1.0235480     0.0053950
  N       -0.6038690    -1.4671430     0.0025680
  N        1.5465020     1.4501510    -0.0053670
  C       -2.6591070     0.4777660    -0.0131840
  C       -0.3303560    -0.1463500    -0.0014890
  C       -1.3149260     0.8499960    -0.0079370
  C        1.0885480     0.2076610    -0.0012920
  C       -2.9473560    -0.8932820    -0.0075970
  C       -3.7562130     1.5070280     0.0143710
  C       -1.9011700    -1.8146870    -0.0009620
  C        3.5068880     0.2049870     0.0025490
  C        2.9141540     1.4483870    -0.0033310
  H       -1.0097250     1.8934330    -0.0150530
  H       -3.9776190    -1.2428240    -0.0150370
  H       -4.0970980     1.6828510     1.0402330
  H       -3.4086480     2.4606730    -0.3912090
  H       -4.6191930     1.1768790    -0.5707550
  H       -2.1040920    -2.8844300    -0.0003970
  H        4.5632622    -0.0327325    -0.1450207
  H        3.4487670     2.3922440    -0.0062430
units angstrom
no_reorient  #important for SAPT in psi4, default
symmetry c1  #important for SAPT in psi4, default
}

set PROPERTIES_ORIGIN ["COM"]
properties('MP2/aug-cc-pvtz', properties = ['dipole'])
--------------------------------------------------------------------------

    Molecular point group: c1
  Charge       = 0
  Multiplicity = 1
  Basis Set: AUG-CC-PVTZ
    Blend: AUG-CC-PVTZ
  Basis Set: (AUG-CC-PVTZ AUX)
    Blend: AUG-CC-PVTZ-JKFIT

    Orbital Energies [Eh]
    ---------------------

    Doubly Occupied:

       1A    -91.993684     2A    -15.572513     3A    -15.572014
       4A    -11.311973     5A    -11.294053     6A    -11.281994
       7A    -11.271704     8A    -11.268818     9A    -11.263976
      10A    -11.243546    11A    -11.242112    12A    -11.239864
      13A     -8.993683    14A     -6.674447    15A     -6.673891
      16A     -6.673232    17A     -1.284913    18A     -1.256719
      19A     -1.113990    20A     -1.065203    21A     -1.060254
      22A     -0.984393    23A     -0.972455    24A     -0.872074
      25A     -0.843783    26A     -0.783044    27A     -0.749644
      28A     -0.696749    29A     -0.679099    30A     -0.670932
      31A     -0.634110    32A     -0.596001    33A     -0.587663
      34A     -0.574485    35A     -0.568840    36A     -0.561817
      37A     -0.546771    38A     -0.526202    39A     -0.514983
      40A     -0.500456    41A     -0.441342    42A     -0.421325
      43A     -0.393424    44A     -0.381736    45A     -0.366443
      46A     -0.305079

  @DF-RHF Final Energy:  -852.06036765214537

   => Energetics <=

    Nuclear Repulsion Energy =            720.3186830035534740
    One-Electron Energy =               -2595.7072461061015929
    Two-Electron Energy =                1023.3281954504028590
    Total Energy =                       -852.0603676521453735
  Basis Set: (AUG-CC-PVTZ AUX)
    Blend: AUG-CC-PVTZ-RI
    Molecular point group: c1

    Geometry (in Angstrom), charge = 0, multiplicity = 1:

       Center              X                  Y                   Z               Mass
    ------------   -----------------  -----------------  -----------------  -----------------
         S            2.249910541425    -0.993009012509     0.006516675805    31.972071174400
         N           -0.666669458575    -1.436604012509     0.003689675805    14.003074004430
         N            1.483701541425     1.480689987491    -0.004245324195    14.003074004430
         C           -2.721907458575     0.508304987491    -0.012062324195    12.000000000000
         C           -0.393156458575    -0.115811012509    -0.000367324195    12.000000000000
         C           -1.377726458575     0.880534987491    -0.006815324195    12.000000000000
         C            1.025747541425     0.238199987491    -0.000170324195    12.000000000000
         C           -3.010156458575    -0.862743012509    -0.006475324195    12.000000000000
         C           -3.819013458575     1.537566987491     0.015492675805    12.000000000000
         C           -1.963970458575    -1.784148012509     0.000159675805    12.000000000000
         C            3.444087541425     0.235525987491     0.003670675805    12.000000000000
         C            2.851353541425     1.478925987491    -0.002209324195    12.000000000000
         H           -1.072525458575     1.923971987491    -0.013931324195     1.007825032230
         H           -4.040419458575    -1.212285012509    -0.013915324195     1.007825032230
         H           -4.159898458575     1.713389987491     1.041354675805     1.007825032230
         H           -3.471448458575     2.491211987491    -0.390087324195     1.007825032230
         H           -4.681993458575     1.207417987491    -0.569633324195     1.007825032230
         H           -2.166892458575    -2.853891012509     0.000724675805     1.007825032230
         H            4.500461741425    -0.002193512509    -0.143899024195     1.007825032230
         H            3.385966541425     2.422782987491    -0.005121324195     1.007825032230

  Basis Set: AUG-CC-PVTZ
    Blend: AUG-CC-PVTZ
  Basis Set: (AUG-CC-PVTZ AUX)
    Blend: AUG-CC-PVTZ-JKFIT
	 Reference Energy          =    -852.0603676521453735 [Eh]
	 Singles Energy            =      -0.0000000000000000 [Eh]
	 Same-Spin Energy          =      -0.5692201752204635 [Eh]
	 Opposite-Spin Energy      =      -1.7094065234619809 [Eh]
	 Correlation Energy        =      -2.2786266986824444 [Eh]
	 Total Energy              =    -854.3389943508277611 [Eh]

	 ================> DF-SCS-MP2 Energies <==================
	-----------------------------------------------------------
	 SCS Same-Spin Scale       =       0.3333333333333333 [-]
	 SCS Opposite-Spin Scale   =       1.2000000000000000 [-]
	 SCS Same-Spin Energy      =      -0.1897400584068212 [Eh]
	 SCS Opposite-Spin Energy  =      -2.0512878281543769 [Eh]
	 SCS Correlation Energy    =      -2.2410278865611981 [Eh]
	 SCS Total Energy          =    -854.3013955387065153 [Eh]
	-----------------------------------------------------------

  Dipole Moment: [D]
     X:    -1.2997      Y:     0.3997      Z:    -0.0770     Total:     1.3619

*** Psi4 exiting successfully. Buy a developer a beer!
