                               Psi4 1.4a3.dev225

  ==> Input File <==

--------------------------------------------------------------------------
#psi4
#
memory 32 gb

molecule  {
0 1
  O        0.8655410    -0.2383350    -0.1978900
  C       -1.3532420     0.4851090     0.1659470
  C        0.1056986     0.7733815     0.3576127
  C       -4.0760200    -0.2326370    -0.0482320
  C       -1.8292680    -0.6845410     0.7713590
  C       -2.2449120     1.2876570    -0.5496990
  C       -3.1721270    -1.0365930     0.6617200
  C       -3.5922330     0.9350480    -0.6483300
  C        2.2320470    -0.1282220    -0.1046120
  C       -5.5355430    -0.5984480    -0.1257210
  C        2.9140800     0.9938170     0.3783620
  C        2.9472190    -1.2508620    -0.5439590
  C        4.3132210     0.9773220     0.4183570
  C        4.3370840    -1.2508910    -0.4991240
  C        5.0300920    -0.1353830    -0.0155080
  H        0.3103430     1.7730630    -0.2708990
  H        0.3551050     1.0439550     1.3523320
  H       -1.1374380    -1.3254410     1.3139440
  H       -1.8855300     2.1916430    -1.0389860
  H       -3.5267120    -1.9532640     1.1308580
  H       -4.2733370     1.5694920    -1.2133600
  H       -6.0038750    -0.1617940    -1.0122750
  H       -5.6673980    -1.6833350    -0.1714030
  H       -6.0811880    -0.2353180     0.7521400
  H        2.3826970     1.8764090     0.7176150
  H        2.3879470    -2.1054110    -0.9150460
  H        4.8399070     1.8514100     0.7945710
  H        4.8825510    -2.1268580    -0.8422600
  H        6.1161710    -0.1361850     0.0199920
units angstrom
no_reorient  #important for SAPT in psi4, default
symmetry c1  #important for SAPT in psi4, default
}

set PROPERTIES_ORIGIN ["COM"]
properties('MP2/aug-cc-pvtz', properties = ['dipole'])
--------------------------------------------------------------------------

    Molecular point group: c1
  Charge       = 0
  Multiplicity = 1
  Basis Set: AUG-CC-PVTZ
    Blend: AUG-CC-PVTZ
  Basis Set: (AUG-CC-PVTZ AUX)
    Blend: AUG-CC-PVTZ-JKFIT

    Orbital Energies [Eh]
    ---------------------

    Doubly Occupied:

       1A    -20.588459     2A    -11.303668     3A    -11.294765
       4A    -11.243423     5A    -11.242211     6A    -11.240848
       7A    -11.238654     8A    -11.237286     9A    -11.234992
      10A    -11.233154    11A    -11.232087    12A    -11.230834
      13A    -11.230218    14A    -11.229394    15A    -11.225521
      16A     -1.422511    17A     -1.158665    18A     -1.146052
      19A     -1.066536    20A     -1.019689    21A     -1.013976
      22A     -1.010565    23A     -0.962536    24A     -0.899080
      25A     -0.834930    26A     -0.829893    27A     -0.812871
      28A     -0.781691    29A     -0.728977    30A     -0.687838
      31A     -0.671635    32A     -0.667073    33A     -0.645543
      34A     -0.632161    35A     -0.618798    36A     -0.611757
      37A     -0.588610    38A     -0.582908    39A     -0.576687
      40A     -0.569949    41A     -0.542446    42A     -0.536090
      43A     -0.517112    44A     -0.509980    45A     -0.492697
      46A     -0.487526    47A     -0.485521    48A     -0.477948
      49A     -0.450336    50A     -0.341277    51A     -0.336057
      52A     -0.322418    53A     -0.314970

  @DF-RHF Final Energy:  -613.36143352238673

   => Energetics <=

    Nuclear Repulsion Energy =            871.5878016757613977
    One-Electron Energy =               -2561.1768300407934476
    Two-Electron Energy =                1076.2275948426452032
    Total Energy =                       -613.3614335223867329
  Basis Set: (AUG-CC-PVTZ AUX)
    Blend: AUG-CC-PVTZ-RI
    Molecular point group: c1

    Geometry (in Angstrom), charge = 0, multiplicity = 1:

       Center              X                  Y                   Z               Mass
    ------------   -----------------  -----------------  -----------------  -----------------
         O            0.828189353568    -0.230197039845    -0.198268040625    15.994914619570
         C           -1.390593646432     0.493246960155     0.165568959375    12.000000000000
         C            0.068346953568     0.781519460155     0.357234659375    12.000000000000
         C           -4.113371646432    -0.224499039845    -0.048610040625    12.000000000000
         C           -1.866619646432    -0.676403039845     0.770980959375    12.000000000000
         C           -2.282263646432     1.295794960155    -0.550077040625    12.000000000000
         C           -3.209478646432    -1.028455039845     0.661341959375    12.000000000000
         C           -3.629584646432     0.943185960155    -0.648708040625    12.000000000000
         C            2.194695353568    -0.120084039845    -0.104990040625    12.000000000000
         C           -5.572894646432    -0.590310039845    -0.126099040625    12.000000000000
         C            2.876728353568     1.001954960155     0.377983959375    12.000000000000
         C            2.909867353568    -1.242724039845    -0.544337040625    12.000000000000
         C            4.275869353568     0.985459960155     0.417978959375    12.000000000000
         C            4.299732353568    -1.242753039845    -0.499502040625    12.000000000000
         C            4.992740353568    -0.127245039845    -0.015886040625    12.000000000000
         H            0.272991353568     1.781200960155    -0.271277040625     1.007825032230
         H            0.317753353568     1.052092960155     1.351953959375     1.007825032230
         H           -1.174789646432    -1.317303039845     1.313565959375     1.007825032230
         H           -1.922881646432     2.199780960155    -1.039364040625     1.007825032230
         H           -3.564063646432    -1.945126039845     1.130479959375     1.007825032230
         H           -4.310688646432     1.577629960155    -1.213738040625     1.007825032230
         H           -6.041226646432    -0.153656039845    -1.012653040625     1.007825032230
         H           -5.704749646432    -1.675197039845    -0.171781040625     1.007825032230
         H           -6.118539646432    -0.227180039845     0.751761959375     1.007825032230
         H            2.345345353568     1.884546960155     0.717236959375     1.007825032230
         H            2.350595353568    -2.097273039845    -0.915424040625     1.007825032230
         H            4.802555353568     1.859547960155     0.794192959375     1.007825032230
         H            4.845199353568    -2.118720039845    -0.842638040625     1.007825032230
         H            6.078819353568    -0.128047039845     0.019613959375     1.007825032230

  Basis Set: AUG-CC-PVTZ
    Blend: AUG-CC-PVTZ
  Basis Set: (AUG-CC-PVTZ AUX)
    Blend: AUG-CC-PVTZ-JKFIT
	 Reference Energy          =    -613.3614335223867329 [Eh]
	 Singles Energy            =      -0.0000000000000000 [Eh]
	 Same-Spin Energy          =      -0.6729055330489443 [Eh]
	 Opposite-Spin Energy      =      -2.1165221518026440 [Eh]
	 Correlation Energy        =      -2.7894276848515882 [Eh]
	 Total Energy              =    -616.1508612072383357 [Eh]

	 ================> DF-SCS-MP2 Energies <==================
	-----------------------------------------------------------
	 SCS Same-Spin Scale       =       0.3333333333333333 [-]
	 SCS Opposite-Spin Scale   =       1.2000000000000000 [-]
	 SCS Same-Spin Energy      =      -0.2243018443496481 [Eh]
	 SCS Opposite-Spin Energy  =      -2.5398265821631729 [Eh]
	 SCS Correlation Energy    =      -2.7641284265128210 [Eh]
	 SCS Total Energy          =    -616.1255619488995308 [Eh]
	-----------------------------------------------------------

  Dipole Moment: [D]
     X:    -0.7974      Y:     0.5181      Z:     0.5347     Total:     1.0909

*** Psi4 exiting successfully. Buy a developer a beer!
