                               Psi4 1.4a3.dev225

  ==> Input File <==

--------------------------------------------------------------------------
#psi4
#
memory 32 gb

molecule  {
0 1
  O        0.8655410    -0.2383350    -0.1978900
  C       -1.3532420     0.4851090     0.1659470
  C        0.0923410     0.8600100     0.3004220
  C       -4.0760200    -0.2326370    -0.0482320
  C       -1.8292680    -0.6845410     0.7713590
  C       -2.2449120     1.2876570    -0.5496990
  C       -3.1850155    -1.0251295     0.6515969
  C       -3.5922330     0.9350480    -0.6483300
  C        2.2320470    -0.1282220    -0.1046120
  C       -5.5355430    -0.5984480    -0.1257210
  C        2.9140800     0.9938170     0.3783620
  C        2.9472190    -1.2508620    -0.5439590
  C        4.3132210     0.9773220     0.4183570
  C        4.3370840    -1.2508910    -0.4991240
  C        5.0300920    -0.1353830    -0.0155080
  H        0.3103430     1.7730630    -0.2708990
  H        0.3551050     1.0439550     1.3523320
  H       -1.1374380    -1.3254410     1.3139440
  H       -1.8855300     2.1916430    -1.0389860
  H       -3.5267120    -1.9532640     1.1308580
  H       -4.2733370     1.5694920    -1.2133600
  H       -6.0038750    -0.1617940    -1.0122750
  H       -5.6673980    -1.6833350    -0.1714030
  H       -6.0811880    -0.2353180     0.7521400
  H        2.3826970     1.8764090     0.7176150
  H        2.3879470    -2.1054110    -0.9150460
  H        4.8399070     1.8514100     0.7945710
  H        4.8825510    -2.1268580    -0.8422600
  H        6.1161710    -0.1361850     0.0199920
units angstrom
no_reorient  #important for SAPT in psi4, default
symmetry c1  #important for SAPT in psi4, default
}

set PROPERTIES_ORIGIN ["COM"]
properties('MP2/aug-cc-pvtz', properties = ['dipole'])
--------------------------------------------------------------------------

    Molecular point group: c1
  Charge       = 0
  Multiplicity = 1
  Basis Set: AUG-CC-PVTZ
    Blend: AUG-CC-PVTZ
  Basis Set: (AUG-CC-PVTZ AUX)
    Blend: AUG-CC-PVTZ-JKFIT

    Orbital Energies [Eh]
    ---------------------

    Doubly Occupied:

       1A    -20.584006     2A    -11.301075     3A    -11.293188
       4A    -11.241499     5A    -11.241012     6A    -11.239449
       7A    -11.239160     8A    -11.237458     9A    -11.235894
      10A    -11.233004    11A    -11.232587    12A    -11.231854
      13A    -11.227740    14A    -11.227311    15A    -11.225596
      16A     -1.404950    17A     -1.159767    18A     -1.143964
      19A     -1.068371    20A     -1.017827    21A     -1.012431
      22A     -1.007799    23A     -0.963875    24A     -0.900415
      25A     -0.833645    26A     -0.831883    27A     -0.808832
      28A     -0.781982    29A     -0.721194    30A     -0.683638
      31A     -0.670732    32A     -0.663745    33A     -0.643927
      34A     -0.630277    35A     -0.621187    36A     -0.609185
      37A     -0.586841    38A     -0.582224    39A     -0.577254
      40A     -0.564479    41A     -0.542614    42A     -0.532056
      43A     -0.522885    44A     -0.514178    45A     -0.490601
      46A     -0.488927    47A     -0.484688    48A     -0.477780
      49A     -0.464430    50A     -0.340022    51A     -0.335704
      52A     -0.323947    53A     -0.312373

  @DF-RHF Final Energy:  -613.37110137938464

   => Energetics <=

    Nuclear Repulsion Energy =            870.9087267868729896
    One-Electron Energy =               -2559.9367231470014303
    Two-Electron Energy =                1075.6568949807438003
    Total Energy =                       -613.3711013793845268
  Basis Set: (AUG-CC-PVTZ AUX)
    Blend: AUG-CC-PVTZ-RI
    Molecular point group: c1

    Geometry (in Angstrom), charge = 0, multiplicity = 1:

       Center              X                  Y                   Z               Mass
    ------------   -----------------  -----------------  -----------------  -----------------
         O            0.829779187497    -0.236138874622    -0.194190567663    15.994914619570
         C           -1.389003812503     0.487305125378     0.169646432337    12.000000000000
         C            0.056579187497     0.862206125378     0.304121432337    12.000000000000
         C           -4.111781812503    -0.230440874622    -0.044532567663    12.000000000000
         C           -1.865029812503    -0.682344874622     0.775058432337    12.000000000000
         C           -2.280673812503     1.289853125378    -0.545999567663    12.000000000000
         C           -3.220777312503    -1.022933374622     0.655296332337    12.000000000000
         C           -3.627994812503     0.937244125378    -0.644630567663    12.000000000000
         C            2.196285187497    -0.126025874622    -0.100912567663    12.000000000000
         C           -5.571304812503    -0.596251874622    -0.122021567663    12.000000000000
         C            2.878318187497     0.996013125378     0.382061432337    12.000000000000
         C            2.911457187497    -1.248665874622    -0.540259567663    12.000000000000
         C            4.277459187497     0.979518125378     0.422056432337    12.000000000000
         C            4.301322187497    -1.248694874622    -0.495424567663    12.000000000000
         C            4.994330187497    -0.133186874622    -0.011808567663    12.000000000000
         H            0.274581187497     1.775259125378    -0.267199567663     1.007825032230
         H            0.319343187497     1.046151125378     1.356031432337     1.007825032230
         H           -1.173199812503    -1.323244874622     1.317643432337     1.007825032230
         H           -1.921291812503     2.193839125378    -1.035286567663     1.007825032230
         H           -3.562473812503    -1.951067874622     1.134557432337     1.007825032230
         H           -4.309098812503     1.571688125378    -1.209660567663     1.007825032230
         H           -6.039636812503    -0.159597874622    -1.008575567663     1.007825032230
         H           -5.703159812503    -1.681138874622    -0.167703567663     1.007825032230
         H           -6.116949812503    -0.233121874622     0.755839432337     1.007825032230
         H            2.346935187497     1.878605125378     0.721314432337     1.007825032230
         H            2.352185187497    -2.103214874622    -0.911346567663     1.007825032230
         H            4.804145187497     1.853606125378     0.798270432337     1.007825032230
         H            4.846789187497    -2.124661874622    -0.838560567663     1.007825032230
         H            6.080409187497    -0.133988874622     0.023691432337     1.007825032230

  Basis Set: AUG-CC-PVTZ
    Blend: AUG-CC-PVTZ
  Basis Set: (AUG-CC-PVTZ AUX)
    Blend: AUG-CC-PVTZ-JKFIT
	 Reference Energy          =    -613.3711013793846405 [Eh]
	 Singles Energy            =      -0.0000000000000000 [Eh]
	 Same-Spin Energy          =      -0.6727048018397317 [Eh]
	 Opposite-Spin Energy      =      -2.1165455672847546 [Eh]
	 Correlation Energy        =      -2.7892503691244865 [Eh]
	 Total Energy              =    -616.1603517485091288 [Eh]

	 ================> DF-SCS-MP2 Energies <==================
	-----------------------------------------------------------
	 SCS Same-Spin Scale       =       0.3333333333333333 [-]
	 SCS Opposite-Spin Scale   =       1.2000000000000000 [-]
	 SCS Same-Spin Energy      =      -0.2242349339465772 [Eh]
	 SCS Opposite-Spin Energy  =      -2.5398546807417053 [Eh]
	 SCS Correlation Energy    =      -2.7640896146882823 [Eh]
	 SCS Total Energy          =    -616.1351909940729001 [Eh]
	-----------------------------------------------------------

  Dipole Moment: [D]
     X:    -0.9870      Y:     0.7371      Z:     0.4707     Total:     1.3188

*** Psi4 exiting successfully. Buy a developer a beer!
