                               Psi4 1.4a3.dev225

  ==> Input File <==

--------------------------------------------------------------------------
#psi4
#
memory 32 gb

molecule  {
0 1
  O        0.8655410    -0.2383350    -0.1978900
  C       -1.3532420     0.4851090     0.1659470
  C        0.0923410     0.8600100     0.3004220
  C       -4.0760200    -0.2326370    -0.0482320
  C       -1.8292680    -0.6845410     0.7713590
  C       -2.2449120     1.2876570    -0.5496990
  C       -3.1721270    -1.0365930     0.6617200
  C       -3.5922330     0.9350480    -0.6483300
  C        2.2320470    -0.1282220    -0.1046120
  C       -5.5355430    -0.5984480    -0.1257210
  C        2.9140800     0.9938170     0.3783620
  C        2.9472190    -1.2508620    -0.5439590
  C        4.3132210     0.9773220     0.4183570
  C        4.3370840    -1.2508910    -0.4991240
  C        5.0558245    -0.1753242    -0.0310818
  H        0.3103430     1.7730630    -0.2708990
  H        0.3551050     1.0439550     1.3523320
  H       -1.1374380    -1.3254410     1.3139440
  H       -1.8855300     2.1916430    -1.0389860
  H       -3.5267120    -1.9532640     1.1308580
  H       -4.2733370     1.5694920    -1.2133600
  H       -6.0038750    -0.1617940    -1.0122750
  H       -5.6673980    -1.6833350    -0.1714030
  H       -6.0811880    -0.2353180     0.7521400
  H        2.3826970     1.8764090     0.7176150
  H        2.3879470    -2.1054110    -0.9150460
  H        4.8399070     1.8514100     0.7945710
  H        4.8825510    -2.1268580    -0.8422600
  H        6.1161710    -0.1361850     0.0199920
units angstrom
no_reorient  #important for SAPT in psi4, default
symmetry c1  #important for SAPT in psi4, default
}

set PROPERTIES_ORIGIN ["COM"]
properties('MP2/aug-cc-pvtz', properties = ['dipole'])
--------------------------------------------------------------------------

    Molecular point group: c1
  Charge       = 0
  Multiplicity = 1
  Basis Set: AUG-CC-PVTZ
    Blend: AUG-CC-PVTZ
  Basis Set: (AUG-CC-PVTZ AUX)
    Blend: AUG-CC-PVTZ-JKFIT

    Orbital Energies [Eh]
    ---------------------

    Doubly Occupied:

       1A    -20.584087     2A    -11.301529     3A    -11.293478
       4A    -11.246874     5A    -11.243932     6A    -11.239246
       7A    -11.237677     8A    -11.236686     9A    -11.235068
      10A    -11.234255    11A    -11.232350    12A    -11.232185
      13A    -11.227853    14A    -11.226489    15A    -11.225930
      16A     -1.405112    17A     -1.158767    18A     -1.141628
      19A     -1.066895    20A     -1.017275    21A     -1.013441
      22A     -1.008597    23A     -0.963324    24A     -0.899036
      25A     -0.834023    26A     -0.830940    27A     -0.809517
      28A     -0.782217    29A     -0.720762    30A     -0.683745
      31A     -0.671802    32A     -0.667559    33A     -0.643235
      34A     -0.630913    35A     -0.620745    36A     -0.608229
      37A     -0.584369    38A     -0.583636    39A     -0.577056
      40A     -0.563680    41A     -0.543361    42A     -0.536532
      43A     -0.522172    44A     -0.516368    45A     -0.489911
      46A     -0.486550    47A     -0.484689    48A     -0.477181
      49A     -0.463105    50A     -0.341566    51A     -0.336813
      52A     -0.322417    53A     -0.309390

  @DF-RHF Final Energy:  -613.36824492045946

   => Energetics <=

    Nuclear Repulsion Energy =            870.2226712979212380
    One-Electron Energy =               -2558.5534329356723902
    Two-Electron Energy =                1074.9625167172914644
    Total Energy =                       -613.3682449204595741
  Basis Set: (AUG-CC-PVTZ AUX)
    Blend: AUG-CC-PVTZ-RI
    Molecular point group: c1

    Geometry (in Angstrom), charge = 0, multiplicity = 1:

       Center              X                  Y                   Z               Mass
    ------------   -----------------  -----------------  -----------------  -----------------
         O            0.827439755118    -0.233025081100    -0.193860396407    15.994914619570
         C           -1.391343244882     0.490418918900     0.169976603593    12.000000000000
         C            0.054239755118     0.865319918900     0.304451603593    12.000000000000
         C           -4.114121244882    -0.227327081100    -0.044202396407    12.000000000000
         C           -1.867369244882    -0.679231081100     0.775388603593    12.000000000000
         C           -2.283013244882     1.292966918900    -0.545669396407    12.000000000000
         C           -3.210228244882    -1.031283081100     0.665749603593    12.000000000000
         C           -3.630334244882     0.940357918900    -0.644300396407    12.000000000000
         C            2.193945755118    -0.122912081100    -0.100582396407    12.000000000000
         C           -5.573644244882    -0.593138081100    -0.121691396407    12.000000000000
         C            2.875978755118     0.999126918900     0.382391603593    12.000000000000
         C            2.909117755118    -1.245552081100    -0.539929396407    12.000000000000
         C            4.275119755118     0.982631918900     0.422386603593    12.000000000000
         C            4.298982755118    -1.245581081100    -0.495094396407    12.000000000000
         C            5.017723255118    -0.170014281100    -0.027052196407    12.000000000000
         H            0.272241755118     1.778372918900    -0.266869396407     1.007825032230
         H            0.317003755118     1.049264918900     1.356361603593     1.007825032230
         H           -1.175539244882    -1.320131081100     1.317973603593     1.007825032230
         H           -1.923631244882     2.196952918900    -1.034956396407     1.007825032230
         H           -3.564813244882    -1.947954081100     1.134887603593     1.007825032230
         H           -4.311438244882     1.574801918900    -1.209330396407     1.007825032230
         H           -6.041976244882    -0.156484081100    -1.008245396407     1.007825032230
         H           -5.705499244882    -1.678025081100    -0.167373396407     1.007825032230
         H           -6.119289244882    -0.230008081100     0.756169603593     1.007825032230
         H            2.344595755118     1.881718918900     0.721644603593     1.007825032230
         H            2.349845755118    -2.100101081100    -0.911016396407     1.007825032230
         H            4.801805755118     1.856719918900     0.798600603593     1.007825032230
         H            4.844449755118    -2.121548081100    -0.838230396407     1.007825032230
         H            6.078069755118    -0.130875081100     0.024021603593     1.007825032230

  Basis Set: AUG-CC-PVTZ
    Blend: AUG-CC-PVTZ
  Basis Set: (AUG-CC-PVTZ AUX)
    Blend: AUG-CC-PVTZ-JKFIT
	 Reference Energy          =    -613.3682449204594604 [Eh]
	 Singles Energy            =      -0.0000000000000000 [Eh]
	 Same-Spin Energy          =      -0.6726882798039134 [Eh]
	 Opposite-Spin Energy      =      -2.1168042502371285 [Eh]
	 Correlation Energy        =      -2.7894925300410418 [Eh]
	 Total Energy              =    -616.1577374505004627 [Eh]

	 ================> DF-SCS-MP2 Energies <==================
	-----------------------------------------------------------
	 SCS Same-Spin Scale       =       0.3333333333333333 [-]
	 SCS Opposite-Spin Scale   =       1.2000000000000000 [-]
	 SCS Same-Spin Energy      =      -0.2242294266013045 [Eh]
	 SCS Opposite-Spin Energy  =      -2.5401651002845540 [Eh]
	 SCS Correlation Energy    =      -2.7643945268858583 [Eh]
	 SCS Total Energy          =    -616.1326394473453547 [Eh]
	-----------------------------------------------------------

  Dipole Moment: [D]
     X:    -1.0113      Y:     0.7621      Z:     0.4844     Total:     1.3558

*** Psi4 exiting successfully. Buy a developer a beer!
