                               Psi4 1.4a3.dev225

  ==> Input File <==

--------------------------------------------------------------------------
#psi4
#
memory 32 gb

molecule  {
0 1
  O        0.8655410    -0.2383350    -0.1978900
  C       -1.3532420     0.4851090     0.1659470
  C        0.0923410     0.8600100     0.3004220
  C       -4.0760200    -0.2326370    -0.0482320
  C       -1.8292680    -0.6845410     0.7713590
  C       -2.2449120     1.2876570    -0.5496990
  C       -3.1721270    -1.0365930     0.6617200
  C       -3.5922330     0.9350480    -0.6483300
  C        2.2320470    -0.1282220    -0.1046120
  C       -5.5355430    -0.5984480    -0.1257210
  C        2.9140800     0.9938170     0.3783620
  C        2.9472190    -1.2508620    -0.5439590
  C        4.3132210     0.9773220     0.4183570
  C        4.3370840    -1.2508910    -0.4991240
  C        5.0300920    -0.1353830    -0.0155080
  H        0.3103430     1.7730630    -0.2708990
  H        0.3551050     1.0439550     1.3523320
  H       -1.1374380    -1.3254410     1.3139440
  H       -1.8855300     2.1916430    -1.0389860
  H       -3.5267120    -1.9532640     1.1308580
  H       -4.2733370     1.5694920    -1.2133600
  H       -6.0252872    -0.1418301    -1.0528084
  H       -5.6673980    -1.6833350    -0.1714030
  H       -6.0811880    -0.2353180     0.7521400
  H        2.3826970     1.8764090     0.7176150
  H        2.3879470    -2.1054110    -0.9150460
  H        4.8399070     1.8514100     0.7945710
  H        4.8825510    -2.1268580    -0.8422600
  H        6.1161710    -0.1361850     0.0199920
units angstrom
no_reorient  #important for SAPT in psi4, default
symmetry c1  #important for SAPT in psi4, default
}

set PROPERTIES_ORIGIN ["COM"]
properties('MP2/aug-cc-pvtz', properties = ['dipole'])
--------------------------------------------------------------------------

    Molecular point group: c1
  Charge       = 0
  Multiplicity = 1
  Basis Set: AUG-CC-PVTZ
    Blend: AUG-CC-PVTZ
  Basis Set: (AUG-CC-PVTZ AUX)
    Blend: AUG-CC-PVTZ-JKFIT

    Orbital Energies [Eh]
    ---------------------

    Doubly Occupied:

       1A    -20.583986     2A    -11.301079     3A    -11.293289
       4A    -11.244288     5A    -11.241011     6A    -11.239446
       7A    -11.239281     8A    -11.237661     9A    -11.235181
      10A    -11.233004    11A    -11.232510    12A    -11.232355
      13A    -11.231853    14A    -11.227734    15A    -11.227308
      16A     -1.404948    17A     -1.158964    18A     -1.143787
      19A     -1.066668    20A     -1.017714    21A     -1.013591
      22A     -1.007998    23A     -0.962619    24A     -0.897867
      25A     -0.833123    26A     -0.831250    27A     -0.808934
      28A     -0.782128    29A     -0.721217    30A     -0.683834
      31A     -0.670393    32A     -0.663738    33A     -0.643642
      34A     -0.631183    35A     -0.619718    36A     -0.609294
      37A     -0.586831    38A     -0.583664    39A     -0.576404
      40A     -0.563942    41A     -0.538229    42A     -0.531391
      43A     -0.522162    44A     -0.513724    45A     -0.491482
      46A     -0.486244    47A     -0.484949    48A     -0.478962
      49A     -0.464309    50A     -0.339995    51A     -0.336925
      52A     -0.322395    53A     -0.312377

  @DF-RHF Final Energy:  -613.36944715039863

   => Energetics <=

    Nuclear Repulsion Energy =            870.5334186585084808
    One-Electron Energy =               -2559.1925672716233748
    Two-Electron Energy =                1075.2897014627162662
    Total Energy =                       -613.3694471503986279
  Basis Set: (AUG-CC-PVTZ AUX)
    Blend: AUG-CC-PVTZ-RI
    Molecular point group: c1

    Geometry (in Angstrom), charge = 0, multiplicity = 1:

       Center              X                  Y                   Z               Mass
    ------------   -----------------  -----------------  -----------------  -----------------
         O            0.829107409358    -0.235546046581    -0.194597558110    15.994914619570
         C           -1.389675590642     0.487897953419     0.169239441890    12.000000000000
         C            0.055907409358     0.862798953419     0.303714441890    12.000000000000
         C           -4.112453590642    -0.229848046581    -0.044939558110    12.000000000000
         C           -1.865701590642    -0.681752046581     0.774651441890    12.000000000000
         C           -2.281345590642     1.290445953419    -0.546406558110    12.000000000000
         C           -3.208560590642    -1.033804046581     0.665012441890    12.000000000000
         C           -3.628666590642     0.937836953419    -0.645037558110    12.000000000000
         C            2.195613409358    -0.125433046581    -0.101319558110    12.000000000000
         C           -5.571976590642    -0.595659046581    -0.122428558110    12.000000000000
         C            2.877646409358     0.996605953419     0.381654441890    12.000000000000
         C            2.910785409358    -1.248073046581    -0.540666558110    12.000000000000
         C            4.276787409358     0.980110953419     0.421649441890    12.000000000000
         C            4.300650409358    -1.248102046581    -0.495831558110    12.000000000000
         C            4.993658409358    -0.132594046581    -0.012215558110    12.000000000000
         H            0.273909409358     1.775851953419    -0.267606558110     1.007825032230
         H            0.318671409358     1.046743953419     1.355624441890     1.007825032230
         H           -1.173871590642    -1.322652046581     1.317236441890     1.007825032230
         H           -1.921963590642     2.194431953419    -1.035693558110     1.007825032230
         H           -3.563145590642    -1.950475046581     1.134150441890     1.007825032230
         H           -4.309770590642     1.572280953419    -1.210067558110     1.007825032230
         H           -6.061720790642    -0.139041146581    -1.049515958110     1.007825032230
         H           -5.703831590642    -1.680546046581    -0.168110558110     1.007825032230
         H           -6.117621590642    -0.232529046581     0.755432441890     1.007825032230
         H            2.346263409358     1.879197953419     0.720907441890     1.007825032230
         H            2.351513409358    -2.102622046581    -0.911753558110     1.007825032230
         H            4.803473409358     1.854198953419     0.797863441890     1.007825032230
         H            4.846117409358    -2.124069046581    -0.838967558110     1.007825032230
         H            6.079737409358    -0.133396046581     0.023284441890     1.007825032230

  Basis Set: AUG-CC-PVTZ
    Blend: AUG-CC-PVTZ
  Basis Set: (AUG-CC-PVTZ AUX)
    Blend: AUG-CC-PVTZ-JKFIT
	 Reference Energy          =    -613.3694471503986279 [Eh]
	 Singles Energy            =      -0.0000000000000000 [Eh]
	 Same-Spin Energy          =      -0.6726618327500145 [Eh]
	 Opposite-Spin Energy      =      -2.1168811428845800 [Eh]
	 Correlation Energy        =      -2.7895429756345944 [Eh]
	 Total Energy              =    -616.1589901260332454 [Eh]

	 ================> DF-SCS-MP2 Energies <==================
	-----------------------------------------------------------
	 SCS Same-Spin Scale       =       0.3333333333333333 [-]
	 SCS Opposite-Spin Scale   =       1.2000000000000000 [-]
	 SCS Same-Spin Energy      =      -0.2242206109166715 [Eh]
	 SCS Opposite-Spin Energy  =      -2.5402573714614958 [Eh]
	 SCS Correlation Energy    =      -2.7644779823781671 [Eh]
	 SCS Total Energy          =    -616.1339251327767670 [Eh]
	-----------------------------------------------------------

  Dipole Moment: [D]
     X:    -0.9759      Y:     0.7262      Z:     0.4901     Total:     1.3115

*** Psi4 exiting successfully. Buy a developer a beer!
