                               Psi4 1.4a3.dev225

  ==> Input File <==

--------------------------------------------------------------------------
#psi4
#
memory 32 gb

molecule  {
0 1
  O        0.8655410    -0.2383350    -0.1978900
  C       -1.3532420     0.4851090     0.1659470
  C        0.0923410     0.8600100     0.3004220
  C       -4.0760200    -0.2326370    -0.0482320
  C       -1.8292680    -0.6845410     0.7713590
  C       -2.2449120     1.2876570    -0.5496990
  C       -3.1721270    -1.0365930     0.6617200
  C       -3.5922330     0.9350480    -0.6483300
  C        2.2320470    -0.1282220    -0.1046120
  C       -5.5355430    -0.5984480    -0.1257210
  C        2.9140800     0.9938170     0.3783620
  C        2.9472190    -1.2508620    -0.5439590
  C        4.3132210     0.9773220     0.4183570
  C        4.3370840    -1.2508910    -0.4991240
  C        5.0300920    -0.1353830    -0.0155080
  H        0.3103430     1.7730630    -0.2708990
  H        0.3551050     1.0439550     1.3523320
  H       -1.1374380    -1.3254410     1.3139440
  H       -1.8855300     2.1916430    -1.0389860
  H       -3.5267120    -1.9532640     1.1308580
  H       -4.2733370     1.5694920    -1.2133600
  H       -6.0038750    -0.1617940    -1.0122750
  H       -5.6673980    -1.6833350    -0.1714030
  H       -6.0811880    -0.2353180     0.7521400
  H        2.3826970     1.8764090     0.7176150
  H        2.3879470    -2.1054110    -0.9150460
  H        4.8641193     1.8915927     0.8118659
  H        4.8825510    -2.1268580    -0.8422600
  H        6.1161710    -0.1361850     0.0199920
units angstrom
no_reorient  #important for SAPT in psi4, default
symmetry c1  #important for SAPT in psi4, default
}

set PROPERTIES_ORIGIN ["COM"]
properties('MP2/aug-cc-pvtz', properties = ['dipole'])
--------------------------------------------------------------------------

    Molecular point group: c1
  Charge       = 0
  Multiplicity = 1
  Basis Set: AUG-CC-PVTZ
    Blend: AUG-CC-PVTZ
  Basis Set: (AUG-CC-PVTZ AUX)
    Blend: AUG-CC-PVTZ-JKFIT

    Orbital Energies [Eh]
    ---------------------

    Doubly Occupied:

       1A    -20.584126     2A    -11.301359     3A    -11.293290
       4A    -11.246721     5A    -11.243889     6A    -11.239760
       7A    -11.239171     8A    -11.237610     9A    -11.235021
      10A    -11.233450    11A    -11.232310    12A    -11.232152
      13A    -11.227886    14A    -11.227743    15A    -11.225909
      16A     -1.405071    17A     -1.158900    18A     -1.143744
      19A     -1.067040    20A     -1.016707    21A     -1.013481
      22A     -1.008522    23A     -0.963985    24A     -0.899491
      25A     -0.832754    26A     -0.829582    27A     -0.808339
      28A     -0.782495    29A     -0.719217    30A     -0.684062
      31A     -0.670665    32A     -0.663706    33A     -0.643398
      34A     -0.630311    35A     -0.620508    36A     -0.607567
      37A     -0.583611    38A     -0.582973    39A     -0.577006
      40A     -0.564163    41A     -0.543419    42A     -0.531520
      43A     -0.523027    44A     -0.513979    45A     -0.490469
      46A     -0.486678    47A     -0.485182    48A     -0.477855
      49A     -0.464453    50A     -0.340227    51A     -0.336805
      52A     -0.322313    53A     -0.312600

  @DF-RHF Final Energy:  -613.36912773778442

   => Energetics <=

    Nuclear Repulsion Energy =            870.4903218617730545
    One-Electron Energy =               -2559.1064537647007455
    Two-Electron Energy =                1075.2470041651431529
    Total Energy =                       -613.3691277377845381
  Basis Set: (AUG-CC-PVTZ AUX)
    Blend: AUG-CC-PVTZ-RI
    Molecular point group: c1

    Geometry (in Angstrom), charge = 0, multiplicity = 1:

       Center              X                  Y                   Z               Mass
    ------------   -----------------  -----------------  -----------------  -----------------
         O            0.828875301954    -0.235648906518    -0.194891750411    15.994914619570
         C           -1.389907698046     0.487795093482     0.168945249589    12.000000000000
         C            0.055675301954     0.862696093482     0.303420249589    12.000000000000
         C           -4.112685698046    -0.229950906518    -0.045233750411    12.000000000000
         C           -1.865933698046    -0.681854906518     0.774357249589    12.000000000000
         C           -2.281577698046     1.290343093482    -0.546700750411    12.000000000000
         C           -3.208792698046    -1.033906906518     0.664718249589    12.000000000000
         C           -3.628898698046     0.937734093482    -0.645331750411    12.000000000000
         C            2.195381301954    -0.125535906518    -0.101613750411    12.000000000000
         C           -5.572208698046    -0.595761906518    -0.122722750411    12.000000000000
         C            2.877414301954     0.996503093482     0.381360249589    12.000000000000
         C            2.910553301954    -1.248175906518    -0.540960750411    12.000000000000
         C            4.276555301954     0.980008093482     0.421355249589    12.000000000000
         C            4.300418301954    -1.248204906518    -0.496125750411    12.000000000000
         C            4.993426301954    -0.132696906518    -0.012509750411    12.000000000000
         H            0.273677301954     1.775749093482    -0.267900750411     1.007825032230
         H            0.318439301954     1.046641093482     1.355330249589     1.007825032230
         H           -1.174103698046    -1.322754906518     1.316942249589     1.007825032230
         H           -1.922195698046     2.194329093482    -1.035987750411     1.007825032230
         H           -3.563377698046    -1.950577906518     1.133856249589     1.007825032230
         H           -4.310002698046     1.572178093482    -1.210361750411     1.007825032230
         H           -6.040540698046    -0.159107906518    -1.009276750411     1.007825032230
         H           -5.704063698046    -1.680648906518    -0.168404750411     1.007825032230
         H           -6.117853698046    -0.232631906518     0.755138249589     1.007825032230
         H            2.346031301954     1.879095093482     0.720613249589     1.007825032230
         H            2.351281301954    -2.102724906518    -0.912047750411     1.007825032230
         H            4.827453601954     1.894278793482     0.814864149589     1.007825032230
         H            4.845885301954    -2.124171906518    -0.839261750411     1.007825032230
         H            6.079505301954    -0.133498906518     0.022990249589     1.007825032230

  Basis Set: AUG-CC-PVTZ
    Blend: AUG-CC-PVTZ
  Basis Set: (AUG-CC-PVTZ AUX)
    Blend: AUG-CC-PVTZ-JKFIT
	 Reference Energy          =    -613.3691277377844244 [Eh]
	 Singles Energy            =      -0.0000000000000000 [Eh]
	 Same-Spin Energy          =      -0.6727468816747265 [Eh]
	 Opposite-Spin Energy      =      -2.1169386584808758 [Eh]
	 Correlation Energy        =      -2.7896855401556024 [Eh]
	 Total Energy              =    -616.1588132779399984 [Eh]

	 ================> DF-SCS-MP2 Energies <==================
	-----------------------------------------------------------
	 SCS Same-Spin Scale       =       0.3333333333333333 [-]
	 SCS Opposite-Spin Scale   =       1.2000000000000000 [-]
	 SCS Same-Spin Energy      =      -0.2242489605582422 [Eh]
	 SCS Opposite-Spin Energy  =      -2.5403263901770510 [Eh]
	 SCS Correlation Energy    =      -2.7645753507352930 [Eh]
	 SCS Total Energy          =    -616.1337030885197237 [Eh]
	-----------------------------------------------------------

  Dipole Moment: [D]
     X:    -1.0191      Y:     0.7142      Z:     0.4639     Total:     1.3281

*** Psi4 exiting successfully. Buy a developer a beer!
