                               Psi4 1.4a3.dev225

  ==> Input File <==

--------------------------------------------------------------------------
#psi4
#
memory 32 gb

molecule  {
0 1
  O        0.8655410    -0.2383350    -0.1978900
  C       -1.3532420     0.4851090     0.1659470
  C        0.1097147     0.7295139     0.3858752
  C       -4.0760200    -0.2326370    -0.0482320
  C       -1.8292680    -0.6845410     0.7713590
  C       -2.2449120     1.2876570    -0.5496990
  C       -3.1721270    -1.0365930     0.6617200
  C       -3.5922330     0.9350480    -0.6483300
  C        2.2320470    -0.1282220    -0.1046120
  C       -5.5355430    -0.5984480    -0.1257210
  C        2.9140800     0.9938170     0.3783620
  C        2.9472190    -1.2508620    -0.5439590
  C        4.3132210     0.9773220     0.4183570
  C        4.3370840    -1.2508910    -0.4991240
  C        5.0300920    -0.1353830    -0.0155080
  H        0.3103430     1.7730630    -0.2708990
  H        0.3551050     1.0439550     1.3523320
  H       -1.1374380    -1.3254410     1.3139440
  H       -1.8855300     2.1916430    -1.0389860
  H       -3.5267120    -1.9532640     1.1308580
  H       -4.2733370     1.5694920    -1.2133600
  H       -6.0038750    -0.1617940    -1.0122750
  H       -5.6673980    -1.6833350    -0.1714030
  H       -6.0811880    -0.2353180     0.7521400
  H        2.3826970     1.8764090     0.7176150
  H        2.3879470    -2.1054110    -0.9150460
  H        4.8399070     1.8514100     0.7945710
  H        4.8825510    -2.1268580    -0.8422600
  H        6.1161710    -0.1361850     0.0199920
units angstrom
no_reorient  #important for SAPT in psi4, default
symmetry c1  #important for SAPT in psi4, default
}

set PROPERTIES_ORIGIN ["COM"]
properties('MP2/aug-cc-pvtz', properties = ['dipole'])
--------------------------------------------------------------------------

    Molecular point group: c1
  Charge       = 0
  Multiplicity = 1
  Basis Set: AUG-CC-PVTZ
    Blend: AUG-CC-PVTZ
  Basis Set: (AUG-CC-PVTZ AUX)
    Blend: AUG-CC-PVTZ-JKFIT

    Orbital Energies [Eh]
    ---------------------

    Doubly Occupied:

       1A    -20.590961     2A    -11.304938     3A    -11.296958
       4A    -11.243382     5A    -11.242784     6A    -11.241542
       7A    -11.238953     8A    -11.237366     9A    -11.235971
      10A    -11.232535    11A    -11.232122    12A    -11.231511
      13A    -11.230478    14A    -11.230372    15A    -11.225456
      16A     -1.431353    17A     -1.158909    18A     -1.147131
      19A     -1.066748    20A     -1.020707    21A     -1.015075
      22A     -1.011062    23A     -0.962160    24A     -0.899420
      25A     -0.836159    26A     -0.829125    27A     -0.815156
      28A     -0.782001    29A     -0.733655    30A     -0.690213
      31A     -0.674318    32A     -0.666728    33A     -0.646173
      34A     -0.633154    35A     -0.618723    36A     -0.612706
      37A     -0.589530    38A     -0.582771    39A     -0.576725
      40A     -0.572582    41A     -0.542106    42A     -0.538006
      43A     -0.517817    44A     -0.506576    45A     -0.493664
      46A     -0.487969    47A     -0.485961    48A     -0.478221
      49A     -0.437199    50A     -0.341897    51A     -0.335869
      52A     -0.322635    53A     -0.316126

  @DF-RHF Final Energy:  -613.34935644820166

   => Energetics <=

    Nuclear Repulsion Energy =            871.9717148381810148
    One-Electron Energy =               -2561.8588188941603221
    Two-Electron Energy =                1076.5377476077776464
    Total Energy =                       -613.3493564482016609
  Basis Set: (AUG-CC-PVTZ AUX)
    Blend: AUG-CC-PVTZ-RI
    Molecular point group: c1

    Geometry (in Angstrom), charge = 0, multiplicity = 1:

       Center              X                  Y                   Z               Mass
    ------------   -----------------  -----------------  -----------------  -----------------
         O            0.827946081919    -0.227539799385    -0.199980016172    15.994914619570
         C           -1.390836918081     0.495904200615     0.163856983828    12.000000000000
         C            0.072119781919     0.740309100615     0.383785183828    12.000000000000
         C           -4.113614918081    -0.221841799385    -0.050322016172    12.000000000000
         C           -1.866862918081    -0.673745799385     0.769268983828    12.000000000000
         C           -2.282506918081     1.298452200615    -0.551789016172    12.000000000000
         C           -3.209721918081    -1.025797799385     0.659629983828    12.000000000000
         C           -3.629827918081     0.945843200615    -0.650420016172    12.000000000000
         C            2.194452081919    -0.117426799385    -0.106702016172    12.000000000000
         C           -5.573137918081    -0.587652799385    -0.127811016172    12.000000000000
         C            2.876485081919     1.004612200615     0.376271983828    12.000000000000
         C            2.909624081919    -1.240066799385    -0.546049016172    12.000000000000
         C            4.275626081919     0.988117200615     0.416266983828    12.000000000000
         C            4.299489081919    -1.240095799385    -0.501214016172    12.000000000000
         C            4.992497081919    -0.124587799385    -0.017598016172    12.000000000000
         H            0.272748081919     1.783858200615    -0.272989016172     1.007825032230
         H            0.317510081919     1.054750200615     1.350241983828     1.007825032230
         H           -1.175032918081    -1.314645799385     1.311853983828     1.007825032230
         H           -1.923124918081     2.202438200615    -1.041076016172     1.007825032230
         H           -3.564306918081    -1.942468799385     1.128767983828     1.007825032230
         H           -4.310931918081     1.580287200615    -1.215450016172     1.007825032230
         H           -6.041469918081    -0.150998799385    -1.014365016172     1.007825032230
         H           -5.704992918081    -1.672539799385    -0.173493016172     1.007825032230
         H           -6.118782918081    -0.224522799385     0.750049983828     1.007825032230
         H            2.345102081919     1.887204200615     0.715524983828     1.007825032230
         H            2.350352081919    -2.094615799385    -0.917136016172     1.007825032230
         H            4.802312081919     1.862205200615     0.792480983828     1.007825032230
         H            4.844956081919    -2.116062799385    -0.844350016172     1.007825032230
         H            6.078576081919    -0.125389799385     0.017901983828     1.007825032230

  Basis Set: AUG-CC-PVTZ
    Blend: AUG-CC-PVTZ
  Basis Set: (AUG-CC-PVTZ AUX)
    Blend: AUG-CC-PVTZ-JKFIT
	 Reference Energy          =    -613.3493564482016609 [Eh]
	 Singles Energy            =      -0.0000000000000000 [Eh]
	 Same-Spin Energy          =      -0.6732413602074716 [Eh]
	 Opposite-Spin Energy      =      -2.1170234908939483 [Eh]
	 Correlation Energy        =      -2.7902648511014201 [Eh]
	 Total Energy              =    -616.1396212993030304 [Eh]

	 ================> DF-SCS-MP2 Energies <==================
	-----------------------------------------------------------
	 SCS Same-Spin Scale       =       0.3333333333333333 [-]
	 SCS Opposite-Spin Scale   =       1.2000000000000000 [-]
	 SCS Same-Spin Energy      =      -0.2244137867358239 [Eh]
	 SCS Opposite-Spin Energy  =      -2.5404281890727378 [Eh]
	 SCS Correlation Energy    =      -2.7648419758085616 [Eh]
	 SCS Total Energy          =    -616.1141984240101692 [Eh]
	-----------------------------------------------------------

  Dipole Moment: [D]
     X:    -0.7027      Y:     0.3890      Z:     0.5698     Total:     0.9847

*** Psi4 exiting successfully. Buy a developer a beer!
