                               Psi4 1.4a3.dev225

  ==> Input File <==

--------------------------------------------------------------------------
#psi4
#
memory 32 gb

molecule  {
0 1
  O        0.8655410    -0.2383350    -0.1978900
  C       -1.3532420     0.4851090     0.1659470
  C        0.0923410     0.8600100     0.3004220
  C       -4.0760200    -0.2326370    -0.0482320
  C       -1.8292680    -0.6845410     0.7713590
  C       -2.2449120     1.2876570    -0.5496990
  C       -3.1721270    -1.0365930     0.6617200
  C       -3.5922330     0.9350480    -0.6483300
  C        2.2320470    -0.1282220    -0.1046120
  C       -5.5355430    -0.5984480    -0.1257210
  C        2.8897055     0.9537176     0.3611015
  C        2.9472190    -1.2508620    -0.5439590
  C        4.3132210     0.9773220     0.4183570
  C        4.3370840    -1.2508910    -0.4991240
  C        5.0300920    -0.1353830    -0.0155080
  H        0.3103430     1.7730630    -0.2708990
  H        0.3551050     1.0439550     1.3523320
  H       -1.1374380    -1.3254410     1.3139440
  H       -1.8855300     2.1916430    -1.0389860
  H       -3.5267120    -1.9532640     1.1308580
  H       -4.2733370     1.5694920    -1.2133600
  H       -6.0038750    -0.1617940    -1.0122750
  H       -5.6673980    -1.6833350    -0.1714030
  H       -6.0811880    -0.2353180     0.7521400
  H        2.3826970     1.8764090     0.7176150
  H        2.3879470    -2.1054110    -0.9150460
  H        4.8399070     1.8514100     0.7945710
  H        4.8825510    -2.1268580    -0.8422600
  H        6.1161710    -0.1361850     0.0199920
units angstrom
no_reorient  #important for SAPT in psi4, default
symmetry c1  #important for SAPT in psi4, default
}

set PROPERTIES_ORIGIN ["COM"]
properties('MP2/aug-cc-pvtz', properties = ['dipole'])
--------------------------------------------------------------------------

    Molecular point group: c1
  Charge       = 0
  Multiplicity = 1
  Basis Set: AUG-CC-PVTZ
    Blend: AUG-CC-PVTZ
  Basis Set: (AUG-CC-PVTZ AUX)
    Blend: AUG-CC-PVTZ-JKFIT

    Orbital Energies [Eh]
    ---------------------

    Doubly Occupied:

       1A    -20.581970     2A    -11.294484     3A    -11.292064
       4A    -11.243454     5A    -11.243393     6A    -11.239051
       7A    -11.238551     8A    -11.237027     9A    -11.234454
      10A    -11.231852    11A    -11.231682    12A    -11.231425
      13A    -11.229044    14A    -11.228401    15A    -11.225559
      16A     -1.404068    17A     -1.158918    18A     -1.145773
      19A     -1.066499    20A     -1.014793    21A     -1.014042
      22A     -1.011629    23A     -0.964813    24A     -0.899120
      25A     -0.835679    26A     -0.831765    27A     -0.806802
      28A     -0.781479    29A     -0.721888    30A     -0.683077
      31A     -0.669898    32A     -0.661431    33A     -0.645840
      34A     -0.631749    35A     -0.620306    36A     -0.609798
      37A     -0.583582    38A     -0.583085    39A     -0.576585
      40A     -0.561597    41A     -0.543458    42A     -0.531892
      43A     -0.523302    44A     -0.509575    45A     -0.492981
      46A     -0.486284    47A     -0.484308    48A     -0.479894
      49A     -0.463186    50A     -0.338530    51A     -0.336264
      52A     -0.321874    53A     -0.316814

  @DF-RHF Final Energy:  -613.36875501585098

   => Energetics <=

    Nuclear Repulsion Energy =            871.5327977685831229
    One-Electron Energy =               -2561.2131257432893108
    Two-Electron Energy =                1076.3115729588550948
    Total Energy =                       -613.3687550158510930
  Basis Set: (AUG-CC-PVTZ AUX)
    Blend: AUG-CC-PVTZ-RI
    Molecular point group: c1

    Geometry (in Angstrom), charge = 0, multiplicity = 1:

       Center              X                  Y                   Z               Mass
    ------------   -----------------  -----------------  -----------------  -----------------
         O            0.830474941628    -0.233015498277    -0.193758226070    15.994914619570
         C           -1.388308058372     0.490428501723     0.170078773930    12.000000000000
         C            0.057274941628     0.865329501723     0.304553773930    12.000000000000
         C           -4.111086058372    -0.227317498277    -0.044100226070    12.000000000000
         C           -1.864334058372    -0.679221498277     0.775490773930    12.000000000000
         C           -2.279978058372     1.292976501723    -0.545567226070    12.000000000000
         C           -3.207193058372    -1.031273498277     0.665851773930    12.000000000000
         C           -3.627299058372     0.940367501723    -0.644198226070    12.000000000000
         C            2.196980941628    -0.122902498277    -0.100480226070    12.000000000000
         C           -5.570609058372    -0.593128498277    -0.121589226070    12.000000000000
         C            2.854639441628     0.959037101723     0.365233273930    12.000000000000
         C            2.912152941628    -1.245542498277    -0.539827226070    12.000000000000
         C            4.278154941628     0.982641501723     0.422488773930    12.000000000000
         C            4.302017941628    -1.245571498277    -0.494992226070    12.000000000000
         C            4.995025941628    -0.130063498277    -0.011376226070    12.000000000000
         H            0.275276941628     1.778382501723    -0.266767226070     1.007825032230
         H            0.320038941628     1.049274501723     1.356463773930     1.007825032230
         H           -1.172504058372    -1.320121498277     1.318075773930     1.007825032230
         H           -1.920596058372     2.196962501723    -1.034854226070     1.007825032230
         H           -3.561778058372    -1.947944498277     1.134989773930     1.007825032230
         H           -4.308403058372     1.574811501723    -1.209228226070     1.007825032230
         H           -6.038941058372    -0.156474498277    -1.008143226070     1.007825032230
         H           -5.702464058372    -1.678015498277    -0.167271226070     1.007825032230
         H           -6.116254058372    -0.229998498277     0.756271773930     1.007825032230
         H            2.347630941628     1.881728501723     0.721746773930     1.007825032230
         H            2.352880941628    -2.100091498277    -0.910914226070     1.007825032230
         H            4.804840941628     1.856729501723     0.798702773930     1.007825032230
         H            4.847484941628    -2.121538498277    -0.838128226070     1.007825032230
         H            6.081104941628    -0.130865498277     0.024123773930     1.007825032230

  Basis Set: AUG-CC-PVTZ
    Blend: AUG-CC-PVTZ
  Basis Set: (AUG-CC-PVTZ AUX)
    Blend: AUG-CC-PVTZ-JKFIT
	 Reference Energy          =    -613.3687550158509794 [Eh]
	 Singles Energy            =      -0.0000000000000000 [Eh]
	 Same-Spin Energy          =      -0.6725530534881482 [Eh]
	 Opposite-Spin Energy      =      -2.1164971797378800 [Eh]
	 Correlation Energy        =      -2.7890502332260283 [Eh]
	 Total Energy              =    -616.1578052490770006 [Eh]

	 ================> DF-SCS-MP2 Energies <==================
	-----------------------------------------------------------
	 SCS Same-Spin Scale       =       0.3333333333333333 [-]
	 SCS Opposite-Spin Scale   =       1.2000000000000000 [-]
	 SCS Same-Spin Energy      =      -0.2241843511627161 [Eh]
	 SCS Opposite-Spin Energy  =      -2.5397966156854559 [Eh]
	 SCS Correlation Energy    =      -2.7639809668481718 [Eh]
	 SCS Total Energy          =    -616.1327359826991596 [Eh]
	-----------------------------------------------------------

  Dipole Moment: [D]
     X:    -0.8955      Y:     0.7328      Z:     0.4741     Total:     1.2504

*** Psi4 exiting successfully. Buy a developer a beer!
