                               Psi4 1.4a3.dev225

  ==> Input File <==

--------------------------------------------------------------------------
#psi4
#
memory 32 gb

molecule  {
0 1
  O        0.8655410    -0.2383350    -0.1978900
  C       -1.3532420     0.4851090     0.1659470
  C        0.0923410     0.8600100     0.3004220
  C       -4.0760200    -0.2326370    -0.0482320
  C       -1.8292680    -0.6845410     0.7713590
  C       -2.2449120     1.2876570    -0.5496990
  C       -3.1721270    -1.0365930     0.6617200
  C       -3.5922330     0.9350480    -0.6483300
  C        2.2320470    -0.1282220    -0.1046120
  C       -5.5355430    -0.5984480    -0.1257210
  C        2.9140800     0.9938170     0.3783620
  C        2.9472190    -1.2508620    -0.5439590
  C        4.3132210     0.9773220     0.4183570
  C        4.3370840    -1.2508910    -0.4991240
  C        5.0300920    -0.1353830    -0.0155080
  H        0.3103430     1.7730630    -0.2708990
  H        0.3551050     1.0439550     1.3523320
  H       -1.1374380    -1.3254410     1.3139440
  H       -1.8855300     2.1916430    -1.0389860
  H       -3.5267120    -1.9532640     1.1308580
  H       -4.2733370     1.5694920    -1.2133600
  H       -6.0038750    -0.1617940    -1.0122750
  H       -5.6432890    -1.4849692    -0.1630503
  H       -6.0811880    -0.2353180     0.7521400
  H        2.3826970     1.8764090     0.7176150
  H        2.3879470    -2.1054110    -0.9150460
  H        4.8399070     1.8514100     0.7945710
  H        4.8825510    -2.1268580    -0.8422600
  H        6.1161710    -0.1361850     0.0199920
units angstrom
no_reorient  #important for SAPT in psi4, default
symmetry c1  #important for SAPT in psi4, default
}

set PROPERTIES_ORIGIN ["COM"]
properties('MP2/aug-cc-pvtz', properties = ['dipole'])
--------------------------------------------------------------------------

    Molecular point group: c1
  Charge       = 0
  Multiplicity = 1
  Basis Set: AUG-CC-PVTZ
    Blend: AUG-CC-PVTZ
  Basis Set: (AUG-CC-PVTZ AUX)
    Blend: AUG-CC-PVTZ-JKFIT

    Orbital Energies [Eh]
    ---------------------

    Doubly Occupied:

       1A    -20.586847     2A    -11.302313     3A    -11.297437
       4A    -11.251693     5A    -11.247608     6A    -11.243595
       7A    -11.241676     8A    -11.241358     9A    -11.239813
      10A    -11.238724    11A    -11.238590    12A    -11.233977
      13A    -11.228487    14A    -11.227738    15A    -11.205954
      16A     -1.407783    17A     -1.165572    18A     -1.145073
      19A     -1.076880    20A     -1.020614    21A     -1.019099
      22A     -1.013008    23A     -0.977839    24A     -0.912961
      25A     -0.839215    26A     -0.833580    27A     -0.811801
      28A     -0.789394    29A     -0.723025    30A     -0.691227
      31A     -0.676273    32A     -0.665171    33A     -0.649599
      34A     -0.636542    35A     -0.629583    36A     -0.611073
      37A     -0.597466    38A     -0.589116    39A     -0.587532
      40A     -0.569615    41A     -0.557029    42A     -0.534813
      43A     -0.528696    44A     -0.515071    45A     -0.495019
      46A     -0.492412    47A     -0.490564    48A     -0.481676
      49A     -0.466532    50A     -0.342849    51A     -0.340420
      52A     -0.323882    53A     -0.313166

  @DF-RHF Final Energy:  -613.33783821972315

   => Energetics <=

    Nuclear Repulsion Energy =            871.7303751425490645
    One-Electron Energy =               -2561.0424674750802296
    Two-Electron Energy =                1075.9742541128080120
    Total Energy =                       -613.3378382197231531
  Basis Set: (AUG-CC-PVTZ AUX)
    Blend: AUG-CC-PVTZ-RI
    Molecular point group: c1

    Geometry (in Angstrom), charge = 0, multiplicity = 1:

       Center              X                  Y                   Z               Mass
    ------------   -----------------  -----------------  -----------------  -----------------
         O            0.828875827476    -0.236453637940    -0.194846258387    15.994914619570
         C           -1.389907172524     0.486990362060     0.168990741613    12.000000000000
         C            0.055675827476     0.861891362060     0.303465741613    12.000000000000
         C           -4.112685172524    -0.230755637940    -0.045188258387    12.000000000000
         C           -1.865933172524    -0.682659637940     0.774402741613    12.000000000000
         C           -2.281577172524     1.289538362060    -0.546655258387    12.000000000000
         C           -3.208792172524    -1.034711637940     0.664763741613    12.000000000000
         C           -3.628898172524     0.936929362060    -0.645286258387    12.000000000000
         C            2.195381827476    -0.126340637940    -0.101568258387    12.000000000000
         C           -5.572208172524    -0.596566637940    -0.122677258387    12.000000000000
         C            2.877414827476     0.995698362060     0.381405741613    12.000000000000
         C            2.910553827476    -1.248980637940    -0.540915258387    12.000000000000
         C            4.276555827476     0.979203362060     0.421400741613    12.000000000000
         C            4.300418827476    -1.249009637940    -0.496080258387    12.000000000000
         C            4.993426827476    -0.133501637940    -0.012464258387    12.000000000000
         H            0.273677827476     1.774944362060    -0.267855258387     1.007825032230
         H            0.318439827476     1.045836362060     1.355375741613     1.007825032230
         H           -1.174103172524    -1.323559637940     1.316987741613     1.007825032230
         H           -1.922195172524     2.193524362060    -1.035942258387     1.007825032230
         H           -3.563377172524    -1.951382637940     1.133901741613     1.007825032230
         H           -4.310002172524     1.571373362060    -1.210316258387     1.007825032230
         H           -6.040540172524    -0.159912637940    -1.009231258387     1.007825032230
         H           -5.679954172524    -1.483087837940    -0.160006558387     1.007825032230
         H           -6.117853172524    -0.233436637940     0.755183741613     1.007825032230
         H            2.346031827476     1.878290362060     0.720658741613     1.007825032230
         H            2.351281827476    -2.103529637940    -0.912002258387     1.007825032230
         H            4.803241827476     1.853291362060     0.797614741613     1.007825032230
         H            4.845885827476    -2.124976637940    -0.839216258387     1.007825032230
         H            6.079505827476    -0.134303637940     0.023035741613     1.007825032230

  Basis Set: AUG-CC-PVTZ
    Blend: AUG-CC-PVTZ
  Basis Set: (AUG-CC-PVTZ AUX)
    Blend: AUG-CC-PVTZ-JKFIT
	 Reference Energy          =    -613.3378382197231531 [Eh]
	 Singles Energy            =      -0.0000000000000000 [Eh]
	 Same-Spin Energy          =      -0.6733583602619031 [Eh]
	 Opposite-Spin Energy      =      -2.1164378364506486 [Eh]
	 Correlation Energy        =      -2.7897961967125520 [Eh]
	 Total Energy              =    -616.1276344164357397 [Eh]

	 ================> DF-SCS-MP2 Energies <==================
	-----------------------------------------------------------
	 SCS Same-Spin Scale       =       0.3333333333333333 [-]
	 SCS Opposite-Spin Scale   =       1.2000000000000000 [-]
	 SCS Same-Spin Energy      =      -0.2244527867539677 [Eh]
	 SCS Opposite-Spin Energy  =      -2.5397254037407784 [Eh]
	 SCS Correlation Energy    =      -2.7641781904947460 [Eh]
	 SCS Total Energy          =    -616.1020164102178569 [Eh]
	-----------------------------------------------------------

  Dipole Moment: [D]
     X:     1.0849      Y:     0.3181      Z:     0.4180     Total:     1.2054

*** Psi4 exiting successfully. Buy a developer a beer!
