                               Psi4 1.4a3.dev225

  ==> Input File <==

--------------------------------------------------------------------------
#psi4
#
memory 32 gb

molecule  {
0 1
  O        0.8655410    -0.2383350    -0.1978900
  C       -1.3532420     0.4851090     0.1659470
  C        0.0923410     0.8600100     0.3004220
  C       -4.0760200    -0.2326370    -0.0482320
  C       -1.8292680    -0.6845410     0.7713590
  C       -2.2449120     1.2876570    -0.5496990
  C       -3.1721270    -1.0365930     0.6617200
  C       -3.3992328     0.9855583    -0.6342014
  C        2.2320470    -0.1282220    -0.1046120
  C       -5.5355430    -0.5984480    -0.1257210
  C        2.9140800     0.9938170     0.3783620
  C        2.9472190    -1.2508620    -0.5439590
  C        4.3132210     0.9773220     0.4183570
  C        4.3370840    -1.2508910    -0.4991240
  C        5.0300920    -0.1353830    -0.0155080
  H        0.3103430     1.7730630    -0.2708990
  H        0.3551050     1.0439550     1.3523320
  H       -1.1374380    -1.3254410     1.3139440
  H       -1.8855300     2.1916430    -1.0389860
  H       -3.5267120    -1.9532640     1.1308580
  H       -4.2733370     1.5694920    -1.2133600
  H       -6.0038750    -0.1617940    -1.0122750
  H       -5.6673980    -1.6833350    -0.1714030
  H       -6.0811880    -0.2353180     0.7521400
  H        2.3826970     1.8764090     0.7176150
  H        2.3879470    -2.1054110    -0.9150460
  H        4.8399070     1.8514100     0.7945710
  H        4.8825510    -2.1268580    -0.8422600
  H        6.1161710    -0.1361850     0.0199920
units angstrom
no_reorient  #important for SAPT in psi4, default
symmetry c1  #important for SAPT in psi4, default
}

set PROPERTIES_ORIGIN ["COM"]
properties('MP2/aug-cc-pvtz', properties = ['dipole'])
--------------------------------------------------------------------------

    Molecular point group: c1
  Charge       = 0
  Multiplicity = 1
  Basis Set: AUG-CC-PVTZ
    Blend: AUG-CC-PVTZ
  Basis Set: (AUG-CC-PVTZ AUX)
    Blend: AUG-CC-PVTZ-JKFIT

    Orbital Energies [Eh]
    ---------------------

    Doubly Occupied:

       1A    -20.583082     2A    -11.300405     3A    -11.292139
       4A    -11.253478     5A    -11.240594     6A    -11.239044
       7A    -11.237397     8A    -11.232488     9A    -11.232451
      10A    -11.231709    11A    -11.229379    12A    -11.228538
      13A    -11.227262    14A    -11.226881    15A    -11.210340
      16A     -1.404007    17A     -1.172226    18A     -1.144160
      19A     -1.060470    20A     -1.043373    21A     -1.016728
      22A     -1.006021    23A     -0.968214    24A     -0.894976
      25A     -0.832189    26A     -0.818242    27A     -0.804321
      28A     -0.789793    29A     -0.720771    30A     -0.686831
      31A     -0.673418    32A     -0.663196    33A     -0.645503
      34A     -0.626277    35A     -0.621083    36A     -0.603867
      37A     -0.586901    38A     -0.585078    39A     -0.578645
      40A     -0.559436    41A     -0.547649    42A     -0.530349
      43A     -0.524720    44A     -0.513765    45A     -0.501377
      46A     -0.497475    47A     -0.480761    48A     -0.466313
      49A     -0.441576    50A     -0.364782    51A     -0.339507
      52A     -0.312026    53A     -0.306408

  @DF-RHF Final Energy:  -613.30747916910582

   => Energetics <=

    Nuclear Repulsion Energy =            873.0319376357684860
    One-Electron Energy =               -2564.0835932481477357
    Two-Electron Energy =                1077.7441764432735454
    Total Energy =                       -613.3074791691058181
  Basis Set: (AUG-CC-PVTZ AUX)
    Blend: AUG-CC-PVTZ-RI
    Molecular point group: c1

    Geometry (in Angstrom), charge = 0, multiplicity = 1:

       Center              X                  Y                   Z               Mass
    ------------   -----------------  -----------------  -----------------  -----------------
         O            0.817307664459    -0.238504099453    -0.195659592603    15.994914619570
         C           -1.401475335541     0.484939900547     0.168177407397    12.000000000000
         C            0.044107664459     0.859840900547     0.302652407397    12.000000000000
         C           -4.124253335541    -0.232806099453    -0.046001592603    12.000000000000
         C           -1.877501335541    -0.684710099453     0.773589407397    12.000000000000
         C           -2.293145335541     1.287487900547    -0.547468592603    12.000000000000
         C           -3.220360335541    -1.036762099453     0.663950407397    12.000000000000
         C           -3.447466135541     0.985389200547    -0.631970992603    12.000000000000
         C            2.183813664459    -0.128391099453    -0.102381592603    12.000000000000
         C           -5.583776335541    -0.598617099453    -0.123490592603    12.000000000000
         C            2.865846664459     0.993647900547     0.380592407397    12.000000000000
         C            2.898985664459    -1.251031099453    -0.541728592603    12.000000000000
         C            4.264987664459     0.977152900547     0.420587407397    12.000000000000
         C            4.288850664459    -1.251060099453    -0.496893592603    12.000000000000
         C            4.981858664459    -0.135552099453    -0.013277592603    12.000000000000
         H            0.262109664459     1.772893900547    -0.268668592603     1.007825032230
         H            0.306871664459     1.043785900547     1.354562407397     1.007825032230
         H           -1.185671335541    -1.325610099453     1.316174407397     1.007825032230
         H           -1.933763335541     2.191473900547    -1.036755592603     1.007825032230
         H           -3.574945335541    -1.953433099453     1.133088407397     1.007825032230
         H           -4.321570335541     1.569322900547    -1.211129592603     1.007825032230
         H           -6.052108335541    -0.161963099453    -1.010044592603     1.007825032230
         H           -5.715631335541    -1.683504099453    -0.169172592603     1.007825032230
         H           -6.129421335541    -0.235487099453     0.754370407397     1.007825032230
         H            2.334463664459     1.876239900547     0.719845407397     1.007825032230
         H            2.339713664459    -2.105580099453    -0.912815592603     1.007825032230
         H            4.791673664459     1.851240900547     0.796801407397     1.007825032230
         H            4.834317664459    -2.127027099453    -0.840029592603     1.007825032230
         H            6.067937664459    -0.136354099453     0.022222407397     1.007825032230

  Basis Set: AUG-CC-PVTZ
    Blend: AUG-CC-PVTZ
  Basis Set: (AUG-CC-PVTZ AUX)
    Blend: AUG-CC-PVTZ-JKFIT
	 Reference Energy          =    -613.3074791691058181 [Eh]
	 Singles Energy            =      -0.0000000000000000 [Eh]
	 Same-Spin Energy          =      -0.6728340148670133 [Eh]
	 Opposite-Spin Energy      =      -2.1185267240783219 [Eh]
	 Correlation Energy        =      -2.7913607389453352 [Eh]
	 Total Energy              =    -616.0988399080511044 [Eh]

	 ================> DF-SCS-MP2 Energies <==================
	-----------------------------------------------------------
	 SCS Same-Spin Scale       =       0.3333333333333333 [-]
	 SCS Opposite-Spin Scale   =       1.2000000000000000 [-]
	 SCS Same-Spin Energy      =      -0.2242780049556711 [Eh]
	 SCS Opposite-Spin Energy  =      -2.5422320688939863 [Eh]
	 SCS Correlation Energy    =      -2.7665100738496573 [Eh]
	 SCS Total Energy          =    -616.0739892429554629 [Eh]
	-----------------------------------------------------------

  Dipole Moment: [D]
     X:    -1.0891      Y:     0.6454      Z:     0.5242     Total:     1.3702

*** Psi4 exiting successfully. Buy a developer a beer!
