                               Psi4 1.4a3.dev225

  ==> Input File <==

--------------------------------------------------------------------------
#psi4
#
memory 32 gb

molecule  {
0 1
  O        0.8655410    -0.2383350    -0.1978900
  C       -1.3532420     0.4851090     0.1659470
  C        0.0923410     0.8600100     0.3004220
  C       -4.0760200    -0.2326370    -0.0482320
  C       -1.8292680    -0.6845410     0.7713590
  C       -2.2449120     1.2876570    -0.5496990
  C       -3.1761510    -1.0163889     0.6488239
  C       -3.5922330     0.9350480    -0.6483300
  C        2.2320470    -0.1282220    -0.1046120
  C       -5.5355430    -0.5984480    -0.1257210
  C        2.9140800     0.9938170     0.3783620
  C        2.9472190    -1.2508620    -0.5439590
  C        4.3132210     0.9773220     0.4183570
  C        4.3370840    -1.2508910    -0.4991240
  C        5.0300920    -0.1353830    -0.0155080
  H        0.3103430     1.7730630    -0.2708990
  H        0.3551050     1.0439550     1.3523320
  H       -1.1374380    -1.3254410     1.3139440
  H       -1.8855300     2.1916430    -1.0389860
  H       -3.5267120    -1.9532640     1.1308580
  H       -4.2733370     1.5694920    -1.2133600
  H       -6.0038750    -0.1617940    -1.0122750
  H       -5.6673980    -1.6833350    -0.1714030
  H       -6.0811880    -0.2353180     0.7521400
  H        2.3826970     1.8764090     0.7176150
  H        2.3879470    -2.1054110    -0.9150460
  H        4.8399070     1.8514100     0.7945710
  H        4.8825510    -2.1268580    -0.8422600
  H        6.1161710    -0.1361850     0.0199920
units angstrom
no_reorient  #important for SAPT in psi4, default
symmetry c1  #important for SAPT in psi4, default
}

set PROPERTIES_ORIGIN ["COM"]
properties('MP2/aug-cc-pvtz', properties = ['dipole'])
--------------------------------------------------------------------------

    Molecular point group: c1
  Charge       = 0
  Multiplicity = 1
  Basis Set: AUG-CC-PVTZ
    Blend: AUG-CC-PVTZ
  Basis Set: (AUG-CC-PVTZ AUX)
    Blend: AUG-CC-PVTZ-JKFIT

    Orbital Energies [Eh]
    ---------------------

    Doubly Occupied:

       1A    -20.584035     2A    -11.301094     3A    -11.293142
       4A    -11.241347     5A    -11.241021     6A    -11.239459
       7A    -11.239117     8A    -11.237184     9A    -11.234776
      10A    -11.233015    11A    -11.232537    12A    -11.231639
      13A    -11.227754    14A    -11.227322    15A    -11.225968
      16A     -1.404975    17A     -1.160628    18A     -1.144069
      19A     -1.068285    20A     -1.017835    21A     -1.012943
      22A     -1.008353    23A     -0.964215    24A     -0.900562
      25A     -0.832867    26A     -0.831983    27A     -0.808791
      28A     -0.782359    29A     -0.721186    30A     -0.683683
      31A     -0.671072    32A     -0.663769    33A     -0.644091
      34A     -0.629213    35A     -0.621128    36A     -0.608980
      37A     -0.586837    38A     -0.581881    39A     -0.577459
      40A     -0.564386    41A     -0.542576    42A     -0.532472
      43A     -0.522950    44A     -0.514384    45A     -0.491150
      46A     -0.488530    47A     -0.484806    48A     -0.477395
      49A     -0.464381    50A     -0.340034    51A     -0.336710
      52A     -0.323751    53A     -0.312394

  @DF-RHF Final Energy:  -613.37092682269122

   => Energetics <=

    Nuclear Repulsion Energy =            871.1278219776056631
    One-Electron Energy =               -2560.3725119384180289
    Two-Electron Energy =                1075.8737631381211486
    Total Energy =                       -613.3709268226912172
  Basis Set: (AUG-CC-PVTZ AUX)
    Blend: AUG-CC-PVTZ-RI
    Molecular point group: c1

    Geometry (in Angstrom), charge = 0, multiplicity = 1:

       Center              X                  Y                   Z               Mass
    ------------   -----------------  -----------------  -----------------  -----------------
         O            0.829242228373    -0.236668328615    -0.194022595679    15.994914619570
         C           -1.389540771627     0.486775671385     0.169814404321    12.000000000000
         C            0.056042228373     0.861676671385     0.304289404321    12.000000000000
         C           -4.112318771627    -0.230970328615    -0.044364595679    12.000000000000
         C           -1.865566771627    -0.682874328615     0.775226404321    12.000000000000
         C           -2.281210771627     1.289323671385    -0.545831595679    12.000000000000
         C           -3.212449771627    -1.014722228615     0.652691304321    12.000000000000
         C           -3.628531771627     0.936714671385    -0.644462595679    12.000000000000
         C            2.195748228373    -0.126555328615    -0.100744595679    12.000000000000
         C           -5.571841771627    -0.596781328615    -0.121853595679    12.000000000000
         C            2.877781228373     0.995483671385     0.382229404321    12.000000000000
         C            2.910920228373    -1.249195328615    -0.540091595679    12.000000000000
         C            4.276922228373     0.978988671385     0.422224404321    12.000000000000
         C            4.300785228373    -1.249224328615    -0.495256595679    12.000000000000
         C            4.993793228373    -0.133716328615    -0.011640595679    12.000000000000
         H            0.274044228373     1.774729671385    -0.267031595679     1.007825032230
         H            0.318806228373     1.045621671385     1.356199404321     1.007825032230
         H           -1.173736771627    -1.323774328615     1.317811404321     1.007825032230
         H           -1.921828771627     2.193309671385    -1.035118595679     1.007825032230
         H           -3.563010771627    -1.951597328615     1.134725404321     1.007825032230
         H           -4.309635771627     1.571158671385    -1.209492595679     1.007825032230
         H           -6.040173771627    -0.160127328615    -1.008407595679     1.007825032230
         H           -5.703696771627    -1.681668328615    -0.167535595679     1.007825032230
         H           -6.117486771627    -0.233651328615     0.756007404321     1.007825032230
         H            2.346398228373     1.878075671385     0.721482404321     1.007825032230
         H            2.351648228373    -2.103744328615    -0.911178595679     1.007825032230
         H            4.803608228373     1.853076671385     0.798438404321     1.007825032230
         H            4.846252228373    -2.125191328615    -0.838392595679     1.007825032230
         H            6.079872228373    -0.134518328615     0.023859404321     1.007825032230

  Basis Set: AUG-CC-PVTZ
    Blend: AUG-CC-PVTZ
  Basis Set: (AUG-CC-PVTZ AUX)
    Blend: AUG-CC-PVTZ-JKFIT
	 Reference Energy          =    -613.3709268226912172 [Eh]
	 Singles Energy            =      -0.0000000000000000 [Eh]
	 Same-Spin Energy          =      -0.6727234259946420 [Eh]
	 Opposite-Spin Energy      =      -2.1165128303021636 [Eh]
	 Correlation Energy        =      -2.7892362562968058 [Eh]
	 Total Energy              =    -616.1601630789880346 [Eh]

	 ================> DF-SCS-MP2 Energies <==================
	-----------------------------------------------------------
	 SCS Same-Spin Scale       =       0.3333333333333333 [-]
	 SCS Opposite-Spin Scale   =       1.2000000000000000 [-]
	 SCS Same-Spin Energy      =      -0.2242411419982140 [Eh]
	 SCS Opposite-Spin Energy  =      -2.5398153963625965 [Eh]
	 SCS Correlation Energy    =      -2.7640565383608102 [Eh]
	 SCS Total Energy          =    -616.1349833610520363 [Eh]
	-----------------------------------------------------------

  Dipole Moment: [D]
     X:    -0.9912      Y:     0.7424      Z:     0.4669     Total:     1.3236

*** Psi4 exiting successfully. Buy a developer a beer!
