                               Psi4 1.4a3.dev225

  ==> Input File <==

--------------------------------------------------------------------------
#psi4
#
memory 32 gb

molecule  {
0 1
  O        0.8655410    -0.2383350    -0.1978900
  C       -1.3532420     0.4851090     0.1659470
  C        0.0923410     0.8600100     0.3004220
  C       -4.0760200    -0.2326370    -0.0482320
  C       -1.8292680    -0.6845410     0.7713590
  C       -2.2449120     1.2876570    -0.5496990
  C       -3.1721270    -1.0365930     0.6617200
  C       -3.5922330     0.9350480    -0.6483300
  C        2.2320470    -0.1282220    -0.1046120
  C       -5.5355430    -0.5984480    -0.1257210
  C        2.9628289     1.0740158     0.4128830
  C        2.9472190    -1.2508620    -0.5439590
  C        4.3132210     0.9773220     0.4183570
  C        4.3370840    -1.2508910    -0.4991240
  C        5.0300920    -0.1353830    -0.0155080
  H        0.3103430     1.7730630    -0.2708990
  H        0.3551050     1.0439550     1.3523320
  H       -1.1374380    -1.3254410     1.3139440
  H       -1.8855300     2.1916430    -1.0389860
  H       -3.5267120    -1.9532640     1.1308580
  H       -4.2733370     1.5694920    -1.2133600
  H       -6.0038750    -0.1617940    -1.0122750
  H       -5.6673980    -1.6833350    -0.1714030
  H       -6.0811880    -0.2353180     0.7521400
  H        2.3826970     1.8764090     0.7176150
  H        2.3879470    -2.1054110    -0.9150460
  H        4.8399070     1.8514100     0.7945710
  H        4.8825510    -2.1268580    -0.8422600
  H        6.1161710    -0.1361850     0.0199920
units angstrom
no_reorient  #important for SAPT in psi4, default
symmetry c1  #important for SAPT in psi4, default
}

set PROPERTIES_ORIGIN ["COM"]
properties('MP2/aug-cc-pvtz', properties = ['dipole'])
--------------------------------------------------------------------------

    Molecular point group: c1
  Charge       = 0
  Multiplicity = 1
  Basis Set: AUG-CC-PVTZ
    Blend: AUG-CC-PVTZ
  Basis Set: (AUG-CC-PVTZ AUX)
    Blend: AUG-CC-PVTZ-JKFIT

    Orbital Energies [Eh]
    ---------------------

    Doubly Occupied:

       1A    -20.587101     2A    -11.311161     3A    -11.295119
       4A    -11.244613     5A    -11.240366     6A    -11.240085
       7A    -11.238463     8A    -11.236760     9A    -11.235837
      10A    -11.235087    11A    -11.232975    12A    -11.232822
      13A    -11.226404    14A    -11.225279    15A    -11.224941
      16A     -1.406150    17A     -1.159120    18A     -1.140655
      19A     -1.068073    20A     -1.024804    21A     -1.013984
      22A     -1.001775    23A     -0.962096    24A     -0.900285
      25A     -0.833745    26A     -0.827532    27A     -0.810387
      28A     -0.783850    29A     -0.719200    30A     -0.685446
      31A     -0.673834    32A     -0.669409    33A     -0.641347
      34A     -0.628015    35A     -0.621314    36A     -0.609200
      37A     -0.592286    38A     -0.584317    39A     -0.577582
      40A     -0.567194    41A     -0.543319    42A     -0.531922
      43A     -0.524746    44A     -0.518751    45A     -0.488626
      46A     -0.487291    47A     -0.485890    48A     -0.469977
      49A     -0.466123    50A     -0.346126    51A     -0.337484
      52A     -0.323139    53A     -0.302897

  @DF-RHF Final Energy:  -613.35961465341347

   => Energetics <=

    Nuclear Repulsion Energy =            869.2682633559135184
    One-Electron Energy =               -2556.5859449094591582
    Two-Electron Energy =                1073.9580669001322804
    Total Energy =                       -613.3596146534134732
  Basis Set: (AUG-CC-PVTZ AUX)
    Blend: AUG-CC-PVTZ-RI
    Molecular point group: c1

    Geometry (in Angstrom), charge = 0, multiplicity = 1:

       Center              X                  Y                   Z               Mass
    ------------   -----------------  -----------------  -----------------  -----------------
         O            0.826045557365    -0.240302453669    -0.196894843913    15.994914619570
         C           -1.392737442635     0.483141546331     0.166942156087    12.000000000000
         C            0.052845557365     0.858042546331     0.301417156087    12.000000000000
         C           -4.115515442635    -0.234604453669    -0.047236843913    12.000000000000
         C           -1.868763442635    -0.686508453669     0.772354156087    12.000000000000
         C           -2.284407442635     1.285689546331    -0.548703843913    12.000000000000
         C           -3.211622442635    -1.038560453669     0.662715156087    12.000000000000
         C           -3.631728442635     0.933080546331    -0.647334843913    12.000000000000
         C            2.192551557365    -0.130189453669    -0.103616843913    12.000000000000
         C           -5.575038442635    -0.600415453669    -0.124725843913    12.000000000000
         C            2.923333457365     1.072048346331     0.413878156087    12.000000000000
         C            2.907723557365    -1.252829453669    -0.542963843913    12.000000000000
         C            4.273725557365     0.975354546331     0.419352156087    12.000000000000
         C            4.297588557365    -1.252858453669    -0.498128843913    12.000000000000
         C            4.990596557365    -0.137350453669    -0.014512843913    12.000000000000
         H            0.270847557365     1.771095546331    -0.269903843913     1.007825032230
         H            0.315609557365     1.041987546331     1.353327156087     1.007825032230
         H           -1.176933442635    -1.327408453669     1.314939156087     1.007825032230
         H           -1.925025442635     2.189675546331    -1.037990843913     1.007825032230
         H           -3.566207442635    -1.955231453669     1.131853156087     1.007825032230
         H           -4.312832442635     1.567524546331    -1.212364843913     1.007825032230
         H           -6.043370442635    -0.163761453669    -1.011279843913     1.007825032230
         H           -5.706893442635    -1.685302453669    -0.170407843913     1.007825032230
         H           -6.120683442635    -0.237285453669     0.753135156087     1.007825032230
         H            2.343201557365     1.874441546331     0.718610156087     1.007825032230
         H            2.348451557365    -2.107378453669    -0.914050843913     1.007825032230
         H            4.800411557365     1.849442546331     0.795566156087     1.007825032230
         H            4.843055557365    -2.128825453669    -0.841264843913     1.007825032230
         H            6.076675557365    -0.138152453669     0.020987156087     1.007825032230

  Basis Set: AUG-CC-PVTZ
    Blend: AUG-CC-PVTZ
  Basis Set: (AUG-CC-PVTZ AUX)
    Blend: AUG-CC-PVTZ-JKFIT
	 Reference Energy          =    -613.3596146534134732 [Eh]
	 Singles Energy            =      -0.0000000000000000 [Eh]
	 Same-Spin Energy          =      -0.6726443505879887 [Eh]
	 Opposite-Spin Energy      =      -2.1172888956167126 [Eh]
	 Correlation Energy        =      -2.7899332462047015 [Eh]
	 Total Energy              =    -616.1495478996181419 [Eh]

	 ================> DF-SCS-MP2 Energies <==================
	-----------------------------------------------------------
	 SCS Same-Spin Scale       =       0.3333333333333333 [-]
	 SCS Opposite-Spin Scale   =       1.2000000000000000 [-]
	 SCS Same-Spin Energy      =      -0.2242147835293296 [Eh]
	 SCS Opposite-Spin Energy  =      -2.5407466747400549 [Eh]
	 SCS Correlation Energy    =      -2.7649614582693842 [Eh]
	 SCS Total Energy          =    -616.1245761116828135 [Eh]
	-----------------------------------------------------------

  Dipole Moment: [D]
     X:    -1.1740      Y:     0.7342      Z:     0.4688     Total:     1.4619

*** Psi4 exiting successfully. Buy a developer a beer!
