                               Psi4 1.4a3.dev225

  ==> Input File <==

--------------------------------------------------------------------------
#psi4
#
memory 32 gb

molecule  {
0 1
  O        0.8655410    -0.2383350    -0.1978900
  C       -1.3532420     0.4851090     0.1659470
  C        0.0963794     0.8384210     0.3146514
  C       -4.0760200    -0.2326370    -0.0482320
  C       -1.8292680    -0.6845410     0.7713590
  C       -2.2449120     1.2876570    -0.5496990
  C       -3.1721270    -1.0365930     0.6617200
  C       -3.5922330     0.9350480    -0.6483300
  C        2.2320470    -0.1282220    -0.1046120
  C       -5.5355430    -0.5984480    -0.1257210
  C        2.9140800     0.9938170     0.3783620
  C        2.9472190    -1.2508620    -0.5439590
  C        4.3132210     0.9773220     0.4183570
  C        4.3370840    -1.2508910    -0.4991240
  C        5.0300920    -0.1353830    -0.0155080
  H        0.3103430     1.7730630    -0.2708990
  H        0.3551050     1.0439550     1.3523320
  H       -1.1374380    -1.3254410     1.3139440
  H       -1.8855300     2.1916430    -1.0389860
  H       -3.5267120    -1.9532640     1.1308580
  H       -4.2733370     1.5694920    -1.2133600
  H       -6.0038750    -0.1617940    -1.0122750
  H       -5.6673980    -1.6833350    -0.1714030
  H       -6.0811880    -0.2353180     0.7521400
  H        2.3826970     1.8764090     0.7176150
  H        2.3879470    -2.1054110    -0.9150460
  H        4.8399070     1.8514100     0.7945710
  H        4.8825510    -2.1268580    -0.8422600
  H        6.1161710    -0.1361850     0.0199920
units angstrom
no_reorient  #important for SAPT in psi4, default
symmetry c1  #important for SAPT in psi4, default
}

set PROPERTIES_ORIGIN ["COM"]
properties('MP2/aug-cc-pvtz', properties = ['dipole'])
--------------------------------------------------------------------------

    Molecular point group: c1
  Charge       = 0
  Multiplicity = 1
  Basis Set: AUG-CC-PVTZ
    Blend: AUG-CC-PVTZ
  Basis Set: (AUG-CC-PVTZ AUX)
    Blend: AUG-CC-PVTZ-JKFIT

    Orbital Energies [Eh]
    ---------------------

    Doubly Occupied:

       1A    -20.585012     2A    -11.301701     3A    -11.293237
       4A    -11.243688     5A    -11.241290     6A    -11.239771
       7A    -11.238778     8A    -11.237501     9A    -11.234434
      10A    -11.233475    11A    -11.232181    12A    -11.231740
      13A    -11.228315    14A    -11.227794    15A    -11.225752
      16A     -1.409282    17A     -1.158707    18A     -1.144335
      19A     -1.066779    20A     -1.018219    21A     -1.013353
      22A     -1.009017    23A     -0.963567    24A     -0.899224
      25A     -0.833285    26A     -0.831165    27A     -0.809837
      28A     -0.782019    29A     -0.722820    30A     -0.684750
      31A     -0.669813    32A     -0.665560    33A     -0.644298
      34A     -0.631158    35A     -0.619999    36A     -0.609992
      37A     -0.587234    38A     -0.583342    39A     -0.576871
      40A     -0.565521    41A     -0.543052    42A     -0.532869
      43A     -0.519927    44A     -0.514178    45A     -0.491550
      46A     -0.486871    47A     -0.485040    48A     -0.478338
      49A     -0.462599    50A     -0.340291    51A     -0.336534
      52A     -0.322256    53A     -0.313014

  @DF-RHF Final Energy:  -613.37106353599609

   => Energetics <=

    Nuclear Repulsion Energy =            870.9648359058119240
    One-Electron Energy =               -2560.0291292002334558
    Two-Electron Energy =                1075.6932297584255593
    Total Energy =                       -613.3710635359959724
  Basis Set: (AUG-CC-PVTZ AUX)
    Blend: AUG-CC-PVTZ-RI
    Molecular point group: c1

    Geometry (in Angstrom), charge = 0, multiplicity = 1:

       Center              X                  Y                   Z               Mass
    ------------   -----------------  -----------------  -----------------  -----------------
         O            0.828753855736    -0.234136749128    -0.195665698473    15.994914619570
         C           -1.390029144264     0.489307250872     0.168171301527    12.000000000000
         C            0.059592255736     0.842619250872     0.316875701527    12.000000000000
         C           -4.112807144264    -0.228438749128    -0.046007698473    12.000000000000
         C           -1.866055144264    -0.680342749128     0.773583301527    12.000000000000
         C           -2.281699144264     1.291855250872    -0.547474698473    12.000000000000
         C           -3.208914144264    -1.032394749128     0.663944301527    12.000000000000
         C           -3.629020144264     0.939246250872    -0.646105698473    12.000000000000
         C            2.195259855736    -0.124023749128    -0.102387698473    12.000000000000
         C           -5.572330144264    -0.594249749128    -0.123496698473    12.000000000000
         C            2.877292855736     0.998015250872     0.380586301527    12.000000000000
         C            2.910431855736    -1.246663749128    -0.541734698473    12.000000000000
         C            4.276433855736     0.981520250872     0.420581301527    12.000000000000
         C            4.300296855736    -1.246692749128    -0.496899698473    12.000000000000
         C            4.993304855736    -0.131184749128    -0.013283698473    12.000000000000
         H            0.273555855736     1.777261250872    -0.268674698473     1.007825032230
         H            0.318317855736     1.048153250872     1.354556301527     1.007825032230
         H           -1.174225144264    -1.321242749128     1.316168301527     1.007825032230
         H           -1.922317144264     2.195841250872    -1.036761698473     1.007825032230
         H           -3.563499144264    -1.949065749128     1.133082301527     1.007825032230
         H           -4.310124144264     1.573690250872    -1.211135698473     1.007825032230
         H           -6.040662144264    -0.157595749128    -1.010050698473     1.007825032230
         H           -5.704185144264    -1.679136749128    -0.169178698473     1.007825032230
         H           -6.117975144264    -0.231119749128     0.754364301527     1.007825032230
         H            2.345909855736     1.880607250872     0.719839301527     1.007825032230
         H            2.351159855736    -2.101212749128    -0.912821698473     1.007825032230
         H            4.803119855736     1.855608250872     0.796795301527     1.007825032230
         H            4.845763855736    -2.122659749128    -0.840035698473     1.007825032230
         H            6.079383855736    -0.131986749128     0.022216301527     1.007825032230

  Basis Set: AUG-CC-PVTZ
    Blend: AUG-CC-PVTZ
  Basis Set: (AUG-CC-PVTZ AUX)
    Blend: AUG-CC-PVTZ-JKFIT
	 Reference Energy          =    -613.3710635359960861 [Eh]
	 Singles Energy            =      -0.0000000000000000 [Eh]
	 Same-Spin Energy          =      -0.6726606411252248 [Eh]
	 Opposite-Spin Energy      =      -2.1163885345563282 [Eh]
	 Correlation Energy        =      -2.7890491756815532 [Eh]
	 Total Energy              =    -616.1601127116775842 [Eh]

	 ================> DF-SCS-MP2 Energies <==================
	-----------------------------------------------------------
	 SCS Same-Spin Scale       =       0.3333333333333333 [-]
	 SCS Opposite-Spin Scale   =       1.2000000000000000 [-]
	 SCS Same-Spin Energy      =      -0.2242202137084083 [Eh]
	 SCS Opposite-Spin Energy  =      -2.5396662414675939 [Eh]
	 SCS Correlation Energy    =      -2.7638864551760021 [Eh]
	 SCS Total Energy          =    -616.1349499911721068 [Eh]
	-----------------------------------------------------------

  Dipole Moment: [D]
     X:    -0.9488      Y:     0.6836      Z:     0.4860     Total:     1.2664

*** Psi4 exiting successfully. Buy a developer a beer!
