                               Psi4 1.4a3.dev225

  ==> Input File <==

--------------------------------------------------------------------------
#psi4
#
memory 32 gb

molecule  {
0 1
  O        0.8655410    -0.2383350    -0.1978900
  C       -1.3532420     0.4851090     0.1659470
  C        0.0923410     0.8600100     0.3004220
  C       -4.0885746    -0.1787220    -0.1376463
  C       -1.8292680    -0.6845410     0.7713590
  C       -2.2449120     1.2876570    -0.5496990
  C       -3.1721270    -1.0365930     0.6617200
  C       -3.5922330     0.9350480    -0.6483300
  C        2.2320470    -0.1282220    -0.1046120
  C       -5.5355430    -0.5984480    -0.1257210
  C        2.9140800     0.9938170     0.3783620
  C        2.9472190    -1.2508620    -0.5439590
  C        4.3132210     0.9773220     0.4183570
  C        4.3370840    -1.2508910    -0.4991240
  C        5.0300920    -0.1353830    -0.0155080
  H        0.3103430     1.7730630    -0.2708990
  H        0.3551050     1.0439550     1.3523320
  H       -1.1374380    -1.3254410     1.3139440
  H       -1.8855300     2.1916430    -1.0389860
  H       -3.5267120    -1.9532640     1.1308580
  H       -4.2733370     1.5694920    -1.2133600
  H       -6.0038750    -0.1617940    -1.0122750
  H       -5.6673980    -1.6833350    -0.1714030
  H       -6.0811880    -0.2353180     0.7521400
  H        2.3826970     1.8764090     0.7176150
  H        2.3879470    -2.1054110    -0.9150460
  H        4.8399070     1.8514100     0.7945710
  H        4.8825510    -2.1268580    -0.8422600
  H        6.1161710    -0.1361850     0.0199920
units angstrom
no_reorient  #important for SAPT in psi4, default
symmetry c1  #important for SAPT in psi4, default
}

set PROPERTIES_ORIGIN ["COM"]
properties('MP2/aug-cc-pvtz', properties = ['dipole'])
--------------------------------------------------------------------------

    Molecular point group: c1
  Charge       = 0
  Multiplicity = 1
  Basis Set: AUG-CC-PVTZ
    Blend: AUG-CC-PVTZ
  Basis Set: (AUG-CC-PVTZ AUX)
    Blend: AUG-CC-PVTZ-JKFIT

    Orbital Energies [Eh]
    ---------------------

    Doubly Occupied:

       1A    -20.584184     2A    -11.301235     3A    -11.293510
       4A    -11.242835     5A    -11.241077     6A    -11.240175
       7A    -11.240039     8A    -11.239503     9A    -11.237890
      10A    -11.233956    11A    -11.233099    12A    -11.227810
      13A    -11.227376    14A    -11.226323    15A    -11.223430
      16A     -1.405171    17A     -1.159479    18A     -1.143994
      19A     -1.068969    20A     -1.017994    21A     -1.011954
      22A     -1.008808    23A     -0.964386    24A     -0.901250
      25A     -0.836404    26A     -0.827271    27A     -0.810361
      28A     -0.779834    29A     -0.721258    30A     -0.684648
      31A     -0.670126    32A     -0.663826    33A     -0.643977
      34A     -0.630791    35A     -0.620534    36A     -0.609274
      37A     -0.587478    38A     -0.584891    39A     -0.577303
      40A     -0.563016    41A     -0.544344    42A     -0.532705
      43A     -0.524468    44A     -0.513007    45A     -0.498826
      46A     -0.486805    47A     -0.480620    48A     -0.470277
      49A     -0.462415    50A     -0.342897    51A     -0.339838
      52A     -0.319266    53A     -0.312508

  @DF-RHF Final Energy:  -613.36017769377793

   => Energetics <=

    Nuclear Repulsion Energy =            870.6660210125661479
    One-Electron Energy =               -2559.4255696429927411
    Two-Electron Energy =                1075.3993709366488929
    Total Energy =                       -613.3601776937778141
  Basis Set: (AUG-CC-PVTZ AUX)
    Blend: AUG-CC-PVTZ-RI
    Molecular point group: c1

    Geometry (in Angstrom), charge = 0, multiplicity = 1:

       Center              X                  Y                   Z               Mass
    ------------   -----------------  -----------------  -----------------  -----------------
         O            0.829758961804    -0.238710336097    -0.189387574456    15.994914619570
         C           -1.389024038196     0.484733663903     0.174449425544    12.000000000000
         C            0.056558961804     0.859634663903     0.308924425544    12.000000000000
         C           -4.124356638196    -0.179097336097    -0.129143874456    12.000000000000
         C           -1.865050038196    -0.684916336097     0.779861425544    12.000000000000
         C           -2.280694038196     1.287281663903    -0.541196574456    12.000000000000
         C           -3.207909038196    -1.036968336097     0.670222425544    12.000000000000
         C           -3.628015038196     0.934672663903    -0.639827574456    12.000000000000
         C            2.196264961804    -0.128597336097    -0.096109574456    12.000000000000
         C           -5.571325038196    -0.598823336097    -0.117218574456    12.000000000000
         C            2.878297961804     0.993441663903     0.386864425544    12.000000000000
         C            2.911436961804    -1.251237336097    -0.535456574456    12.000000000000
         C            4.277438961804     0.976946663903     0.426859425544    12.000000000000
         C            4.301301961804    -1.251266336097    -0.490621574456    12.000000000000
         C            4.994309961804    -0.135758336097    -0.007005574456    12.000000000000
         H            0.274560961804     1.772687663903    -0.262396574456     1.007825032230
         H            0.319322961804     1.043579663903     1.360834425544     1.007825032230
         H           -1.173220038196    -1.325816336097     1.322446425544     1.007825032230
         H           -1.921312038196     2.191267663903    -1.030483574456     1.007825032230
         H           -3.562494038196    -1.953639336097     1.139360425544     1.007825032230
         H           -4.309119038196     1.569116663903    -1.204857574456     1.007825032230
         H           -6.039657038196    -0.162169336097    -1.003772574456     1.007825032230
         H           -5.703180038196    -1.683710336097    -0.162900574456     1.007825032230
         H           -6.116970038196    -0.235693336097     0.760642425544     1.007825032230
         H            2.346914961804     1.876033663903     0.726117425544     1.007825032230
         H            2.352164961804    -2.105786336097    -0.906543574456     1.007825032230
         H            4.804124961804     1.851034663903     0.803073425544     1.007825032230
         H            4.846768961804    -2.127233336097    -0.833757574456     1.007825032230
         H            6.080388961804    -0.136560336097     0.028494425544     1.007825032230

  Basis Set: AUG-CC-PVTZ
    Blend: AUG-CC-PVTZ
  Basis Set: (AUG-CC-PVTZ AUX)
    Blend: AUG-CC-PVTZ-JKFIT
	 Reference Energy          =    -613.3601776937779277 [Eh]
	 Singles Energy            =      -0.0000000000000000 [Eh]
	 Same-Spin Energy          =      -0.6721672158901678 [Eh]
	 Opposite-Spin Energy      =      -2.1169257343479297 [Eh]
	 Correlation Energy        =      -2.7890929502380977 [Eh]
	 Total Energy              =    -616.1492706440160418 [Eh]

	 ================> DF-SCS-MP2 Energies <==================
	-----------------------------------------------------------
	 SCS Same-Spin Scale       =       0.3333333333333333 [-]
	 SCS Opposite-Spin Scale   =       1.2000000000000000 [-]
	 SCS Same-Spin Energy      =      -0.2240557386300559 [Eh]
	 SCS Opposite-Spin Energy  =      -2.5403108812175157 [Eh]
	 SCS Correlation Energy    =      -2.7643666198475718 [Eh]
	 SCS Total Energy          =    -616.1245443136255062 [Eh]
	-----------------------------------------------------------

  Dipole Moment: [D]
     X:    -0.9836      Y:     0.7217      Z:     0.5025     Total:     1.3194

*** Psi4 exiting successfully. Buy a developer a beer!
