                               Psi4 1.4a3.dev225

  ==> Input File <==

--------------------------------------------------------------------------
#psi4
#
memory 32 gb

molecule  {
0 1
  O        0.8655410    -0.2383350    -0.1978900
  C       -1.3532420     0.4851090     0.1659470
  C        0.0923410     0.8600100     0.3004220
  C       -4.0760200    -0.2326370    -0.0482320
  C       -1.8292680    -0.6845410     0.7713590
  C       -2.2449120     1.2876570    -0.5496990
  C       -3.1721270    -1.0365930     0.6617200
  C       -3.5922330     0.9350480    -0.6483300
  C        2.1823235    -0.1322287    -0.1080061
  C       -5.5355430    -0.5984480    -0.1257210
  C        2.9140800     0.9938170     0.3783620
  C        2.9472190    -1.2508620    -0.5439590
  C        4.3132210     0.9773220     0.4183570
  C        4.3370840    -1.2508910    -0.4991240
  C        5.0300920    -0.1353830    -0.0155080
  H        0.3103430     1.7730630    -0.2708990
  H        0.3551050     1.0439550     1.3523320
  H       -1.1374380    -1.3254410     1.3139440
  H       -1.8855300     2.1916430    -1.0389860
  H       -3.5267120    -1.9532640     1.1308580
  H       -4.2733370     1.5694920    -1.2133600
  H       -6.0038750    -0.1617940    -1.0122750
  H       -5.6673980    -1.6833350    -0.1714030
  H       -6.0811880    -0.2353180     0.7521400
  H        2.3826970     1.8764090     0.7176150
  H        2.3879470    -2.1054110    -0.9150460
  H        4.8399070     1.8514100     0.7945710
  H        4.8825510    -2.1268580    -0.8422600
  H        6.1161710    -0.1361850     0.0199920
units angstrom
no_reorient  #important for SAPT in psi4, default
symmetry c1  #important for SAPT in psi4, default
}

set PROPERTIES_ORIGIN ["COM"]
properties('MP2/aug-cc-pvtz', properties = ['dipole'])
--------------------------------------------------------------------------

    Molecular point group: c1
  Charge       = 0
  Multiplicity = 1
  Basis Set: AUG-CC-PVTZ
    Blend: AUG-CC-PVTZ
  Basis Set: (AUG-CC-PVTZ AUX)
    Blend: AUG-CC-PVTZ-JKFIT

    Orbital Energies [Eh]
    ---------------------

    Doubly Occupied:

       1A    -20.592307     2A    -11.305288     3A    -11.298185
       4A    -11.245895     5A    -11.241596     6A    -11.239912
       7A    -11.238908     8A    -11.237349     9A    -11.237331
      10A    -11.234214    11A    -11.234103    12A    -11.232313
      13A    -11.227284    14A    -11.226088    15A    -11.223689
      16A     -1.429488    17A     -1.160774    18A     -1.136962
      19A     -1.070977    20A     -1.015573    21A     -1.013875
      22A     -1.005463    23A     -0.965337    24A     -0.904151
      25A     -0.835286    26A     -0.827970    27A     -0.809024
      28A     -0.784106    29A     -0.724986    30A     -0.688037
      31A     -0.677075    32A     -0.667599    33A     -0.645482
      34A     -0.632303    35A     -0.625134    36A     -0.608710
      37A     -0.585671    38A     -0.581049    39A     -0.578427
      40A     -0.565387    41A     -0.546164    42A     -0.536307
      43A     -0.525704    44A     -0.514692    45A     -0.490145
      46A     -0.489135    47A     -0.486393    48A     -0.473207
      49A     -0.466548    50A     -0.338807    51A     -0.337035
      52A     -0.324598    53A     -0.304109

  @DF-RHF Final Energy:  -613.36909607601274

   => Energetics <=

    Nuclear Repulsion Energy =            870.9819677187772413
    One-Electron Energy =               -2559.9298217924861092
    Two-Electron Energy =                1075.5787579976961297
    Total Energy =                       -613.3690960760127382
  Basis Set: (AUG-CC-PVTZ AUX)
    Blend: AUG-CC-PVTZ-RI
    Molecular point group: c1

    Geometry (in Angstrom), charge = 0, multiplicity = 1:

       Center              X                  Y                   Z               Mass
    ------------   -----------------  -----------------  -----------------  -----------------
         O            0.832010434530    -0.235201781155    -0.194598170793    15.994914619570
         C           -1.386772565470     0.488242218845     0.169238829207    12.000000000000
         C            0.058810434530     0.863143218845     0.303713829207    12.000000000000
         C           -4.109550565470    -0.229503781155    -0.044940170793    12.000000000000
         C           -1.862798565470    -0.681407781155     0.774650829207    12.000000000000
         C           -2.278442565470     1.290790218845    -0.546407170793    12.000000000000
         C           -3.205657565470    -1.033459781155     0.665011829207    12.000000000000
         C           -3.625763565470     0.938181218845    -0.645038170793    12.000000000000
         C            2.148792934530    -0.129095481155    -0.104714270793    12.000000000000
         C           -5.569073565470    -0.595314781155    -0.122429170793    12.000000000000
         C            2.880549434530     0.996950218845     0.381653829207    12.000000000000
         C            2.913688434530    -1.247728781155    -0.540667170793    12.000000000000
         C            4.279690434530     0.980455218845     0.421648829207    12.000000000000
         C            4.303553434530    -1.247757781155    -0.495832170793    12.000000000000
         C            4.996561434530    -0.132249781155    -0.012216170793    12.000000000000
         H            0.276812434530     1.776196218845    -0.267607170793     1.007825032230
         H            0.321574434530     1.047088218845     1.355623829207     1.007825032230
         H           -1.170968565470    -1.322307781155     1.317235829207     1.007825032230
         H           -1.919060565470     2.194776218845    -1.035694170793     1.007825032230
         H           -3.560242565470    -1.950130781155     1.134149829207     1.007825032230
         H           -4.306867565470     1.572625218845    -1.210068170793     1.007825032230
         H           -6.037405565470    -0.158660781155    -1.008983170793     1.007825032230
         H           -5.700928565470    -1.680201781155    -0.168111170793     1.007825032230
         H           -6.114718565470    -0.232184781155     0.755431829207     1.007825032230
         H            2.349166434530     1.879542218845     0.720906829207     1.007825032230
         H            2.354416434530    -2.102277781155    -0.911754170793     1.007825032230
         H            4.806376434530     1.854543218845     0.797862829207     1.007825032230
         H            4.849020434530    -2.123724781155    -0.838968170793     1.007825032230
         H            6.082640434530    -0.133051781155     0.023283829207     1.007825032230

  Basis Set: AUG-CC-PVTZ
    Blend: AUG-CC-PVTZ
  Basis Set: (AUG-CC-PVTZ AUX)
    Blend: AUG-CC-PVTZ-JKFIT
	 Reference Energy          =    -613.3690960760127382 [Eh]
	 Singles Energy            =      -0.0000000000000000 [Eh]
	 Same-Spin Energy          =      -0.6727288546471711 [Eh]
	 Opposite-Spin Energy      =      -2.1163592661037467 [Eh]
	 Correlation Energy        =      -2.7890881207509177 [Eh]
	 Total Energy              =    -616.1581841967636137 [Eh]

	 ================> DF-SCS-MP2 Energies <==================
	-----------------------------------------------------------
	 SCS Same-Spin Scale       =       0.3333333333333333 [-]
	 SCS Opposite-Spin Scale   =       1.2000000000000000 [-]
	 SCS Same-Spin Energy      =      -0.2242429515490570 [Eh]
	 SCS Opposite-Spin Energy  =      -2.5396311193244960 [Eh]
	 SCS Correlation Energy    =      -2.7638740708735532 [Eh]
	 SCS Total Energy          =    -616.1329701468862368 [Eh]
	-----------------------------------------------------------

  Dipole Moment: [D]
     X:    -1.4639      Y:     0.7607      Z:     0.4706     Total:     1.7155

*** Psi4 exiting successfully. Buy a developer a beer!
