                               Psi4 1.4a3.dev225

  ==> Input File <==

--------------------------------------------------------------------------
#psi4
#
memory 32 gb

molecule  {
0 1
  O        0.8655410    -0.2383350    -0.1978900
  C       -1.3532420     0.4851090     0.1659470
  C        0.0923410     0.8600100     0.3004220
  C       -4.0760200    -0.2326370    -0.0482320
  C       -1.8292680    -0.6845410     0.7713590
  C       -2.2449120     1.2876570    -0.5496990
  C       -3.1721270    -1.0365930     0.6617200
  C       -3.5922330     0.9350480    -0.6483300
  C        2.2320470    -0.1282220    -0.1046120
  C       -5.5355430    -0.5984480    -0.1257210
  C        2.9140800     0.9938170     0.3783620
  C        2.9472190    -1.2508620    -0.5439590
  C        4.3132210     0.9773220     0.4183570
  C        4.3370840    -1.2508910    -0.4991240
  C        5.0300920    -0.1353830    -0.0155080
  H        0.3103430     1.7730630    -0.2708990
  H        0.3551050     1.0439550     1.3523320
  H       -1.1374380    -1.3254410     1.3139440
  H       -1.8855300     2.1916430    -1.0389860
  H       -3.5267120    -1.9532640     1.1308580
  H       -4.2733370     1.5694920    -1.2133600
  H       -6.0895239    -0.0819384    -1.1744087
  H       -5.6673980    -1.6833350    -0.1714030
  H       -6.0811880    -0.2353180     0.7521400
  H        2.3826970     1.8764090     0.7176150
  H        2.3879470    -2.1054110    -0.9150460
  H        4.8399070     1.8514100     0.7945710
  H        4.8825510    -2.1268580    -0.8422600
  H        6.1161710    -0.1361850     0.0199920
units angstrom
no_reorient  #important for SAPT in psi4, default
symmetry c1  #important for SAPT in psi4, default
}

set PROPERTIES_ORIGIN ["COM"]
properties('MP2/aug-cc-pvtz', properties = ['dipole'])
--------------------------------------------------------------------------

    Molecular point group: c1
  Charge       = 0
  Multiplicity = 1
  Basis Set: AUG-CC-PVTZ
    Blend: AUG-CC-PVTZ
  Basis Set: (AUG-CC-PVTZ AUX)
    Blend: AUG-CC-PVTZ-JKFIT

    Orbital Energies [Eh]
    ---------------------

    Doubly Occupied:

       1A    -20.584349     2A    -11.301334     3A    -11.293751
       4A    -11.248751     5A    -11.245896     6A    -11.241223
       7A    -11.240014     8A    -11.239655     9A    -11.238135
      10A    -11.236045    11A    -11.233977    12A    -11.233248
      13A    -11.232882    14A    -11.227965    15A    -11.227518
      16A     -1.405311    17A     -1.159624    18A     -1.144064
      19A     -1.066455    20A     -1.017840    21A     -1.014317
      22A     -1.007621    23A     -0.960093    24A     -0.894467
      25A     -0.833680    26A     -0.831063    27A     -0.809115
      28A     -0.781757    29A     -0.721497    30A     -0.684014
      31A     -0.670315    32A     -0.663999    33A     -0.643809
      34A     -0.631805    35A     -0.618502    36A     -0.609283
      37A     -0.587084    38A     -0.584294    39A     -0.576924
      40A     -0.564548    41A     -0.534114    42A     -0.527279
      43A     -0.517359    44A     -0.507927    45A     -0.492210
      46A     -0.486581    47A     -0.480593    48A     -0.478453
      49A     -0.464660    50A     -0.340220    51A     -0.337623
      52A     -0.323024    53A     -0.312627

  @DF-RHF Final Energy:  -613.35135836414383

   => Energetics <=

    Nuclear Repulsion Energy =            869.9638771155241557
    One-Electron Energy =               -2558.0126807624988032
    Two-Electron Energy =                1074.6974452828308131
    Total Energy =                       -613.3513583641438345
  Basis Set: (AUG-CC-PVTZ AUX)
    Blend: AUG-CC-PVTZ-RI
    Molecular point group: c1

    Geometry (in Angstrom), charge = 0, multiplicity = 1:

       Center              X                  Y                   Z               Mass
    ------------   -----------------  -----------------  -----------------  -----------------
         O            0.829434203377    -0.235850736102    -0.193978935879    15.994914619570
         C           -1.389348796623     0.487593263898     0.169858064121    12.000000000000
         C            0.056234203377     0.862494263898     0.304333064121    12.000000000000
         C           -4.112126796623    -0.230152736102    -0.044320935879    12.000000000000
         C           -1.865374796623    -0.682056736102     0.775270064121    12.000000000000
         C           -2.281018796623     1.290141263898    -0.545787935879    12.000000000000
         C           -3.208233796623    -1.034108736102     0.665631064121    12.000000000000
         C           -3.628339796623     0.937532263898    -0.644418935879    12.000000000000
         C            2.195940203377    -0.125737736102    -0.100700935879    12.000000000000
         C           -5.571649796623    -0.595963736102    -0.121809935879    12.000000000000
         C            2.877973203377     0.996301263898     0.382273064121    12.000000000000
         C            2.911112203377    -1.248377736102    -0.540047935879    12.000000000000
         C            4.277114203377     0.979806263898     0.422268064121    12.000000000000
         C            4.300977203377    -1.248406736102    -0.495212935879    12.000000000000
         C            4.993985203377    -0.132898736102    -0.011596935879    12.000000000000
         H            0.274236203377     1.775547263898    -0.266987935879     1.007825032230
         H            0.318998203377     1.046439263898     1.356243064121     1.007825032230
         H           -1.173544796623    -1.322956736102     1.317855064121     1.007825032230
         H           -1.921636796623     2.194127263898    -1.035074935879     1.007825032230
         H           -3.562818796623    -1.950779736102     1.134769064121     1.007825032230
         H           -4.309443796623     1.571976263898    -1.209448935879     1.007825032230
         H           -6.125630696623    -0.079454136102    -1.170497635879     1.007825032230
         H           -5.703504796623    -1.680850736102    -0.167491935879     1.007825032230
         H           -6.117294796623    -0.232833736102     0.756051064121     1.007825032230
         H            2.346590203377     1.878893263898     0.721526064121     1.007825032230
         H            2.351840203377    -2.102926736102    -0.911134935879     1.007825032230
         H            4.803800203377     1.853894263898     0.798482064121     1.007825032230
         H            4.846444203377    -2.124373736102    -0.838348935879     1.007825032230
         H            6.080064203377    -0.133700736102     0.023903064121     1.007825032230

  Basis Set: AUG-CC-PVTZ
    Blend: AUG-CC-PVTZ
  Basis Set: (AUG-CC-PVTZ AUX)
    Blend: AUG-CC-PVTZ-JKFIT
	 Reference Energy          =    -613.3513583641438345 [Eh]
	 Singles Energy            =      -0.0000000000000000 [Eh]
	 Same-Spin Energy          =      -0.6726983425040343 [Eh]
	 Opposite-Spin Energy      =      -2.1182187904314582 [Eh]
	 Correlation Energy        =      -2.7909171329354923 [Eh]
	 Total Energy              =    -616.1422754970793676 [Eh]

	 ================> DF-SCS-MP2 Energies <==================
	-----------------------------------------------------------
	 SCS Same-Spin Scale       =       0.3333333333333333 [-]
	 SCS Opposite-Spin Scale   =       1.2000000000000000 [-]
	 SCS Same-Spin Energy      =      -0.2242327808346781 [Eh]
	 SCS Opposite-Spin Energy  =      -2.5418625485177500 [Eh]
	 SCS Correlation Energy    =      -2.7660953293524280 [Eh]
	 SCS Total Energy          =    -616.1174536934962589 [Eh]
	-----------------------------------------------------------

  Dipole Moment: [D]
     X:    -0.8761      Y:     0.7058      Z:     0.5609     Total:     1.2571

*** Psi4 exiting successfully. Buy a developer a beer!
