                               Psi4 1.4a3.dev225

  ==> Input File <==

--------------------------------------------------------------------------
#psi4
#
memory 32 gb

molecule  {
0 1
  O        0.8655410    -0.2383350    -0.1978900
  C       -1.3532420     0.4851090     0.1659470
  C        0.0923410     0.8600100     0.3004220
  C       -4.0760200    -0.2326370    -0.0482320
  C       -1.8292680    -0.6845410     0.7713590
  C       -2.2449120     1.2876570    -0.5496990
  C       -3.2043481    -1.0079343     0.6364123
  C       -3.5922330     0.9350480    -0.6483300
  C        2.2320470    -0.1282220    -0.1046120
  C       -5.5355430    -0.5984480    -0.1257210
  C        2.9140800     0.9938170     0.3783620
  C        2.9472190    -1.2508620    -0.5439590
  C        4.3132210     0.9773220     0.4183570
  C        4.3370840    -1.2508910    -0.4991240
  C        5.0300920    -0.1353830    -0.0155080
  H        0.3103430     1.7730630    -0.2708990
  H        0.3551050     1.0439550     1.3523320
  H       -1.1374380    -1.3254410     1.3139440
  H       -1.8855300     2.1916430    -1.0389860
  H       -3.5267120    -1.9532640     1.1308580
  H       -4.2733370     1.5694920    -1.2133600
  H       -6.0038750    -0.1617940    -1.0122750
  H       -5.6673980    -1.6833350    -0.1714030
  H       -6.0811880    -0.2353180     0.7521400
  H        2.3826970     1.8764090     0.7176150
  H        2.3879470    -2.1054110    -0.9150460
  H        4.8399070     1.8514100     0.7945710
  H        4.8825510    -2.1268580    -0.8422600
  H        6.1161710    -0.1361850     0.0199920
units angstrom
no_reorient  #important for SAPT in psi4, default
symmetry c1  #important for SAPT in psi4, default
}

set PROPERTIES_ORIGIN ["COM"]
properties('MP2/aug-cc-pvtz', properties = ['dipole'])
--------------------------------------------------------------------------

    Molecular point group: c1
  Charge       = 0
  Multiplicity = 1
  Basis Set: AUG-CC-PVTZ
    Blend: AUG-CC-PVTZ
  Basis Set: (AUG-CC-PVTZ AUX)
    Blend: AUG-CC-PVTZ-JKFIT

    Orbital Energies [Eh]
    ---------------------

    Doubly Occupied:

       1A    -20.584169     2A    -11.301164     3A    -11.293210
       4A    -11.241090     5A    -11.239531     6A    -11.239314
       7A    -11.237811     8A    -11.237523     9A    -11.237100
      10A    -11.233093    11A    -11.233077    12A    -11.231311
      13A    -11.227832    14A    -11.227394    15A    -11.225188
      16A     -1.405085    17A     -1.161409    18A     -1.144315
      19A     -1.070536    20A     -1.017995    21A     -1.011708
      22A     -1.006356    23A     -0.963580    24A     -0.901879
      25A     -0.835387    26A     -0.832056    27A     -0.808694
      28A     -0.781026    29A     -0.721265    30A     -0.683281
      31A     -0.671115    32A     -0.663845    33A     -0.644181
      34A     -0.629325    35A     -0.622096    36A     -0.608958
      37A     -0.586954    38A     -0.580207    39A     -0.577722
      40A     -0.565294    41A     -0.541562    42A     -0.532342
      43A     -0.522936    44A     -0.514437    45A     -0.492167
      46A     -0.489941    47A     -0.484148    48A     -0.475146
      49A     -0.464669    50A     -0.340180    51A     -0.335414
      52A     -0.325546    53A     -0.312456

  @DF-RHF Final Energy:  -613.36839217601903

   => Energetics <=

    Nuclear Repulsion Energy =            871.1655619847537082
    One-Electron Energy =               -2560.4398699164316895
    Two-Electron Energy =                1075.9059157556587252
    Total Energy =                       -613.3683921760191424
  Basis Set: (AUG-CC-PVTZ AUX)
    Blend: AUG-CC-PVTZ-RI
    Molecular point group: c1

    Geometry (in Angstrom), charge = 0, multiplicity = 1:

       Center              X                  Y                   Z               Mass
    ------------   -----------------  -----------------  -----------------  -----------------
         O            0.830950242374    -0.237180458414    -0.193270774159    15.994914619570
         C           -1.387832757626     0.486263541586     0.170566225841    12.000000000000
         C            0.057750242374     0.861164541586     0.305041225841    12.000000000000
         C           -4.110610757626    -0.231482458414    -0.043612774159    12.000000000000
         C           -1.863858757626    -0.683386458414     0.775978225841    12.000000000000
         C           -2.279502757626     1.288811541586    -0.545079774159    12.000000000000
         C           -3.238938857626    -1.006779758414     0.641031525841    12.000000000000
         C           -3.626823757626     0.936202541586    -0.643710774159    12.000000000000
         C            2.197456242374    -0.127067458414    -0.099992774159    12.000000000000
         C           -5.570133757626    -0.597293458414    -0.121101774159    12.000000000000
         C            2.879489242374     0.994971541586     0.382981225841    12.000000000000
         C            2.912628242374    -1.249707458414    -0.539339774159    12.000000000000
         C            4.278630242374     0.978476541586     0.422976225841    12.000000000000
         C            4.302493242374    -1.249736458414    -0.494504774159    12.000000000000
         C            4.995501242374    -0.134228458414    -0.010888774159    12.000000000000
         H            0.275752242374     1.774217541586    -0.266279774159     1.007825032230
         H            0.320514242374     1.045109541586     1.356951225841     1.007825032230
         H           -1.172028757626    -1.324286458414     1.318563225841     1.007825032230
         H           -1.920120757626     2.192797541586    -1.034366774159     1.007825032230
         H           -3.561302757626    -1.952109458414     1.135477225841     1.007825032230
         H           -4.307927757626     1.570646541586    -1.208740774159     1.007825032230
         H           -6.038465757626    -0.160639458414    -1.007655774159     1.007825032230
         H           -5.701988757626    -1.682180458414    -0.166783774159     1.007825032230
         H           -6.115778757626    -0.234163458414     0.756759225841     1.007825032230
         H            2.348106242374     1.877563541586     0.722234225841     1.007825032230
         H            2.353356242374    -2.104256458414    -0.910426774159     1.007825032230
         H            4.805316242374     1.852564541586     0.799190225841     1.007825032230
         H            4.847960242374    -2.125703458414    -0.837640774159     1.007825032230
         H            6.081580242374    -0.135030458414     0.024611225841     1.007825032230

  Basis Set: AUG-CC-PVTZ
    Blend: AUG-CC-PVTZ
  Basis Set: (AUG-CC-PVTZ AUX)
    Blend: AUG-CC-PVTZ-JKFIT
	 Reference Energy          =    -613.3683921760190287 [Eh]
	 Singles Energy            =      -0.0000000000000000 [Eh]
	 Same-Spin Energy          =      -0.6727570141479751 [Eh]
	 Opposite-Spin Energy      =      -2.1166624162543228 [Eh]
	 Correlation Energy        =      -2.7894194304022979 [Eh]
	 Total Energy              =    -616.1578116064213191 [Eh]

	 ================> DF-SCS-MP2 Energies <==================
	-----------------------------------------------------------
	 SCS Same-Spin Scale       =       0.3333333333333333 [-]
	 SCS Opposite-Spin Scale   =       1.2000000000000000 [-]
	 SCS Same-Spin Energy      =      -0.2242523380493250 [Eh]
	 SCS Opposite-Spin Energy  =      -2.5399948995051873 [Eh]
	 SCS Correlation Energy    =      -2.7642472375545122 [Eh]
	 SCS Total Energy          =    -616.1326394135735427 [Eh]
	-----------------------------------------------------------

  Dipole Moment: [D]
     X:    -0.9616      Y:     0.7466      Z:     0.4692     Total:     1.3047

*** Psi4 exiting successfully. Buy a developer a beer!
