                               Psi4 1.4a3.dev225

  ==> Input File <==

--------------------------------------------------------------------------
#psi4
#
memory 32 gb

molecule  {
0 1
  O        0.8655410    -0.2383350    -0.1978900
  C       -1.3532420     0.4851090     0.1659470
  C        0.0923410     0.8600100     0.3004220
  C       -4.0760200    -0.2326370    -0.0482320
  C       -1.8292680    -0.6845410     0.7713590
  C       -2.2449120     1.2876570    -0.5496990
  C       -3.1721270    -1.0365930     0.6617200
  C       -3.5922330     0.9350480    -0.6483300
  C        2.2320470    -0.1282220    -0.1046120
  C       -5.5355430    -0.5984480    -0.1257210
  C        2.9140800     0.9938170     0.3783620
  C        2.9472190    -1.2508620    -0.5439590
  C        4.3132210     0.9773220     0.4183570
  C        4.3370840    -1.2508910    -0.4991240
  C        5.0300920    -0.1353830    -0.0155080
  H        0.3103430     1.7730630    -0.2708990
  H        0.3551050     1.0439550     1.3523320
  H       -1.1374380    -1.3254410     1.3139440
  H       -1.8855300     2.1916430    -1.0389860
  H       -3.5267120    -1.9532640     1.1308580
  H       -4.2733370     1.5694920    -1.2133600
  H       -6.0038750    -0.1617940    -1.0122750
  H       -5.6673980    -1.6833350    -0.1714030
  H       -6.0811880    -0.2353180     0.7521400
  H        2.3826970     1.8764090     0.7176150
  H        2.3879470    -2.1054110    -0.9150460
  H        4.8399070     1.8514100     0.7945710
  H        4.8825510    -2.1268580    -0.8422600
  H        6.2161176    -0.1362588     0.0232589
units angstrom
no_reorient  #important for SAPT in psi4, default
symmetry c1  #important for SAPT in psi4, default
}

set PROPERTIES_ORIGIN ["COM"]
properties('MP2/aug-cc-pvtz', properties = ['dipole'])
--------------------------------------------------------------------------

    Molecular point group: c1
  Charge       = 0
  Multiplicity = 1
  Basis Set: AUG-CC-PVTZ
    Blend: AUG-CC-PVTZ
  Basis Set: (AUG-CC-PVTZ AUX)
    Blend: AUG-CC-PVTZ-JKFIT

    Orbital Energies [Eh]
    ---------------------

    Doubly Occupied:

       1A    -20.584270     2A    -11.301518     3A    -11.293471
       4A    -11.243999     5A    -11.242143     6A    -11.240661
       7A    -11.239299     8A    -11.238464     9A    -11.237729
      10A    -11.235139    11A    -11.233751    12A    -11.232416
      13A    -11.232256    14A    -11.228491    15A    -11.225982
      16A     -1.405240    17A     -1.159037    18A     -1.143973
      19A     -1.067094    20A     -1.018458    21A     -1.013495
      22A     -1.006847    23A     -0.963300    24A     -0.899424
      25A     -0.832900    26A     -0.831884    27A     -0.805663
      28A     -0.782435    29A     -0.720627    30A     -0.684086
      31A     -0.670306    32A     -0.652837    33A     -0.644237
      34A     -0.631310    35A     -0.620694    36A     -0.608508
      37A     -0.587463    38A     -0.583716    39A     -0.577100
      40A     -0.564356    41A     -0.543526    42A     -0.530995
      43A     -0.523142    44A     -0.504123    45A     -0.491739
      46A     -0.486783    47A     -0.485089    48A     -0.479291
      49A     -0.464768    50A     -0.340671    51A     -0.336914
      52A     -0.322422    53A     -0.312914

  @DF-RHF Final Energy:  -613.36423226293527

   => Energetics <=

    Nuclear Repulsion Energy =            870.2485642413090545
    One-Electron Energy =               -2558.6116824177324816
    Two-Electron Energy =                1074.9988859134882659
    Total Energy =                       -613.3642322629352748
  Basis Set: (AUG-CC-PVTZ AUX)
    Blend: AUG-CC-PVTZ-RI
    Molecular point group: c1

    Geometry (in Angstrom), charge = 0, multiplicity = 1:

       Center              X                  Y                   Z               Mass
    ------------   -----------------  -----------------  -----------------  -----------------
         O            0.828490015719    -0.235444107962    -0.194820385187    15.994914619570
         C           -1.390292984281     0.487999892038     0.169016614813    12.000000000000
         C            0.055290015719     0.862900892038     0.303491614813    12.000000000000
         C           -4.113070984281    -0.229746107962    -0.045162385187    12.000000000000
         C           -1.866318984281    -0.681650107962     0.774428614813    12.000000000000
         C           -2.281962984281     1.290547892038    -0.546629385187    12.000000000000
         C           -3.209177984281    -1.033702107962     0.664789614813    12.000000000000
         C           -3.629283984281     0.937938892038    -0.645260385187    12.000000000000
         C            2.194996015719    -0.125331107962    -0.101542385187    12.000000000000
         C           -5.572593984281    -0.595557107962    -0.122651385187    12.000000000000
         C            2.877029015719     0.996707892038     0.381431614813    12.000000000000
         C            2.910168015719    -1.247971107962    -0.540889385187    12.000000000000
         C            4.276170015719     0.980212892038     0.421426614813    12.000000000000
         C            4.300033015719    -1.248000107962    -0.496054385187    12.000000000000
         C            4.993041015719    -0.132492107962    -0.012438385187    12.000000000000
         H            0.273292015719     1.775953892038    -0.267829385187     1.007825032230
         H            0.318054015719     1.046845892038     1.355401614813     1.007825032230
         H           -1.174488984281    -1.322550107962     1.317013614813     1.007825032230
         H           -1.922580984281     2.194533892038    -1.035916385187     1.007825032230
         H           -3.563762984281    -1.950373107962     1.133927614813     1.007825032230
         H           -4.310387984281     1.572382892038    -1.210290385187     1.007825032230
         H           -6.040925984281    -0.158903107962    -1.009205385187     1.007825032230
         H           -5.704448984281    -1.680444107962    -0.168333385187     1.007825032230
         H           -6.118238984281    -0.232427107962     0.755209614813     1.007825032230
         H            2.345646015719     1.879299892038     0.720684614813     1.007825032230
         H            2.350896015719    -2.102520107962    -0.911976385187     1.007825032230
         H            4.802856015719     1.854300892038     0.797640614813     1.007825032230
         H            4.845500015719    -2.123967107962    -0.839190385187     1.007825032230
         H            6.179066615719    -0.133367907962     0.026328514813     1.007825032230

  Basis Set: AUG-CC-PVTZ
    Blend: AUG-CC-PVTZ
  Basis Set: (AUG-CC-PVTZ AUX)
    Blend: AUG-CC-PVTZ-JKFIT
	 Reference Energy          =    -613.3642322629352748 [Eh]
	 Singles Energy            =      -0.0000000000000000 [Eh]
	 Same-Spin Energy          =      -0.6728409723867068 [Eh]
	 Opposite-Spin Energy      =      -2.1174311780220973 [Eh]
	 Correlation Energy        =      -2.7902721504088044 [Eh]
	 Total Energy              =    -616.1545044133440570 [Eh]

	 ================> DF-SCS-MP2 Energies <==================
	-----------------------------------------------------------
	 SCS Same-Spin Scale       =       0.3333333333333333 [-]
	 SCS Opposite-Spin Scale   =       1.2000000000000000 [-]
	 SCS Same-Spin Energy      =      -0.2242803241289023 [Eh]
	 SCS Opposite-Spin Energy  =      -2.5409174136265169 [Eh]
	 SCS Correlation Energy    =      -2.7651977377554191 [Eh]
	 SCS Total Energy          =    -616.1294300006907179 [Eh]
	-----------------------------------------------------------

  Dipole Moment: [D]
     X:    -1.0575      Y:     0.7319      Z:     0.4695     Total:     1.3691

*** Psi4 exiting successfully. Buy a developer a beer!
