                               Psi4 1.4a3.dev225

  ==> Input File <==

--------------------------------------------------------------------------
#psi4
#
memory 32 gb

molecule  {
0 1
  O        0.8655410    -0.2383350    -0.1978900
  C       -1.3532420     0.4851090     0.1659470
  C        0.0923410     0.8600100     0.3004220
  C       -4.0760200    -0.2326370    -0.0482320
  C       -1.8292680    -0.6845410     0.7713590
  C       -2.2449120     1.2876570    -0.5496990
  C       -3.1721270    -1.0365930     0.6617200
  C       -3.5922330     0.9350480    -0.6483300
  C        2.2320470    -0.1282220    -0.1046120
  C       -5.5355430    -0.5984480    -0.1257210
  C        2.9140800     0.9938170     0.3783620
  C        2.9472190    -1.2508620    -0.5439590
  C        4.3132210     0.9773220     0.4183570
  C        4.3370840    -1.2508910    -0.4991240
  C        5.0300920    -0.1353830    -0.0155080
  H        0.3103430     1.7730630    -0.2708990
  H        0.3551050     1.0439550     1.3523320
  H       -1.2646107    -1.2076303     1.2142056
  H       -1.8855300     2.1916430    -1.0389860
  H       -3.5267120    -1.9532640     1.1308580
  H       -4.2733370     1.5694920    -1.2133600
  H       -6.0038750    -0.1617940    -1.0122750
  H       -5.6673980    -1.6833350    -0.1714030
  H       -6.0811880    -0.2353180     0.7521400
  H        2.3826970     1.8764090     0.7176150
  H        2.3879470    -2.1054110    -0.9150460
  H        4.8399070     1.8514100     0.7945710
  H        4.8825510    -2.1268580    -0.8422600
  H        6.1161710    -0.1361850     0.0199920
units angstrom
no_reorient  #important for SAPT in psi4, default
symmetry c1  #important for SAPT in psi4, default
}

set PROPERTIES_ORIGIN ["COM"]
properties('MP2/aug-cc-pvtz', properties = ['dipole'])
--------------------------------------------------------------------------

    Molecular point group: c1
  Charge       = 0
  Multiplicity = 1
  Basis Set: AUG-CC-PVTZ
    Blend: AUG-CC-PVTZ
  Basis Set: (AUG-CC-PVTZ AUX)
    Blend: AUG-CC-PVTZ-JKFIT

    Orbital Energies [Eh]
    ---------------------

    Doubly Occupied:

       1A    -20.584296     2A    -11.301171     3A    -11.293216
       4A    -11.242844     5A    -11.241072     6A    -11.239506
       7A    -11.237822     8A    -11.236399     9A    -11.233098
      10A    -11.231942    11A    -11.231219    12A    -11.227825
      13A    -11.227386    14A    -11.225302    15A    -11.211237
      16A     -1.405208    17A     -1.159933    18A     -1.143882
      19A     -1.067780    20A     -1.021190    21A     -1.017694
      22A     -1.009043    23A     -0.963944    24A     -0.900987
      25A     -0.846147    26A     -0.832138    27A     -0.808962
      28A     -0.788804    29A     -0.721319    30A     -0.691820
      31A     -0.670637    32A     -0.664008    33A     -0.657119
      34A     -0.636768    35A     -0.621600    36A     -0.609462
      37A     -0.591771    38A     -0.586840    39A     -0.576468
      40A     -0.563766    41A     -0.543249    42A     -0.532377
      43A     -0.522755    44A     -0.514622    45A     -0.492433
      46A     -0.490830    47A     -0.484426    48A     -0.478613
      49A     -0.464755    50A     -0.340046    51A     -0.336257
      52A     -0.321537    53A     -0.312503

  @DF-RHF Final Energy:  -613.33719761761188

   => Energetics <=

    Nuclear Repulsion Energy =            871.8322944730361996
    One-Electron Energy =               -2561.6269265077276032
    Two-Electron Energy =                1076.4574344170794120
    Total Energy =                       -613.3371976176119915
  Basis Set: (AUG-CC-PVTZ AUX)
    Blend: AUG-CC-PVTZ-RI
    Molecular point group: c1

    Geometry (in Angstrom), charge = 0, multiplicity = 1:

       Center              X                  Y                   Z               Mass
    ------------   -----------------  -----------------  -----------------  -----------------
         O            0.829645449120    -0.236043826651    -0.194296362067    15.994914619570
         C           -1.389137550880     0.487400173349     0.169540637933    12.000000000000
         C            0.056445449120     0.862301173349     0.304015637933    12.000000000000
         C           -4.111915550880    -0.230345826651    -0.044638362067    12.000000000000
         C           -1.865163550880    -0.682249826651     0.774952637933    12.000000000000
         C           -2.280807550880     1.289948173349    -0.546105362067    12.000000000000
         C           -3.208022550880    -1.034301826651     0.665313637933    12.000000000000
         C           -3.628128550880     0.937339173349    -0.644736362067    12.000000000000
         C            2.196151449120    -0.125930826651    -0.101018362067    12.000000000000
         C           -5.571438550880    -0.596156826651    -0.122127362067    12.000000000000
         C            2.878184449120     0.996108173349     0.381955637933    12.000000000000
         C            2.911323449120    -1.248570826651    -0.540365362067    12.000000000000
         C            4.277325449120     0.979613173349     0.421950637933    12.000000000000
         C            4.301188449120    -1.248599826651    -0.495530362067    12.000000000000
         C            4.994196449120    -0.133091826651    -0.011914362067    12.000000000000
         H            0.274447449120     1.775354173349    -0.267305362067     1.007825032230
         H            0.319209449120     1.046246173349     1.355925637933     1.007825032230
         H           -1.300506250880    -1.205339126651     1.217799237933     1.007825032230
         H           -1.921425550880     2.193934173349    -1.035392362067     1.007825032230
         H           -3.562607550880    -1.950972826651     1.134451637933     1.007825032230
         H           -4.309232550880     1.571783173349    -1.209766362067     1.007825032230
         H           -6.039770550880    -0.159502826651    -1.008681362067     1.007825032230
         H           -5.703293550880    -1.681043826651    -0.167809362067     1.007825032230
         H           -6.117083550880    -0.233026826651     0.755733637933     1.007825032230
         H            2.346801449120     1.878700173349     0.721208637933     1.007825032230
         H            2.352051449120    -2.103119826651    -0.911452362067     1.007825032230
         H            4.804011449120     1.853701173349     0.798164637933     1.007825032230
         H            4.846655449120    -2.124566826651    -0.838666362067     1.007825032230
         H            6.080275449120    -0.133893826651     0.023585637933     1.007825032230

  Basis Set: AUG-CC-PVTZ
    Blend: AUG-CC-PVTZ
  Basis Set: (AUG-CC-PVTZ AUX)
    Blend: AUG-CC-PVTZ-JKFIT
	 Reference Energy          =    -613.3371976176118778 [Eh]
	 Singles Energy            =      -0.0000000000000000 [Eh]
	 Same-Spin Energy          =      -0.6723444734017223 [Eh]
	 Opposite-Spin Energy      =      -2.1158621688430586 [Eh]
	 Correlation Energy        =      -2.7882066422447807 [Eh]
	 Total Energy              =    -616.1254042598566230 [Eh]

	 ================> DF-SCS-MP2 Energies <==================
	-----------------------------------------------------------
	 SCS Same-Spin Scale       =       0.3333333333333333 [-]
	 SCS Opposite-Spin Scale   =       1.2000000000000000 [-]
	 SCS Same-Spin Energy      =      -0.2241148244672408 [Eh]
	 SCS Opposite-Spin Energy  =      -2.5390346026116704 [Eh]
	 SCS Correlation Energy    =      -2.7631494270789112 [Eh]
	 SCS Total Energy          =    -616.1003470446908068 [Eh]
	-----------------------------------------------------------

  Dipole Moment: [D]
     X:    -0.9761      Y:     0.7221      Z:     0.4920     Total:     1.3101

*** Psi4 exiting successfully. Buy a developer a beer!
