                               Psi4 1.4a3.dev225

  ==> Input File <==

--------------------------------------------------------------------------
#psi4
#
memory 32 gb

molecule  {
0 1
  O        0.8655410    -0.2383350    -0.1978900
  C       -1.3532420     0.4851090     0.1659470
  C        0.0923410     0.8600100     0.3004220
  C       -4.0760200    -0.2326370    -0.0482320
  C       -1.8292680    -0.6845410     0.7713590
  C       -2.2449120     1.2876570    -0.5496990
  C       -3.1721270    -1.0365930     0.6617200
  C       -3.5922330     0.9350480    -0.6483300
  C        2.2320470    -0.1282220    -0.1046120
  C       -5.5355430    -0.5984480    -0.1257210
  C        2.9140800     0.9938170     0.3783620
  C        2.9472190    -1.2508620    -0.5439590
  C        4.3132210     0.9773220     0.4183570
  C        4.3370840    -1.2508910    -0.4991240
  C        5.0300920    -0.1353830    -0.0155080
  H        0.3103430     1.7730630    -0.2708990
  H        0.3551050     1.0439550     1.3523320
  H       -1.0738517    -1.3843464     1.3638132
  H       -1.8855300     2.1916430    -1.0389860
  H       -3.5267120    -1.9532640     1.1308580
  H       -4.2733370     1.5694920    -1.2133600
  H       -6.0038750    -0.1617940    -1.0122750
  H       -5.6673980    -1.6833350    -0.1714030
  H       -6.0811880    -0.2353180     0.7521400
  H        2.3826970     1.8764090     0.7176150
  H        2.3879470    -2.1054110    -0.9150460
  H        4.8399070     1.8514100     0.7945710
  H        4.8825510    -2.1268580    -0.8422600
  H        6.1161710    -0.1361850     0.0199920
units angstrom
no_reorient  #important for SAPT in psi4, default
symmetry c1  #important for SAPT in psi4, default
}

set PROPERTIES_ORIGIN ["COM"]
properties('MP2/aug-cc-pvtz', properties = ['dipole'])
--------------------------------------------------------------------------

    Molecular point group: c1
  Charge       = 0
  Multiplicity = 1
  Basis Set: AUG-CC-PVTZ
    Blend: AUG-CC-PVTZ
  Basis Set: (AUG-CC-PVTZ AUX)
    Blend: AUG-CC-PVTZ-JKFIT

    Orbital Energies [Eh]
    ---------------------

    Doubly Occupied:

       1A    -20.583642     2A    -11.300902     3A    -11.293220
       4A    -11.246081     5A    -11.244564     6A    -11.240869
       7A    -11.240012     8A    -11.239301     9A    -11.238342
      10A    -11.233164    11A    -11.232832    12A    -11.232676
      13A    -11.227561    14A    -11.227154    15A    -11.226306
      16A     -1.404630    17A     -1.158960    18A     -1.143683
      19A     -1.067147    20A     -1.017656    21A     -1.012108
      22A     -1.007643    23A     -0.964245    24A     -0.899418
      25A     -0.832295    26A     -0.828681    27A     -0.808906
      28A     -0.780021    29A     -0.721049    30A     -0.682375
      31A     -0.670633    32A     -0.663542    33A     -0.641585
      34A     -0.627147    35A     -0.618842    36A     -0.609305
      37A     -0.586684    38A     -0.577445    39A     -0.576150
      40A     -0.564002    41A     -0.543441    42A     -0.531382
      43A     -0.522971    44A     -0.513674    45A     -0.491647
      46A     -0.485660    47A     -0.482022    48A     -0.478938
      49A     -0.463620    50A     -0.339855    51A     -0.337319
      52A     -0.322843    53A     -0.312177

  @DF-RHF Final Energy:  -613.36412871500124

   => Energetics <=

    Nuclear Repulsion Energy =            870.2935916738221067
    One-Electron Energy =               -2558.7227829775733881
    Two-Electron Energy =                1075.0650625887501519
    Total Energy =                       -613.3641287150012431
  Basis Set: (AUG-CC-PVTZ AUX)
    Blend: AUG-CC-PVTZ-RI
    Molecular point group: c1

    Geometry (in Angstrom), charge = 0, multiplicity = 1:

       Center              X                  Y                   Z               Mass
    ------------   -----------------  -----------------  -----------------  -----------------
         O            0.828674992976    -0.235144811532    -0.195057466993    15.994914619570
         C           -1.390108007024     0.488299188468     0.168779533007    12.000000000000
         C            0.055474992976     0.863200188468     0.303254533007    12.000000000000
         C           -4.112886007024    -0.229446811532    -0.045399466993    12.000000000000
         C           -1.866134007024    -0.681350811532     0.774191533007    12.000000000000
         C           -2.281778007024     1.290847188468    -0.546866466993    12.000000000000
         C           -3.208993007024    -1.033402811532     0.664552533007    12.000000000000
         C           -3.629099007024     0.938238188468    -0.645497466993    12.000000000000
         C            2.195180992976    -0.125031811532    -0.101779466993    12.000000000000
         C           -5.572409007024    -0.595257811532    -0.122888466993    12.000000000000
         C            2.877213992976     0.997007188468     0.381194533007    12.000000000000
         C            2.910352992976    -1.247671811532    -0.541126466993    12.000000000000
         C            4.276354992976     0.980512188468     0.421189533007    12.000000000000
         C            4.300217992976    -1.247700811532    -0.496291466993    12.000000000000
         C            4.993225992976    -0.132192811532    -0.012675466993    12.000000000000
         H            0.273476992976     1.776253188468    -0.268066466993     1.007825032230
         H            0.318238992976     1.047145188468     1.355164533007     1.007825032230
         H           -1.110717707024    -1.381156211532     1.366645733007     1.007825032230
         H           -1.922396007024     2.194833188468    -1.036153466993     1.007825032230
         H           -3.563578007024    -1.950073811532     1.133690533007     1.007825032230
         H           -4.310203007024     1.572682188468    -1.210527466993     1.007825032230
         H           -6.040741007024    -0.158603811532    -1.009442466993     1.007825032230
         H           -5.704264007024    -1.680144811532    -0.168570466993     1.007825032230
         H           -6.118054007024    -0.232127811532     0.754972533007     1.007825032230
         H            2.345830992976     1.879599188468     0.720447533007     1.007825032230
         H            2.351080992976    -2.102220811532    -0.912213466993     1.007825032230
         H            4.803040992976     1.854600188468     0.797403533007     1.007825032230
         H            4.845684992976    -2.123667811532    -0.839427466993     1.007825032230
         H            6.079304992976    -0.132994811532     0.022824533007     1.007825032230

  Basis Set: AUG-CC-PVTZ
    Blend: AUG-CC-PVTZ
  Basis Set: (AUG-CC-PVTZ AUX)
    Blend: AUG-CC-PVTZ-JKFIT
	 Reference Energy          =    -613.3641287150012431 [Eh]
	 Singles Energy            =      -0.0000000000000000 [Eh]
	 Same-Spin Energy          =      -0.6729438544818055 [Eh]
	 Opposite-Spin Energy      =      -2.1175457058170020 [Eh]
	 Correlation Energy        =      -2.7904895602988073 [Eh]
	 Total Energy              =    -616.1546182753000949 [Eh]

	 ================> DF-SCS-MP2 Energies <==================
	-----------------------------------------------------------
	 SCS Same-Spin Scale       =       0.3333333333333333 [-]
	 SCS Opposite-Spin Scale   =       1.2000000000000000 [-]
	 SCS Same-Spin Energy      =      -0.2243146181606018 [Eh]
	 SCS Opposite-Spin Energy  =      -2.5410548469804022 [Eh]
	 SCS Correlation Energy    =      -2.7653694651410041 [Eh]
	 SCS Total Energy          =    -616.1294981801422637 [Eh]
	-----------------------------------------------------------

  Dipole Moment: [D]
     X:    -1.0322      Y:     0.7484      Z:     0.4494     Total:     1.3518

*** Psi4 exiting successfully. Buy a developer a beer!
