                               Psi4 1.4a3.dev225

  ==> Input File <==

--------------------------------------------------------------------------
#psi4
#
memory 32 gb

molecule  {
0 1
  O        0.8655410    -0.2383350    -0.1978900
  C       -1.3532420     0.4851090     0.1659470
  C        0.0923410     0.8600100     0.3004220
  C       -4.0760200    -0.2326370    -0.0482320
  C       -1.8292680    -0.6845410     0.7713590
  C       -2.2449120     1.2876570    -0.5496990
  C       -3.1721270    -1.0365930     0.6617200
  C       -3.5922330     0.9350480    -0.6483300
  C        2.2320470    -0.1282220    -0.1046120
  C       -5.5355430    -0.5984480    -0.1257210
  C        2.9140800     0.9938170     0.3783620
  C        2.9472190    -1.2508620    -0.5439590
  C        4.3132210     0.9773220     0.4183570
  C        4.3370840    -1.2508910    -0.4991240
  C        5.0300920    -0.1353830    -0.0155080
  H        0.3103430     1.7730630    -0.2708990
  H        0.3551050     1.0439550     1.3523320
  H       -1.1374380    -1.3254410     1.3139440
  H       -1.8855300     2.1916430    -1.0389860
  H       -3.5267120    -1.9532640     1.1308580
  H       -4.2733370     1.5694920    -1.2133600
  H       -6.0038750    -0.1617940    -1.0122750
  H       -5.6673980    -1.6833350    -0.1714030
  H       -6.0811880    -0.2353180     0.7521400
  H        2.3826970     1.8764090     0.7176150
  H        2.3879470    -2.1054110    -0.9150460
  H        4.8399070     1.8514100     0.7945710
  H        4.8825510    -2.1268580    -0.8422600
  H        6.0961817    -0.1361702     0.0193386
units angstrom
no_reorient  #important for SAPT in psi4, default
symmetry c1  #important for SAPT in psi4, default
}

set PROPERTIES_ORIGIN ["COM"]
properties('MP2/aug-cc-pvtz', properties = ['dipole'])
--------------------------------------------------------------------------

    Molecular point group: c1
  Charge       = 0
  Multiplicity = 1
  Basis Set: AUG-CC-PVTZ
    Blend: AUG-CC-PVTZ
  Basis Set: (AUG-CC-PVTZ AUX)
    Blend: AUG-CC-PVTZ-JKFIT

    Orbital Energies [Eh]
    ---------------------

    Doubly Occupied:

       1A    -20.583849     2A    -11.300946     3A    -11.293135
       4A    -11.243820     5A    -11.240775     6A    -11.239202
       7A    -11.239084     8A    -11.237528     9A    -11.234938
      10A    -11.232810    11A    -11.232242    12A    -11.232079
      13A    -11.227538    14A    -11.225852    15A    -11.224891
      16A     -1.404807    17A     -1.158810    18A     -1.143736
      19A     -1.067028    20A     -1.017620    21A     -1.013419
      22A     -1.008716    23A     -0.964266    24A     -0.899567
      25A     -0.833057    26A     -0.831319    27A     -0.809779
      28A     -0.782430    29A     -0.721345    30A     -0.683962
      31A     -0.670918    32A     -0.665794    33A     -0.643683
      34A     -0.630988    35A     -0.620522    36A     -0.609523
      37A     -0.586654    38A     -0.583532    39A     -0.576968
      40A     -0.563928    41A     -0.543305    42A     -0.532132
      43A     -0.522860    44A     -0.515621    45A     -0.491238
      46A     -0.486586    47A     -0.485068    48A     -0.478756
      49A     -0.464129    50A     -0.339819    51A     -0.336729
      52A     -0.322220    53A     -0.312229

  @DF-RHF Final Energy:  -613.37171738023665

   => Energetics <=

    Nuclear Repulsion Energy =            870.8509150067968676
    One-Electron Energy =               -2559.8217552127857743
    Two-Electron Energy =                1075.5991228257523744
    Total Energy =                       -613.3717173802365323
  Basis Set: (AUG-CC-PVTZ AUX)
    Blend: AUG-CC-PVTZ-RI
    Molecular point group: c1

    Geometry (in Angstrom), charge = 0, multiplicity = 1:

       Center              X                  Y                   Z               Mass
    ------------   -----------------  -----------------  -----------------  -----------------
         O            0.829100170580    -0.235444558701    -0.194800441282    15.994914619570
         C           -1.389682829420     0.487999441299     0.169036558718    12.000000000000
         C            0.055900170580     0.862900441299     0.303511558718    12.000000000000
         C           -4.112460829420    -0.229746558701    -0.045142441282    12.000000000000
         C           -1.865708829420    -0.681650558701     0.774448558718    12.000000000000
         C           -2.281352829420     1.290547441299    -0.546609441282    12.000000000000
         C           -3.208567829420    -1.033702558701     0.664809558718    12.000000000000
         C           -3.628673829420     0.937938441299    -0.645240441282    12.000000000000
         C            2.195606170580    -0.125331558701    -0.101522441282    12.000000000000
         C           -5.571983829420    -0.595557558701    -0.122631441282    12.000000000000
         C            2.877639170580     0.996707441299     0.381451558718    12.000000000000
         C            2.910778170580    -1.247971558701    -0.540869441282    12.000000000000
         C            4.276780170580     0.980212441299     0.421446558718    12.000000000000
         C            4.300643170580    -1.248000558701    -0.496034441282    12.000000000000
         C            4.993651170580    -0.132492558701    -0.012418441282    12.000000000000
         H            0.273902170580     1.775953441299    -0.267809441282     1.007825032230
         H            0.318664170580     1.046845441299     1.355421558718     1.007825032230
         H           -1.173878829420    -1.322550558701     1.317033558718     1.007825032230
         H           -1.921970829420     2.194533441299    -1.035896441282     1.007825032230
         H           -3.563152829420    -1.950373558701     1.133947558718     1.007825032230
         H           -4.309777829420     1.572382441299    -1.210270441282     1.007825032230
         H           -6.040315829420    -0.158903558701    -1.009185441282     1.007825032230
         H           -5.703838829420    -1.680444558701    -0.168313441282     1.007825032230
         H           -6.117628829420    -0.232427558701     0.755229558718     1.007825032230
         H            2.346256170580     1.879299441299     0.720704558718     1.007825032230
         H            2.351506170580    -2.102520558701    -0.911956441282     1.007825032230
         H            4.803466170580     1.854300441299     0.797660558718     1.007825032230
         H            4.846110170580    -2.123967558701    -0.839170441282     1.007825032230
         H            6.059740870580    -0.133279758701     0.022428158718     1.007825032230

  Basis Set: AUG-CC-PVTZ
    Blend: AUG-CC-PVTZ
  Basis Set: (AUG-CC-PVTZ AUX)
    Blend: AUG-CC-PVTZ-JKFIT
	 Reference Energy          =    -613.3717173802366460 [Eh]
	 Singles Energy            =      -0.0000000000000000 [Eh]
	 Same-Spin Energy          =      -0.6726218444000103 [Eh]
	 Opposite-Spin Energy      =      -2.1163874067659103 [Eh]
	 Correlation Energy        =      -2.7890092511659206 [Eh]
	 Total Energy              =    -616.1607266314025537 [Eh]

	 ================> DF-SCS-MP2 Energies <==================
	-----------------------------------------------------------
	 SCS Same-Spin Scale       =       0.3333333333333333 [-]
	 SCS Opposite-Spin Scale   =       1.2000000000000000 [-]
	 SCS Same-Spin Energy      =      -0.2242072814666701 [Eh]
	 SCS Opposite-Spin Energy  =      -2.5396648881190922 [Eh]
	 SCS Correlation Energy    =      -2.7638721695857624 [Eh]
	 SCS Total Energy          =    -616.1355895498223845 [Eh]
	-----------------------------------------------------------

  Dipole Moment: [D]
     X:    -0.9937      Y:     0.7321      Z:     0.4718     Total:     1.3213

*** Psi4 exiting successfully. Buy a developer a beer!
