                               Psi4 1.4a3.dev225

  ==> Input File <==

--------------------------------------------------------------------------
#psi4
#
memory 32 gb

molecule  {
0 1
  O        0.8655410    -0.2383350    -0.1978900
  C       -1.3532420     0.4851090     0.1659470
  C        0.0923410     0.8600100     0.3004220
  C       -4.0963163    -0.1863051     0.0439676
  C       -1.8292680    -0.6845410     0.7713590
  C       -2.2449120     1.2876570    -0.5496990
  C       -3.1721270    -1.0365930     0.6617200
  C       -3.5922330     0.9350480    -0.6483300
  C        2.2320470    -0.1282220    -0.1046120
  C       -5.5355430    -0.5984480    -0.1257210
  C        2.9140800     0.9938170     0.3783620
  C        2.9472190    -1.2508620    -0.5439590
  C        4.3132210     0.9773220     0.4183570
  C        4.3370840    -1.2508910    -0.4991240
  C        5.0300920    -0.1353830    -0.0155080
  H        0.3103430     1.7730630    -0.2708990
  H        0.3551050     1.0439550     1.3523320
  H       -1.1374380    -1.3254410     1.3139440
  H       -1.8855300     2.1916430    -1.0389860
  H       -3.5267120    -1.9532640     1.1308580
  H       -4.2733370     1.5694920    -1.2133600
  H       -6.0038750    -0.1617940    -1.0122750
  H       -5.6673980    -1.6833350    -0.1714030
  H       -6.0811880    -0.2353180     0.7521400
  H        2.3826970     1.8764090     0.7176150
  H        2.3879470    -2.1054110    -0.9150460
  H        4.8399070     1.8514100     0.7945710
  H        4.8825510    -2.1268580    -0.8422600
  H        6.1161710    -0.1361850     0.0199920
units angstrom
no_reorient  #important for SAPT in psi4, default
symmetry c1  #important for SAPT in psi4, default
}

set PROPERTIES_ORIGIN ["COM"]
properties('MP2/aug-cc-pvtz', properties = ['dipole'])
--------------------------------------------------------------------------

    Molecular point group: c1
  Charge       = 0
  Multiplicity = 1
  Basis Set: AUG-CC-PVTZ
    Blend: AUG-CC-PVTZ
  Basis Set: (AUG-CC-PVTZ AUX)
    Blend: AUG-CC-PVTZ-JKFIT

    Orbital Energies [Eh]
    ---------------------

    Doubly Occupied:

       1A    -20.583812     2A    -11.300963     3A    -11.293107
       4A    -11.245079     5A    -11.240919     6A    -11.239356
       7A    -11.238993     8A    -11.237320     9A    -11.234751
      10A    -11.233782    11A    -11.232893    12A    -11.232063
      13A    -11.227634    14A    -11.227214    15A    -11.225961
      16A     -1.404771    17A     -1.158366    18A     -1.143606
      19A     -1.066785    20A     -1.017703    21A     -1.013184
      22A     -1.008194    23A     -0.964058    24A     -0.899259
      25A     -0.832163    26A     -0.831470    27A     -0.808622
      28A     -0.782333    29A     -0.721083    30A     -0.683726
      31A     -0.670132    32A     -0.663626    33A     -0.643812
      34A     -0.631358    35A     -0.619978    36A     -0.609226
      37A     -0.586693    38A     -0.583333    39A     -0.577951
      40A     -0.563735    41A     -0.543534    42A     -0.530668
      43A     -0.523121    44A     -0.514319    45A     -0.489718
      46A     -0.488010    47A     -0.485499    48A     -0.477094
      49A     -0.463746    50A     -0.339901    51A     -0.336378
      52A     -0.321284    53A     -0.312258

  @DF-RHF Final Energy:  -613.36772964296938

   => Energetics <=

    Nuclear Repulsion Energy =            870.5620053983930120
    One-Electron Energy =               -2559.2503787579944401
    Two-Electron Energy =                1075.3206437166320484
    Total Energy =                       -613.3677296429693797
  Basis Set: (AUG-CC-PVTZ AUX)
    Blend: AUG-CC-PVTZ-RI
    Molecular point group: c1

    Geometry (in Angstrom), charge = 0, multiplicity = 1:

       Center              X                  Y                   Z               Mass
    ------------   -----------------  -----------------  -----------------  -----------------
         O            0.830227908327    -0.238250996627    -0.200388673292    15.994914619570
         C           -1.388555091673     0.485193003373     0.163448326708    12.000000000000
         C            0.057027908327     0.860094003373     0.297923326708    12.000000000000
         C           -4.131629391673    -0.186221096627     0.041468926708    12.000000000000
         C           -1.864581091673    -0.684456996627     0.768860326708    12.000000000000
         C           -2.280225091673     1.287741003373    -0.552197673292    12.000000000000
         C           -3.207440091673    -1.036508996627     0.659221326708    12.000000000000
         C           -3.627546091673     0.935132003373    -0.650828673292    12.000000000000
         C            2.196733908327    -0.128137996627    -0.107110673292    12.000000000000
         C           -5.570856091673    -0.598363996627    -0.128219673292    12.000000000000
         C            2.878766908327     0.993901003373     0.375863326708    12.000000000000
         C            2.911905908327    -1.250777996627    -0.546457673292    12.000000000000
         C            4.277907908327     0.977406003373     0.415858326708    12.000000000000
         C            4.301770908327    -1.250806996627    -0.501622673292    12.000000000000
         C            4.994778908327    -0.135298996627    -0.018006673292    12.000000000000
         H            0.275029908327     1.773147003373    -0.273397673292     1.007825032230
         H            0.319791908327     1.044039003373     1.349833326708     1.007825032230
         H           -1.172751091673    -1.325356996627     1.311445326708     1.007825032230
         H           -1.920843091673     2.191727003373    -1.041484673292     1.007825032230
         H           -3.562025091673    -1.953179996627     1.128359326708     1.007825032230
         H           -4.308650091673     1.569576003373    -1.215858673292     1.007825032230
         H           -6.039188091673    -0.161709996627    -1.014773673292     1.007825032230
         H           -5.702711091673    -1.683250996627    -0.173901673292     1.007825032230
         H           -6.116501091673    -0.235233996627     0.749641326708     1.007825032230
         H            2.347383908327     1.876493003373     0.715116326708     1.007825032230
         H            2.352633908327    -2.105326996627    -0.917544673292     1.007825032230
         H            4.804593908327     1.851494003373     0.792072326708     1.007825032230
         H            4.847237908327    -2.126773996627    -0.844758673292     1.007825032230
         H            6.080857908327    -0.136100996627     0.017493326708     1.007825032230

  Basis Set: AUG-CC-PVTZ
    Blend: AUG-CC-PVTZ
  Basis Set: (AUG-CC-PVTZ AUX)
    Blend: AUG-CC-PVTZ-JKFIT
	 Reference Energy          =    -613.3677296429693797 [Eh]
	 Singles Energy            =      -0.0000000000000000 [Eh]
	 Same-Spin Energy          =      -0.6728470096750623 [Eh]
	 Opposite-Spin Energy      =      -2.1169903209861172 [Eh]
	 Correlation Energy        =      -2.7898373306611797 [Eh]
	 Total Energy              =    -616.1575669736305372 [Eh]

	 ================> DF-SCS-MP2 Energies <==================
	-----------------------------------------------------------
	 SCS Same-Spin Scale       =       0.3333333333333333 [-]
	 SCS Opposite-Spin Scale   =       1.2000000000000000 [-]
	 SCS Same-Spin Energy      =      -0.2242823365583541 [Eh]
	 SCS Opposite-Spin Energy  =      -2.5403883851833404 [Eh]
	 SCS Correlation Energy    =      -2.7646707217416946 [Eh]
	 SCS Total Energy          =    -616.1324003647110885 [Eh]
	-----------------------------------------------------------

  Dipole Moment: [D]
     X:    -1.0095      Y:     0.7067      Z:     0.4316     Total:     1.3056

*** Psi4 exiting successfully. Buy a developer a beer!
