                               Psi4 1.4a3.dev225

  ==> Input File <==

--------------------------------------------------------------------------
#psi4
#
memory 32 gb

molecule  {
0 1
  O        0.8655410    -0.2383350    -0.1978900
  C       -1.3532420     0.4851090     0.1659470
  C        0.0830158     0.9026654     0.2715634
  C       -4.0760200    -0.2326370    -0.0482320
  C       -1.8292680    -0.6845410     0.7713590
  C       -2.2449120     1.2876570    -0.5496990
  C       -3.1721270    -1.0365930     0.6617200
  C       -3.5922330     0.9350480    -0.6483300
  C        2.2320470    -0.1282220    -0.1046120
  C       -5.5355430    -0.5984480    -0.1257210
  C        2.9140800     0.9938170     0.3783620
  C        2.9472190    -1.2508620    -0.5439590
  C        4.3132210     0.9773220     0.4183570
  C        4.3370840    -1.2508910    -0.4991240
  C        5.0300920    -0.1353830    -0.0155080
  H        0.3103430     1.7730630    -0.2708990
  H        0.3551050     1.0439550     1.3523320
  H       -1.1374380    -1.3254410     1.3139440
  H       -1.8855300     2.1916430    -1.0389860
  H       -3.5267120    -1.9532640     1.1308580
  H       -4.2733370     1.5694920    -1.2133600
  H       -6.0038750    -0.1617940    -1.0122750
  H       -5.6673980    -1.6833350    -0.1714030
  H       -6.0811880    -0.2353180     0.7521400
  H        2.3826970     1.8764090     0.7176150
  H        2.3879470    -2.1054110    -0.9150460
  H        4.8399070     1.8514100     0.7945710
  H        4.8825510    -2.1268580    -0.8422600
  H        6.1161710    -0.1361850     0.0199920
units angstrom
no_reorient  #important for SAPT in psi4, default
symmetry c1  #important for SAPT in psi4, default
}

set PROPERTIES_ORIGIN ["COM"]
properties('MP2/aug-cc-pvtz', properties = ['dipole'])
--------------------------------------------------------------------------

    Molecular point group: c1
  Charge       = 0
  Multiplicity = 1
  Basis Set: AUG-CC-PVTZ
    Blend: AUG-CC-PVTZ
  Basis Set: (AUG-CC-PVTZ AUX)
    Blend: AUG-CC-PVTZ-JKFIT

    Orbital Energies [Eh]
    ---------------------

    Doubly Occupied:

       1A    -20.581704     2A    -11.299624     3A    -11.293684
       4A    -11.244208     5A    -11.240265     6A    -11.240186
       7A    -11.238621     8A    -11.237594     9A    -11.236131
      10A    -11.232908    11A    -11.232457    12A    -11.231860
      13A    -11.226415    14A    -11.226186    15A    -11.226149
      16A     -1.396225    17A     -1.159241    18A     -1.142480
      19A     -1.067727    20A     -1.016763    21A     -1.013767
      22A     -1.006799    23A     -0.965252    24A     -0.900563
      25A     -0.833452    26A     -0.830818    27A     -0.807245
      28A     -0.783713    29A     -0.718697    30A     -0.683062
      31A     -0.672065    32A     -0.659441    33A     -0.642451
      34A     -0.631292    35A     -0.621461    36A     -0.608218
      37A     -0.585846    38A     -0.584055    39A     -0.577264
      40A     -0.561035    41A     -0.544172    42A     -0.531341
      43A     -0.527176    44A     -0.513281    45A     -0.491164
      46A     -0.486062    47A     -0.485720    48A     -0.479350
      49A     -0.464590    50A     -0.339219    51A     -0.337246
      52A     -0.322258    53A     -0.310891

  @DF-RHF Final Energy:  -613.36803085231043

   => Energetics <=

    Nuclear Repulsion Energy =            870.2990458062517973
    One-Electron Energy =               -2558.7553672507988267
    Two-Electron Energy =                1075.0882905922364898
    Total Energy =                       -613.3680308523105396
  Basis Set: (AUG-CC-PVTZ AUX)
    Blend: AUG-CC-PVTZ-RI
    Molecular point group: c1

    Geometry (in Angstrom), charge = 0, multiplicity = 1:

       Center              X                  Y                   Z               Mass
    ------------   -----------------  -----------------  -----------------  -----------------
         O            0.829563343800    -0.238028295942    -0.193055681582    15.994914619570
         C           -1.389219656200     0.485415704058     0.170781318418    12.000000000000
         C            0.047038143800     0.902972104058     0.276397718418    12.000000000000
         C           -4.111997656200    -0.232330295942    -0.043397681582    12.000000000000
         C           -1.865245656200    -0.684234295942     0.776193318418    12.000000000000
         C           -2.280889656200     1.287963704058    -0.544864681582    12.000000000000
         C           -3.208104656200    -1.036286295942     0.666554318418    12.000000000000
         C           -3.628210656200     0.935354704058    -0.643495681582    12.000000000000
         C            2.196069343800    -0.127915295942    -0.099777681582    12.000000000000
         C           -5.571520656200    -0.598141295942    -0.120886681582    12.000000000000
         C            2.878102343800     0.994123704058     0.383196318418    12.000000000000
         C            2.911241343800    -1.250555295942    -0.539124681582    12.000000000000
         C            4.277243343800     0.977628704058     0.423191318418    12.000000000000
         C            4.301106343800    -1.250584295942    -0.494289681582    12.000000000000
         C            4.994114343800    -0.135076295942    -0.010673681582    12.000000000000
         H            0.274365343800     1.773369704058    -0.266064681582     1.007825032230
         H            0.319127343800     1.044261704058     1.357166318418     1.007825032230
         H           -1.173415656200    -1.325134295942     1.318778318418     1.007825032230
         H           -1.921507656200     2.191949704058    -1.034151681582     1.007825032230
         H           -3.562689656200    -1.952957295942     1.135692318418     1.007825032230
         H           -4.309314656200     1.569798704058    -1.208525681582     1.007825032230
         H           -6.039852656200    -0.161487295942    -1.007440681582     1.007825032230
         H           -5.703375656200    -1.683028295942    -0.166568681582     1.007825032230
         H           -6.117165656200    -0.235011295942     0.756974318418     1.007825032230
         H            2.346719343800     1.876715704058     0.722449318418     1.007825032230
         H            2.351969343800    -2.105104295942    -0.910211681582     1.007825032230
         H            4.803929343800     1.851716704058     0.799405318418     1.007825032230
         H            4.846573343800    -2.126551295942    -0.837425681582     1.007825032230
         H            6.080193343800    -0.135878295942     0.024826318418     1.007825032230

  Basis Set: AUG-CC-PVTZ
    Blend: AUG-CC-PVTZ
  Basis Set: (AUG-CC-PVTZ AUX)
    Blend: AUG-CC-PVTZ-JKFIT
	 Reference Energy          =    -613.3680308523104259 [Eh]
	 Singles Energy            =      -0.0000000000000000 [Eh]
	 Same-Spin Energy          =      -0.6727421828597292 [Eh]
	 Opposite-Spin Energy      =      -2.1170464909236091 [Eh]
	 Correlation Energy        =      -2.7897886737833382 [Eh]
	 Total Energy              =    -616.1578195260938173 [Eh]

	 ================> DF-SCS-MP2 Energies <==================
	-----------------------------------------------------------
	 SCS Same-Spin Scale       =       0.3333333333333333 [-]
	 SCS Opposite-Spin Scale   =       1.2000000000000000 [-]
	 SCS Same-Spin Energy      =      -0.2242473942865764 [Eh]
	 SCS Opposite-Spin Energy  =      -2.5404557891083308 [Eh]
	 SCS Correlation Energy    =      -2.7647031833949072 [Eh]
	 SCS Total Energy          =    -616.1327340357053117 [Eh]
	-----------------------------------------------------------

  Dipole Moment: [D]
     X:    -1.1143      Y:     0.8164      Z:     0.4435     Total:     1.4508

*** Psi4 exiting successfully. Buy a developer a beer!
