                               Psi4 1.4a3.dev225

  ==> Input File <==

--------------------------------------------------------------------------
#psi4
#
memory 32 gb

molecule  {
0 1
  O        0.8655410    -0.2383350    -0.1978900
  C       -1.3532420     0.4851090     0.1659470
  C        0.0923410     0.8600100     0.3004220
  C       -4.0685335    -0.2564857    -0.0945016
  C       -1.8292680    -0.6845410     0.7713590
  C       -2.2449120     1.2876570    -0.5496990
  C       -3.1721270    -1.0365930     0.6617200
  C       -3.5922330     0.9350480    -0.6483300
  C        2.2320470    -0.1282220    -0.1046120
  C       -5.5355430    -0.5984480    -0.1257210
  C        2.9140800     0.9938170     0.3783620
  C        2.9472190    -1.2508620    -0.5439590
  C        4.3132210     0.9773220     0.4183570
  C        4.3370840    -1.2508910    -0.4991240
  C        5.0300920    -0.1353830    -0.0155080
  H        0.3103430     1.7730630    -0.2708990
  H        0.3551050     1.0439550     1.3523320
  H       -1.1374380    -1.3254410     1.3139440
  H       -1.8855300     2.1916430    -1.0389860
  H       -3.5267120    -1.9532640     1.1308580
  H       -4.2733370     1.5694920    -1.2133600
  H       -6.0038750    -0.1617940    -1.0122750
  H       -5.6673980    -1.6833350    -0.1714030
  H       -6.0811880    -0.2353180     0.7521400
  H        2.3826970     1.8764090     0.7176150
  H        2.3879470    -2.1054110    -0.9150460
  H        4.8399070     1.8514100     0.7945710
  H        4.8825510    -2.1268580    -0.8422600
  H        6.1161710    -0.1361850     0.0199920
units angstrom
no_reorient  #important for SAPT in psi4, default
symmetry c1  #important for SAPT in psi4, default
}

set PROPERTIES_ORIGIN ["COM"]
properties('MP2/aug-cc-pvtz', properties = ['dipole'])
--------------------------------------------------------------------------

    Molecular point group: c1
  Charge       = 0
  Multiplicity = 1
  Basis Set: AUG-CC-PVTZ
    Blend: AUG-CC-PVTZ
  Basis Set: (AUG-CC-PVTZ AUX)
    Blend: AUG-CC-PVTZ-JKFIT

    Orbital Energies [Eh]
    ---------------------

    Doubly Occupied:

       1A    -20.584048     2A    -11.301110     3A    -11.293357
       4A    -11.243997     5A    -11.241029     6A    -11.239497
       7A    -11.239461     8A    -11.237649     9A    -11.235002
      10A    -11.233030    11A    -11.232890    12A    -11.232339
      13A    -11.227754    14A    -11.227326    15A    -11.225772
      16A     -1.405008    17A     -1.158652    18A     -1.143749
      19A     -1.066934    20A     -1.017797    21A     -1.013324
      22A     -1.008401    23A     -0.964060    24A     -0.899404
      25A     -0.832995    26A     -0.831188    27A     -0.809058
      28A     -0.782379    29A     -0.721248    30A     -0.683992
      31A     -0.670577    32A     -0.663778    33A     -0.643842
      34A     -0.631029    35A     -0.620554    36A     -0.609446
      37A     -0.586869    38A     -0.583397    39A     -0.576966
      40A     -0.563402    41A     -0.543234    42A     -0.532301
      43A     -0.522667    44A     -0.513936    45A     -0.492711
      46A     -0.485927    47A     -0.483142    48A     -0.479398
      49A     -0.464377    50A     -0.340007    51A     -0.336600
      52A     -0.322449    53A     -0.312405

  @DF-RHF Final Energy:  -613.37024502673535

   => Energetics <=

    Nuclear Repulsion Energy =            870.6984154843939905
    One-Electron Energy =               -2559.5143930409526547
    Two-Electron Energy =                1075.4457325298233172
    Total Energy =                       -613.3702450267353470
  Basis Set: (AUG-CC-PVTZ AUX)
    Blend: AUG-CC-PVTZ-RI
    Molecular point group: c1

    Geometry (in Angstrom), charge = 0, multiplicity = 1:

       Center              X                  Y                   Z               Mass
    ------------   -----------------  -----------------  -----------------  -----------------
         O            0.828544990176    -0.233999869830    -0.192001025898    15.994914619570
         C           -1.390238009824     0.489444130170     0.171835974102    12.000000000000
         C            0.055344990176     0.864345130170     0.306310974102    12.000000000000
         C           -4.105529509824    -0.252150569830    -0.088612625898    12.000000000000
         C           -1.866264009824    -0.680205869830     0.777247974102    12.000000000000
         C           -2.281908009824     1.291992130170    -0.543810025898    12.000000000000
         C           -3.209123009824    -1.032257869830     0.667608974102    12.000000000000
         C           -3.629229009824     0.939383130170    -0.642441025898    12.000000000000
         C            2.195050990176    -0.123886869830    -0.098723025898    12.000000000000
         C           -5.572539009824    -0.594112869830    -0.119832025898    12.000000000000
         C            2.877083990176     0.998152130170     0.384250974102    12.000000000000
         C            2.910222990176    -1.246526869830    -0.538070025898    12.000000000000
         C            4.276224990176     0.981657130170     0.424245974102    12.000000000000
         C            4.300087990176    -1.246555869830    -0.493235025898    12.000000000000
         C            4.993095990176    -0.131047869830    -0.009619025898    12.000000000000
         H            0.273346990176     1.777398130170    -0.265010025898     1.007825032230
         H            0.318108990176     1.048290130170     1.358220974102     1.007825032230
         H           -1.174434009824    -1.321105869830     1.319832974102     1.007825032230
         H           -1.922526009824     2.195978130170    -1.033097025898     1.007825032230
         H           -3.563708009824    -1.948928869830     1.136746974102     1.007825032230
         H           -4.310333009824     1.573827130170    -1.207471025898     1.007825032230
         H           -6.040871009824    -0.157458869830    -1.006386025898     1.007825032230
         H           -5.704394009824    -1.678999869830    -0.165514025898     1.007825032230
         H           -6.118184009824    -0.230982869830     0.758028974102     1.007825032230
         H            2.345700990176     1.880744130170     0.723503974102     1.007825032230
         H            2.350950990176    -2.101075869830    -0.909157025898     1.007825032230
         H            4.802910990176     1.855745130170     0.800459974102     1.007825032230
         H            4.845554990176    -2.122522869830    -0.836371025898     1.007825032230
         H            6.079174990176    -0.131849869830     0.025880974102     1.007825032230

  Basis Set: AUG-CC-PVTZ
    Blend: AUG-CC-PVTZ
  Basis Set: (AUG-CC-PVTZ AUX)
    Blend: AUG-CC-PVTZ-JKFIT
	 Reference Energy          =    -613.3702450267353470 [Eh]
	 Singles Energy            =      -0.0000000000000000 [Eh]
	 Same-Spin Energy          =      -0.6727088362823318 [Eh]
	 Opposite-Spin Energy      =      -2.1167166805148567 [Eh]
	 Correlation Energy        =      -2.7894255167971886 [Eh]
	 Total Energy              =    -616.1596705435325703 [Eh]

	 ================> DF-SCS-MP2 Energies <==================
	-----------------------------------------------------------
	 SCS Same-Spin Scale       =       0.3333333333333333 [-]
	 SCS Opposite-Spin Scale   =       1.2000000000000000 [-]
	 SCS Same-Spin Energy      =      -0.2242362787607773 [Eh]
	 SCS Opposite-Spin Energy  =      -2.5400600166178280 [Eh]
	 SCS Correlation Energy    =      -2.7642962953786054 [Eh]
	 SCS Total Energy          =    -616.1345413221139324 [Eh]
	-----------------------------------------------------------

  Dipole Moment: [D]
     X:    -0.9809      Y:     0.7482      Z:     0.4927     Total:     1.3284

*** Psi4 exiting successfully. Buy a developer a beer!
