                               Psi4 1.4a3.dev225

  ==> Input File <==

--------------------------------------------------------------------------
#psi4
#
memory 32 gb

molecule  {
0 1
  O        0.8655410    -0.2383350    -0.1978900
  C       -1.3532420     0.4851090     0.1659470
  C        0.0923410     0.8600100     0.3004220
  C       -4.0760200    -0.2326370    -0.0482320
  C       -1.8292680    -0.6845410     0.7713590
  C       -2.2449120     1.2876570    -0.5496990
  C       -3.1721270    -1.0365930     0.6617200
  C       -3.5922330     0.9350480    -0.6483300
  C        2.2320470    -0.1282220    -0.1046120
  C       -5.5355430    -0.5984480    -0.1257210
  C        2.9140800     0.9938170     0.3783620
  C        2.9472190    -1.2508620    -0.5439590
  C        4.3132210     0.9773220     0.4183570
  C        4.3370840    -1.2508910    -0.4991240
  C        5.0403850    -0.1513595    -0.0217375
  H        0.3103430     1.7730630    -0.2708990
  H        0.3551050     1.0439550     1.3523320
  H       -1.1374380    -1.3254410     1.3139440
  H       -1.8855300     2.1916430    -1.0389860
  H       -3.5267120    -1.9532640     1.1308580
  H       -4.2733370     1.5694920    -1.2133600
  H       -6.0038750    -0.1617940    -1.0122750
  H       -5.6673980    -1.6833350    -0.1714030
  H       -6.0811880    -0.2353180     0.7521400
  H        2.3826970     1.8764090     0.7176150
  H        2.3879470    -2.1054110    -0.9150460
  H        4.8399070     1.8514100     0.7945710
  H        4.8825510    -2.1268580    -0.8422600
  H        6.1161710    -0.1361850     0.0199920
units angstrom
no_reorient  #important for SAPT in psi4, default
symmetry c1  #important for SAPT in psi4, default
}

set PROPERTIES_ORIGIN ["COM"]
properties('MP2/aug-cc-pvtz', properties = ['dipole'])
--------------------------------------------------------------------------

    Molecular point group: c1
  Charge       = 0
  Multiplicity = 1
  Basis Set: AUG-CC-PVTZ
    Blend: AUG-CC-PVTZ
  Basis Set: (AUG-CC-PVTZ AUX)
    Blend: AUG-CC-PVTZ-JKFIT

    Orbital Energies [Eh]
    ---------------------

    Doubly Occupied:

       1A    -20.583964     2A    -11.301211     3A    -11.293295
       4A    -11.243874     5A    -11.243424     6A    -11.239161
       7A    -11.238299     8A    -11.237599     9A    -11.235001
      10A    -11.233481    11A    -11.232295    12A    -11.232132
      13A    -11.227523    14A    -11.227195    15A    -11.225892
      16A     -1.404954    17A     -1.158795    18A     -1.142829
      19A     -1.066951    20A     -1.017046    21A     -1.013488
      22A     -1.008768    23A     -0.963757    24A     -0.899312
      25A     -0.833368    26A     -0.831182    27A     -0.809244
      28A     -0.782333    29A     -0.720997    30A     -0.683862
      31A     -0.670863    32A     -0.665340    33A     -0.643520
      34A     -0.630982    35A     -0.620611    36A     -0.608902
      37A     -0.585793    38A     -0.583588    39A     -0.577011
      40A     -0.563832    41A     -0.543339    42A     -0.533375
      43A     -0.522504    44A     -0.515378    45A     -0.490887
      46A     -0.486586    47A     -0.484921    48A     -0.478426
      49A     -0.463734    50A     -0.340413    51A     -0.336772
      52A     -0.322315    53A     -0.311211

  @DF-RHF Final Energy:  -613.37094642378406

   => Energetics <=

    Nuclear Repulsion Energy =            870.5324993514667540
    One-Electron Energy =               -2559.1838237104952896
    Two-Electron Energy =                1075.2803779352443598
    Total Energy =                       -613.3709464237840621
  Basis Set: (AUG-CC-PVTZ AUX)
    Blend: AUG-CC-PVTZ-RI
    Molecular point group: c1

    Geometry (in Angstrom), charge = 0, multiplicity = 1:

       Center              X                  Y                   Z               Mass
    ------------   -----------------  -----------------  -----------------  -----------------
         O            0.828374988960    -0.234476721273    -0.194426418985    15.994914619570
         C           -1.390408011040     0.488967278727     0.169410581015    12.000000000000
         C            0.055174988960     0.863868278727     0.303885581015    12.000000000000
         C           -4.113186011040    -0.228778721273    -0.044768418985    12.000000000000
         C           -1.866434011040    -0.680682721273     0.774822581015    12.000000000000
         C           -2.282078011040     1.291515278727    -0.546235418985    12.000000000000
         C           -3.209293011040    -1.032734721273     0.665183581015    12.000000000000
         C           -3.629399011040     0.938906278727    -0.644866418985    12.000000000000
         C            2.194880988960    -0.124363721273    -0.101148418985    12.000000000000
         C           -5.572709011040    -0.594589721273    -0.122257418985    12.000000000000
         C            2.876913988960     0.997675278727     0.381825581015    12.000000000000
         C            2.910052988960    -1.247003721273    -0.540495418985    12.000000000000
         C            4.276054988960     0.981180278727     0.421820581015    12.000000000000
         C            4.299917988960    -1.247032721273    -0.495660418985    12.000000000000
         C            5.003218988960    -0.147501221273    -0.018273918985    12.000000000000
         H            0.273176988960     1.776921278727    -0.267435418985     1.007825032230
         H            0.317938988960     1.047813278727     1.355795581015     1.007825032230
         H           -1.174604011040    -1.321582721273     1.317407581015     1.007825032230
         H           -1.922696011040     2.195501278727    -1.035522418985     1.007825032230
         H           -3.563878011040    -1.949405721273     1.134321581015     1.007825032230
         H           -4.310503011040     1.573350278727    -1.209896418985     1.007825032230
         H           -6.041041011040    -0.157935721273    -1.008811418985     1.007825032230
         H           -5.704564011040    -1.679476721273    -0.167939418985     1.007825032230
         H           -6.118354011040    -0.231459721273     0.755603581015     1.007825032230
         H            2.345530988960     1.880267278727     0.721078581015     1.007825032230
         H            2.350780988960    -2.101552721273    -0.911582418985     1.007825032230
         H            4.802740988960     1.855268278727     0.798034581015     1.007825032230
         H            4.845384988960    -2.122999721273    -0.838796418985     1.007825032230
         H            6.079004988960    -0.132326721273     0.023455581015     1.007825032230

  Basis Set: AUG-CC-PVTZ
    Blend: AUG-CC-PVTZ
  Basis Set: (AUG-CC-PVTZ AUX)
    Blend: AUG-CC-PVTZ-JKFIT
	 Reference Energy          =    -613.3709464237840621 [Eh]
	 Singles Energy            =      -0.0000000000000000 [Eh]
	 Same-Spin Energy          =      -0.6726756882493232 [Eh]
	 Opposite-Spin Energy      =      -2.1166030144052241 [Eh]
	 Correlation Energy        =      -2.7892787026545474 [Eh]
	 Total Energy              =    -616.1602251264386041 [Eh]

	 ================> DF-SCS-MP2 Energies <==================
	-----------------------------------------------------------
	 SCS Same-Spin Scale       =       0.3333333333333333 [-]
	 SCS Opposite-Spin Scale   =       1.2000000000000000 [-]
	 SCS Same-Spin Energy      =      -0.2242252294164411 [Eh]
	 SCS Opposite-Spin Energy  =      -2.5399236172862687 [Eh]
	 SCS Correlation Energy    =      -2.7641488467027098 [Eh]
	 SCS Total Energy          =    -616.1350952704867723 [Eh]
	-----------------------------------------------------------

  Dipole Moment: [D]
     X:    -1.0059      Y:     0.7440      Z:     0.4767     Total:     1.3389

*** Psi4 exiting successfully. Buy a developer a beer!
