                               Psi4 1.4a3.dev225

  ==> Input File <==

--------------------------------------------------------------------------
#psi4
#
memory 32 gb

molecule  {
0 1
  O        0.8655410    -0.2383350    -0.1978900
  C       -1.3532420     0.4851090     0.1659470
  C        0.0923410     0.8600100     0.3004220
  C       -4.0760200    -0.2326370    -0.0482320
  C       -1.8292680    -0.6845410     0.7713590
  C       -2.2449120     1.2876570    -0.5496990
  C       -3.1721270    -1.0365930     0.6617200
  C       -3.5922330     0.9350480    -0.6483300
  C        2.2320470    -0.1282220    -0.1046120
  C       -5.5355430    -0.5984480    -0.1257210
  C        2.9140800     0.9938170     0.3783620
  C        2.9472190    -1.2508620    -0.5439590
  C        4.3132210     0.9773220     0.4183570
  C        4.3370840    -1.2508910    -0.4991240
  C        5.0300920    -0.1353830    -0.0155080
  H        0.3103430     1.7730630    -0.2708990
  H        0.3551050     1.0439550     1.3523320
  H       -1.1374380    -1.3254410     1.3139440
  H       -1.8855300     2.1916430    -1.0389860
  H       -3.5267120    -1.9532640     1.1308580
  H       -4.2733370     1.5694920    -1.2133600
  H       -6.0038750    -0.1617940    -1.0122750
  H       -5.6553435    -1.5841521    -0.1672266
  H       -6.0811880    -0.2353180     0.7521400
  H        2.3826970     1.8764090     0.7176150
  H        2.3879470    -2.1054110    -0.9150460
  H        4.8399070     1.8514100     0.7945710
  H        4.8825510    -2.1268580    -0.8422600
  H        6.1161710    -0.1361850     0.0199920
units angstrom
no_reorient  #important for SAPT in psi4, default
symmetry c1  #important for SAPT in psi4, default
}

set PROPERTIES_ORIGIN ["COM"]
properties('MP2/aug-cc-pvtz', properties = ['dipole'])
--------------------------------------------------------------------------

    Molecular point group: c1
  Charge       = 0
  Multiplicity = 1
  Basis Set: AUG-CC-PVTZ
    Blend: AUG-CC-PVTZ
  Basis Set: (AUG-CC-PVTZ AUX)
    Blend: AUG-CC-PVTZ-JKFIT

    Orbital Energies [Eh]
    ---------------------

    Doubly Occupied:

       1A    -20.583798     2A    -11.300953     3A    -11.293019
       4A    -11.243120     5A    -11.240904     6A    -11.239344
       7A    -11.238830     8A    -11.237242     9A    -11.234836
      10A    -11.232882    11A    -11.231994    12A    -11.231633
      13A    -11.227624    14A    -11.227209    15A    -11.213519
      16A     -1.404755    17A     -1.158733    18A     -1.143684
      19A     -1.068344    20A     -1.017951    21A     -1.013290
      22A     -1.009160    23A     -0.968171    24A     -0.903532
      25A     -0.833110    26A     -0.831343    27A     -0.809253
      28A     -0.783072    29A     -0.721075    30A     -0.684586
      31A     -0.670905    32A     -0.663602    33A     -0.644483
      34A     -0.631495    35A     -0.622172    36A     -0.609292
      37A     -0.586775    38A     -0.584527    39A     -0.582321
      40A     -0.564822    41A     -0.549335    42A     -0.531499
      43A     -0.524752    44A     -0.513938    45A     -0.491049
      46A     -0.486710    47A     -0.485409    48A     -0.478636
      49A     -0.464144    50A     -0.339886    51A     -0.336543
      52A     -0.322114    53A     -0.312239

  @DF-RHF Final Energy:  -613.36560427747690

   => Energetics <=

    Nuclear Repulsion Energy =            871.2032428237901058
    One-Electron Energy =               -2560.4904651322744940
    Two-Electron Energy =                1075.9216180310074833
    Total Energy =                       -613.3656042774769048
  Basis Set: (AUG-CC-PVTZ AUX)
    Blend: AUG-CC-PVTZ-RI
    Molecular point group: c1

    Geometry (in Angstrom), charge = 0, multiplicity = 1:

       Center              X                  Y                   Z               Mass
    ------------   -----------------  -----------------  -----------------  -----------------
         O            0.828937152832    -0.235949060674    -0.194825012123    15.994914619570
         C           -1.389845847168     0.487494939326     0.169011987877    12.000000000000
         C            0.055737152832     0.862395939326     0.303486987877    12.000000000000
         C           -4.112623847168    -0.230251060674    -0.045167012123    12.000000000000
         C           -1.865871847168    -0.682155060674     0.774423987877    12.000000000000
         C           -2.281515847168     1.290042939326    -0.546634012123    12.000000000000
         C           -3.208730847168    -1.034207060674     0.664784987877    12.000000000000
         C           -3.628836847168     0.937433939326    -0.645265012123    12.000000000000
         C            2.195443152832    -0.125836060674    -0.101547012123    12.000000000000
         C           -5.572146847168    -0.596062060674    -0.122656012123    12.000000000000
         C            2.877476152832     0.996202939326     0.381426987877    12.000000000000
         C            2.910615152832    -1.248476060674    -0.540894012123    12.000000000000
         C            4.276617152832     0.979707939326     0.421421987877    12.000000000000
         C            4.300480152832    -1.248505060674    -0.496059012123    12.000000000000
         C            4.993488152832    -0.132997060674    -0.012443012123    12.000000000000
         H            0.273739152832     1.775448939326    -0.267834012123     1.007825032230
         H            0.318501152832     1.046340939326     1.355396987877     1.007825032230
         H           -1.174041847168    -1.323055060674     1.317008987877     1.007825032230
         H           -1.922133847168     2.194028939326    -1.035921012123     1.007825032230
         H           -3.563315847168    -1.950878060674     1.133922987877     1.007825032230
         H           -4.309940847168     1.571877939326    -1.210295012123     1.007825032230
         H           -6.040478847168    -0.159408060674    -1.009210012123     1.007825032230
         H           -5.691947347168    -1.581766160674    -0.164161612123     1.007825032230
         H           -6.117791847168    -0.232932060674     0.755204987877     1.007825032230
         H            2.346093152832     1.878794939326     0.720679987877     1.007825032230
         H            2.351343152832    -2.103025060674    -0.911981012123     1.007825032230
         H            4.803303152832     1.853795939326     0.797635987877     1.007825032230
         H            4.845947152832    -2.124472060674    -0.839195012123     1.007825032230
         H            6.079567152832    -0.133799060674     0.023056987877     1.007825032230

  Basis Set: AUG-CC-PVTZ
    Blend: AUG-CC-PVTZ
  Basis Set: (AUG-CC-PVTZ AUX)
    Blend: AUG-CC-PVTZ-JKFIT
	 Reference Energy          =    -613.3656042774769048 [Eh]
	 Singles Energy            =      -0.0000000000000000 [Eh]
	 Same-Spin Energy          =      -0.6726691759147720 [Eh]
	 Opposite-Spin Energy      =      -2.1160250253842880 [Eh]
	 Correlation Energy        =      -2.7886942012990601 [Eh]
	 Total Energy              =    -616.1542984787760133 [Eh]

	 ================> DF-SCS-MP2 Energies <==================
	-----------------------------------------------------------
	 SCS Same-Spin Scale       =       0.3333333333333333 [-]
	 SCS Opposite-Spin Scale   =       1.2000000000000000 [-]
	 SCS Same-Spin Energy      =      -0.2242230586382573 [Eh]
	 SCS Opposite-Spin Energy  =      -2.5392300304611455 [Eh]
	 SCS Correlation Energy    =      -2.7634530890994027 [Eh]
	 SCS Total Energy          =    -616.1290573665762622 [Eh]
	-----------------------------------------------------------

  Dipole Moment: [D]
     X:    -1.0289      Y:     0.6939      Z:     0.4697     Total:     1.3269

*** Psi4 exiting successfully. Buy a developer a beer!
