                               Psi4 1.4a3.dev225

  ==> Input File <==

--------------------------------------------------------------------------
#psi4
#
memory 32 gb

molecule  {
0 1
  O        0.8655410    -0.2383350    -0.1978900
  C       -1.3532420     0.4851090     0.1659470
  C        0.0923410     0.8600100     0.3004220
  C       -4.0760200    -0.2326370    -0.0482320
  C       -1.8292680    -0.6845410     0.7713590
  C       -2.2449120     1.2876570    -0.5496990
  C       -3.1721270    -1.0365930     0.6617200
  C       -3.6115330     0.9299970    -0.6497429
  C        2.2320470    -0.1282220    -0.1046120
  C       -5.5355430    -0.5984480    -0.1257210
  C        2.9140800     0.9938170     0.3783620
  C        2.9472190    -1.2508620    -0.5439590
  C        4.3132210     0.9773220     0.4183570
  C        4.3370840    -1.2508910    -0.4991240
  C        5.0300920    -0.1353830    -0.0155080
  H        0.3103430     1.7730630    -0.2708990
  H        0.3551050     1.0439550     1.3523320
  H       -1.1374380    -1.3254410     1.3139440
  H       -1.8855300     2.1916430    -1.0389860
  H       -3.5267120    -1.9532640     1.1308580
  H       -4.2733370     1.5694920    -1.2133600
  H       -6.0038750    -0.1617940    -1.0122750
  H       -5.6673980    -1.6833350    -0.1714030
  H       -6.0811880    -0.2353180     0.7521400
  H        2.3826970     1.8764090     0.7176150
  H        2.3879470    -2.1054110    -0.9150460
  H        4.8399070     1.8514100     0.7945710
  H        4.8825510    -2.1268580    -0.8422600
  H        6.1161710    -0.1361850     0.0199920
units angstrom
no_reorient  #important for SAPT in psi4, default
symmetry c1  #important for SAPT in psi4, default
}

set PROPERTIES_ORIGIN ["COM"]
properties('MP2/aug-cc-pvtz', properties = ['dipole'])
--------------------------------------------------------------------------

    Molecular point group: c1
  Charge       = 0
  Multiplicity = 1
  Basis Set: AUG-CC-PVTZ
    Blend: AUG-CC-PVTZ
  Basis Set: (AUG-CC-PVTZ AUX)
    Blend: AUG-CC-PVTZ-JKFIT

    Orbital Energies [Eh]
    ---------------------

    Doubly Occupied:

       1A    -20.583988     2A    -11.301085     3A    -11.293290
       4A    -11.242813     5A    -11.241003     6A    -11.240201
       7A    -11.239437     8A    -11.238716     9A    -11.235308
      10A    -11.232999    11A    -11.232410    12A    -11.232324
      13A    -11.227728    14A    -11.227302    15A    -11.225236
      16A     -1.404954    17A     -1.158272    18A     -1.143718
      19A     -1.067915    20A     -1.017757    21A     -1.011267
      22A     -1.008497    23A     -0.963381    24A     -0.899842
      25A     -0.834489    26A     -0.831510    27A     -0.808917
      28A     -0.781900    29A     -0.721205    30A     -0.683811
      31A     -0.670195    32A     -0.663739    33A     -0.643634
      34A     -0.632734    35A     -0.620107    36A     -0.609949
      37A     -0.586830    38A     -0.583237    39A     -0.576850
      40A     -0.564273    41A     -0.543031    42A     -0.531813
      43A     -0.522613    44A     -0.514074    45A     -0.491012
      46A     -0.488494    47A     -0.483952    48A     -0.478300
      49A     -0.464260    50A     -0.339995    51A     -0.334612
      52A     -0.324014    53A     -0.312375

  @DF-RHF Final Energy:  -613.37113152574614

   => Energetics <=

    Nuclear Repulsion Energy =            870.5580621447694512
    One-Electron Energy =               -2559.2356540812766070
    Two-Electron Energy =                1075.3064604107612467
    Total Energy =                       -613.3711315257460228
  Basis Set: (AUG-CC-PVTZ AUX)
    Blend: AUG-CC-PVTZ-RI
    Molecular point group: c1

    Geometry (in Angstrom), charge = 0, multiplicity = 1:

       Center              X                  Y                   Z               Mass
    ------------   -----------------  -----------------  -----------------  -----------------
         O            0.830167558349    -0.235138523621    -0.194718180203    15.994914619570
         C           -1.388615441651     0.488305476379     0.169118819797    12.000000000000
         C            0.056967558349     0.863206476379     0.303593819797    12.000000000000
         C           -4.111393441651    -0.229440523621    -0.045060180203    12.000000000000
         C           -1.864641441651    -0.681344523621     0.774530819797    12.000000000000
         C           -2.280285441651     1.290853476379    -0.546527180203    12.000000000000
         C           -3.207500441651    -1.033396523621     0.664891819797    12.000000000000
         C           -3.646906441651     0.933193476379    -0.646571080203    12.000000000000
         C            2.196673558349    -0.125025523621    -0.101440180203    12.000000000000
         C           -5.570916441651    -0.595251523621    -0.122549180203    12.000000000000
         C            2.878706558349     0.997013476379     0.381533819797    12.000000000000
         C            2.911845558349    -1.247665523621    -0.540787180203    12.000000000000
         C            4.277847558349     0.980518476379     0.421528819797    12.000000000000
         C            4.301710558349    -1.247694523621    -0.495952180203    12.000000000000
         C            4.994718558349    -0.132186523621    -0.012336180203    12.000000000000
         H            0.274969558349     1.776259476379    -0.267727180203     1.007825032230
         H            0.319731558349     1.047151476379     1.355503819797     1.007825032230
         H           -1.172811441651    -1.322244523621     1.317115819797     1.007825032230
         H           -1.920903441651     2.194839476379    -1.035814180203     1.007825032230
         H           -3.562085441651    -1.950067523621     1.134029819797     1.007825032230
         H           -4.308710441651     1.572688476379    -1.210188180203     1.007825032230
         H           -6.039248441651    -0.158597523621    -1.009103180203     1.007825032230
         H           -5.702771441651    -1.680138523621    -0.168231180203     1.007825032230
         H           -6.116561441651    -0.232121523621     0.755311819797     1.007825032230
         H            2.347323558349     1.879605476379     0.720786819797     1.007825032230
         H            2.352573558349    -2.102214523621    -0.911874180203     1.007825032230
         H            4.804533558349     1.854606476379     0.797742819797     1.007825032230
         H            4.847177558349    -2.123661523621    -0.839088180203     1.007825032230
         H            6.080797558349    -0.132988523621     0.023163819797     1.007825032230

  Basis Set: AUG-CC-PVTZ
    Blend: AUG-CC-PVTZ
  Basis Set: (AUG-CC-PVTZ AUX)
    Blend: AUG-CC-PVTZ-JKFIT
	 Reference Energy          =    -613.3711315257461365 [Eh]
	 Singles Energy            =      -0.0000000000000000 [Eh]
	 Same-Spin Energy          =      -0.6725744875106001 [Eh]
	 Opposite-Spin Energy      =      -2.1165561583126240 [Eh]
	 Correlation Energy        =      -2.7891306458232243 [Eh]
	 Total Energy              =    -616.1602621715693431 [Eh]

	 ================> DF-SCS-MP2 Energies <==================
	-----------------------------------------------------------
	 SCS Same-Spin Scale       =       0.3333333333333333 [-]
	 SCS Opposite-Spin Scale   =       1.2000000000000000 [-]
	 SCS Same-Spin Energy      =      -0.2241914958368667 [Eh]
	 SCS Opposite-Spin Energy  =      -2.5398673899751487 [Eh]
	 SCS Correlation Energy    =      -2.7640588858120152 [Eh]
	 SCS Total Energy          =    -616.1351904115581419 [Eh]
	-----------------------------------------------------------

  Dipole Moment: [D]
     X:    -0.9890      Y:     0.7388      Z:     0.4683     Total:     1.3203

*** Psi4 exiting successfully. Buy a developer a beer!
