                               Psi4 1.4a3.dev225

  ==> Input File <==

--------------------------------------------------------------------------
#psi4
#
memory 32 gb

molecule  {
0 1
  O        0.8655410    -0.2383350    -0.1978900
  C       -1.3532420     0.4851090     0.1659470
  C        0.0878979     0.8813981     0.2860110
  C       -4.0760200    -0.2326370    -0.0482320
  C       -1.8292680    -0.6845410     0.7713590
  C       -2.2449120     1.2876570    -0.5496990
  C       -3.1721270    -1.0365930     0.6617200
  C       -3.5922330     0.9350480    -0.6483300
  C        2.2320470    -0.1282220    -0.1046120
  C       -5.5355430    -0.5984480    -0.1257210
  C        2.9140800     0.9938170     0.3783620
  C        2.9472190    -1.2508620    -0.5439590
  C        4.3132210     0.9773220     0.4183570
  C        4.3370840    -1.2508910    -0.4991240
  C        5.0300920    -0.1353830    -0.0155080
  H        0.3103430     1.7730630    -0.2708990
  H        0.3551050     1.0439550     1.3523320
  H       -1.1374380    -1.3254410     1.3139440
  H       -1.8855300     2.1916430    -1.0389860
  H       -3.5267120    -1.9532640     1.1308580
  H       -4.2733370     1.5694920    -1.2133600
  H       -6.0038750    -0.1617940    -1.0122750
  H       -5.6673980    -1.6833350    -0.1714030
  H       -6.0811880    -0.2353180     0.7521400
  H        2.3826970     1.8764090     0.7176150
  H        2.3879470    -2.1054110    -0.9150460
  H        4.8399070     1.8514100     0.7945710
  H        4.8825510    -2.1268580    -0.8422600
  H        6.1161710    -0.1361850     0.0199920
units angstrom
no_reorient  #important for SAPT in psi4, default
symmetry c1  #important for SAPT in psi4, default
}

set PROPERTIES_ORIGIN ["COM"]
properties('MP2/aug-cc-pvtz', properties = ['dipole'])
--------------------------------------------------------------------------

    Molecular point group: c1
  Charge       = 0
  Multiplicity = 1
  Basis Set: AUG-CC-PVTZ
    Blend: AUG-CC-PVTZ
  Basis Set: (AUG-CC-PVTZ AUX)
    Blend: AUG-CC-PVTZ-JKFIT

    Orbital Energies [Eh]
    ---------------------

    Doubly Occupied:

       1A    -20.582800     2A    -11.300326     3A    -11.293326
       4A    -11.244008     5A    -11.240618     6A    -11.239578
       7A    -11.239012     8A    -11.237571     9A    -11.235523
      10A    -11.232498    11A    -11.232408    12A    -11.232338
      13A    -11.227046    14A    -11.226722    15A    -11.225999
      16A     -1.400518    17A     -1.159010    18A     -1.143110
      19A     -1.067332    20A     -1.017246    21A     -1.013551
      22A     -1.007563    23A     -0.964615    24A     -0.899954
      25A     -0.833074    26A     -0.831246    27A     -0.808061
      28A     -0.782970    29A     -0.719771    30A     -0.683353
      31A     -0.671349    32A     -0.661611    33A     -0.643141
      34A     -0.631059    35A     -0.621053    36A     -0.608790
      37A     -0.586309    38A     -0.583788    39A     -0.577113
      40A     -0.562478    41A     -0.543687    42A     -0.530985
      43A     -0.525710    44A     -0.513698    45A     -0.491172
      46A     -0.486306    47A     -0.485342    48A     -0.479234
      49A     -0.464778    50A     -0.339584    51A     -0.336985
      52A     -0.322244    53A     -0.311609

  @DF-RHF Final Energy:  -613.37061353753188

   => Energetics <=

    Nuclear Repulsion Energy =            870.5232103224199136
    One-Electron Energy =               -2559.1893001412013291
    Two-Electron Energy =                1075.2954762812496483
    Total Energy =                       -613.3706135375318809
  Basis Set: (AUG-CC-PVTZ AUX)
    Blend: AUG-CC-PVTZ-RI
    Molecular point group: c1

    Geometry (in Angstrom), charge = 0, multiplicity = 1:

       Center              X                  Y                   Z               Mass
    ------------   -----------------  -----------------  -----------------  -----------------
         O            0.829267614979    -0.236740048351    -0.193930831973    15.994914619570
         C           -1.389515385021     0.486703951649     0.169906168027    12.000000000000
         C            0.051624514979     0.882993051649     0.289970168027    12.000000000000
         C           -4.112293385021    -0.231042048351    -0.044272831973    12.000000000000
         C           -1.865541385021    -0.682946048351     0.775318168027    12.000000000000
         C           -2.281185385021     1.289251951649    -0.545739831973    12.000000000000
         C           -3.208400385021    -1.034998048351     0.665679168027    12.000000000000
         C           -3.628506385021     0.936642951649    -0.644370831973    12.000000000000
         C            2.195773614979    -0.126627048351    -0.100652831973    12.000000000000
         C           -5.571816385021    -0.596853048351    -0.121761831973    12.000000000000
         C            2.877806614979     0.995411951649     0.382321168027    12.000000000000
         C            2.910945614979    -1.249267048351    -0.539999831973    12.000000000000
         C            4.276947614979     0.978916951649     0.422316168027    12.000000000000
         C            4.300810614979    -1.249296048351    -0.495164831973    12.000000000000
         C            4.993818614979    -0.133788048351    -0.011548831973    12.000000000000
         H            0.274069614979     1.774657951649    -0.266939831973     1.007825032230
         H            0.318831614979     1.045549951649     1.356291168027     1.007825032230
         H           -1.173711385021    -1.323846048351     1.317903168027     1.007825032230
         H           -1.921803385021     2.193237951649    -1.035026831973     1.007825032230
         H           -3.562985385021    -1.951669048351     1.134817168027     1.007825032230
         H           -4.309610385021     1.571086951649    -1.209400831973     1.007825032230
         H           -6.040148385021    -0.160199048351    -1.008315831973     1.007825032230
         H           -5.703671385021    -1.681740048351    -0.167443831973     1.007825032230
         H           -6.117461385021    -0.233723048351     0.756099168027     1.007825032230
         H            2.346423614979     1.878003951649     0.721574168027     1.007825032230
         H            2.351673614979    -2.103816048351    -0.911086831973     1.007825032230
         H            4.803633614979     1.853004951649     0.798530168027     1.007825032230
         H            4.846277614979    -2.125263048351    -0.838300831973     1.007825032230
         H            6.079897614979    -0.134590048351     0.023951168027     1.007825032230

  Basis Set: AUG-CC-PVTZ
    Blend: AUG-CC-PVTZ
  Basis Set: (AUG-CC-PVTZ AUX)
    Blend: AUG-CC-PVTZ-JKFIT
	 Reference Energy          =    -613.3706135375318809 [Eh]
	 Singles Energy            =      -0.0000000000000000 [Eh]
	 Same-Spin Energy          =      -0.6726779058202460 [Eh]
	 Opposite-Spin Energy      =      -2.1167373848225521 [Eh]
	 Correlation Energy        =      -2.7894152906427983 [Eh]
	 Total Energy              =    -616.1600288281746316 [Eh]

	 ================> DF-SCS-MP2 Energies <==================
	-----------------------------------------------------------
	 SCS Same-Spin Scale       =       0.3333333333333333 [-]
	 SCS Opposite-Spin Scale   =       1.2000000000000000 [-]
	 SCS Same-Spin Energy      =      -0.2242259686067486 [Eh]
	 SCS Opposite-Spin Energy  =      -2.5400848617870624 [Eh]
	 SCS Correlation Energy    =      -2.7643108303938111 [Eh]
	 SCS Total Energy          =    -616.1349243679256915 [Eh]
	-----------------------------------------------------------

  Dipole Moment: [D]
     X:    -1.0578      Y:     0.7758      Z:     0.4572     Total:     1.3892

*** Psi4 exiting successfully. Buy a developer a beer!
