                               Psi4 1.4a3.dev225

  ==> Input File <==

--------------------------------------------------------------------------
#psi4
#
memory 32 gb

molecule  {
0 1
  O        0.8655410    -0.2383350    -0.1978900
  C       -1.3532420     0.4851090     0.1659470
  C        0.0923410     0.8600100     0.3004220
  C       -4.0760200    -0.2326370    -0.0482320
  C       -1.8292680    -0.6845410     0.7713590
  C       -2.2449120     1.2876570    -0.5496990
  C       -3.1721270    -1.0365930     0.6617200
  C       -3.5922330     0.9350480    -0.6483300
  C        2.2320470    -0.1282220    -0.1046120
  C       -5.5355430    -0.5984480    -0.1257210
  C        2.9140800     0.9938170     0.3783620
  C        2.9472190    -1.2508620    -0.5439590
  C        4.3132210     0.9773220     0.4183570
  C        4.3370840    -1.2508910    -0.4991240
  C        5.0300920    -0.1353830    -0.0155080
  H        0.3103430     1.7730630    -0.2708990
  H        0.3551050     1.0439550     1.3523320
  H       -1.1501553    -1.3136599     1.3039702
  H       -1.8855300     2.1916430    -1.0389860
  H       -3.5267120    -1.9532640     1.1308580
  H       -4.2733370     1.5694920    -1.2133600
  H       -6.0038750    -0.1617940    -1.0122750
  H       -5.6673980    -1.6833350    -0.1714030
  H       -6.0811880    -0.2353180     0.7521400
  H        2.3826970     1.8764090     0.7176150
  H        2.3879470    -2.1054110    -0.9150460
  H        4.8399070     1.8514100     0.7945710
  H        4.8825510    -2.1268580    -0.8422600
  H        6.1161710    -0.1361850     0.0199920
units angstrom
no_reorient  #important for SAPT in psi4, default
symmetry c1  #important for SAPT in psi4, default
}

set PROPERTIES_ORIGIN ["COM"]
properties('MP2/aug-cc-pvtz', properties = ['dipole'])
--------------------------------------------------------------------------

    Molecular point group: c1
  Charge       = 0
  Multiplicity = 1
  Basis Set: AUG-CC-PVTZ
    Blend: AUG-CC-PVTZ
  Basis Set: (AUG-CC-PVTZ AUX)
    Blend: AUG-CC-PVTZ-JKFIT

    Orbital Energies [Eh]
    ---------------------

    Doubly Occupied:

       1A    -20.583943     2A    -11.301035     3A    -11.293171
       4A    -11.243709     5A    -11.240974     6A    -11.239409
       7A    -11.238908     8A    -11.237391     9A    -11.232966
      10A    -11.232964    11A    -11.232190    12A    -11.231655
      13A    -11.227697    14A    -11.227273    15A    -11.225792
      16A     -1.404900    17A     -1.158852    18A     -1.143737
      19A     -1.067024    20A     -1.017746    21A     -1.013828
      22A     -1.008424    23A     -0.964029    24A     -0.899573
      25A     -0.833590    26A     -0.831703    27A     -0.808925
      28A     -0.782976    29A     -0.721173    30A     -0.684391
      31A     -0.670526    32A     -0.663706    33A     -0.644547
      34A     -0.631964    35A     -0.620744    36A     -0.609393
      37A     -0.586791    38A     -0.584763    39A     -0.576913
      40A     -0.563960    41A     -0.543314    42A     -0.531880
      43A     -0.522848    44A     -0.514105    45A     -0.491256
      46A     -0.487358    47A     -0.484988    48A     -0.478800
      49A     -0.464294    50A     -0.339954    51A     -0.336660
      52A     -0.322144    53A     -0.312339

  @DF-RHF Final Energy:  -613.37173922862121

   => Energetics <=

    Nuclear Repulsion Energy =            870.8412103799305441
    One-Electron Energy =               -2559.7995019955783391
    Two-Electron Energy =                1075.5865523870265861
    Total Energy =                       -613.3717392286212089
  Basis Set: (AUG-CC-PVTZ AUX)
    Blend: AUG-CC-PVTZ-RI
    Molecular point group: c1

    Geometry (in Angstrom), charge = 0, multiplicity = 1:

       Center              X                  Y                   Z               Mass
    ------------   -----------------  -----------------  -----------------  -----------------
         O            0.829063175434    -0.235504417885    -0.194753025226    15.994914619570
         C           -1.389719824566     0.487939582115     0.169083974774    12.000000000000
         C            0.055863175434     0.862840582115     0.303558974774    12.000000000000
         C           -4.112497824566    -0.229806417885    -0.045095025226    12.000000000000
         C           -1.865745824566    -0.681710417885     0.774495974774    12.000000000000
         C           -2.281389824566     1.290487582115    -0.546562025226    12.000000000000
         C           -3.208604824566    -1.033762417885     0.664856974774    12.000000000000
         C           -3.628710824566     0.937878582115    -0.645193025226    12.000000000000
         C            2.195569175434    -0.125391417885    -0.101475025226    12.000000000000
         C           -5.572020824566    -0.595617417885    -0.122584025226    12.000000000000
         C            2.877602175434     0.996647582115     0.381498974774    12.000000000000
         C            2.910741175434    -1.248031417885    -0.540822025226    12.000000000000
         C            4.276743175434     0.980152582115     0.421493974774    12.000000000000
         C            4.300606175434    -1.248060417885    -0.495987025226    12.000000000000
         C            4.993614175434    -0.132552417885    -0.012371025226    12.000000000000
         H            0.273865175434     1.775893582115    -0.267762025226     1.007825032230
         H            0.318627175434     1.046785582115     1.355468974774     1.007825032230
         H           -1.186633124566    -1.310829317885     1.307107174774     1.007825032230
         H           -1.922007824566     2.194473582115    -1.035849025226     1.007825032230
         H           -3.563189824566    -1.950433417885     1.133994974774     1.007825032230
         H           -4.309814824566     1.572322582115    -1.210223025226     1.007825032230
         H           -6.040352824566    -0.158963417885    -1.009138025226     1.007825032230
         H           -5.703875824566    -1.680504417885    -0.168266025226     1.007825032230
         H           -6.117665824566    -0.232487417885     0.755276974774     1.007825032230
         H            2.346219175434     1.879239582115     0.720751974774     1.007825032230
         H            2.351469175434    -2.102580417885    -0.911909025226     1.007825032230
         H            4.803429175434     1.854240582115     0.797707974774     1.007825032230
         H            4.846073175434    -2.124027417885    -0.839123025226     1.007825032230
         H            6.079693175434    -0.133354417885     0.023128974774     1.007825032230

  Basis Set: AUG-CC-PVTZ
    Blend: AUG-CC-PVTZ
  Basis Set: (AUG-CC-PVTZ AUX)
    Blend: AUG-CC-PVTZ-JKFIT
	 Reference Energy          =    -613.3717392286212089 [Eh]
	 Singles Energy            =      -0.0000000000000000 [Eh]
	 Same-Spin Energy          =      -0.6726009740149123 [Eh]
	 Opposite-Spin Energy      =      -2.1163645697970583 [Eh]
	 Correlation Energy        =      -2.7889655438119707 [Eh]
	 Total Energy              =    -616.1607047724331778 [Eh]

	 ================> DF-SCS-MP2 Energies <==================
	-----------------------------------------------------------
	 SCS Same-Spin Scale       =       0.3333333333333333 [-]
	 SCS Opposite-Spin Scale   =       1.2000000000000000 [-]
	 SCS Same-Spin Energy      =      -0.2242003246716374 [Eh]
	 SCS Opposite-Spin Energy  =      -2.5396374837564699 [Eh]
	 SCS Correlation Energy    =      -2.7638378084281072 [Eh]
	 SCS Total Energy          =    -616.1355770370493019 [Eh]
	-----------------------------------------------------------

  Dipole Moment: [D]
     X:    -0.9983      Y:     0.7293      Z:     0.4749     Total:     1.3244

*** Psi4 exiting successfully. Buy a developer a beer!
