                               Psi4 1.4a3.dev225

  ==> Input File <==

--------------------------------------------------------------------------
#psi4
#
memory 32 gb

molecule  {
0 1
  O        0.8655410    -0.2383350    -0.1978900
  C       -1.3532420     0.4851090     0.1659470
  C        0.0923410     0.8600100     0.3004220
  C       -4.0760200    -0.2326370    -0.0482320
  C       -1.8292680    -0.6845410     0.7713590
  C       -2.2449120     1.2876570    -0.5496990
  C       -3.1721270    -1.0365930     0.6617200
  C       -3.5922330     0.9350480    -0.6483300
  C        2.2320470    -0.1282220    -0.1046120
  C       -5.5355430    -0.5984480    -0.1257210
  C        2.9140800     0.9938170     0.3783620
  C        2.9472190    -1.2508620    -0.5439590
  C        4.3132210     0.9773220     0.4183570
  C        4.3370840    -1.2508910    -0.4991240
  C        5.0043595    -0.0954418     0.0000658
  H        0.3103430     1.7730630    -0.2708990
  H        0.3551050     1.0439550     1.3523320
  H       -1.1374380    -1.3254410     1.3139440
  H       -1.8855300     2.1916430    -1.0389860
  H       -3.5267120    -1.9532640     1.1308580
  H       -4.2733370     1.5694920    -1.2133600
  H       -6.0038750    -0.1617940    -1.0122750
  H       -5.6673980    -1.6833350    -0.1714030
  H       -6.0811880    -0.2353180     0.7521400
  H        2.3826970     1.8764090     0.7176150
  H        2.3879470    -2.1054110    -0.9150460
  H        4.8399070     1.8514100     0.7945710
  H        4.8825510    -2.1268580    -0.8422600
  H        6.1161710    -0.1361850     0.0199920
units angstrom
no_reorient  #important for SAPT in psi4, default
symmetry c1  #important for SAPT in psi4, default
}

set PROPERTIES_ORIGIN ["COM"]
properties('MP2/aug-cc-pvtz', properties = ['dipole'])
--------------------------------------------------------------------------

    Molecular point group: c1
  Charge       = 0
  Multiplicity = 1
  Basis Set: AUG-CC-PVTZ
    Blend: AUG-CC-PVTZ
  Basis Set: (AUG-CC-PVTZ AUX)
    Blend: AUG-CC-PVTZ-JKFIT

    Orbital Energies [Eh]
    ---------------------

    Doubly Occupied:

       1A    -20.583778     2A    -11.300587     3A    -11.292880
       4A    -11.243742     5A    -11.242147     6A    -11.238968
       7A    -11.237424     8A    -11.234852     9A    -11.234320
      10A    -11.232172    11A    -11.232015    12A    -11.231513
      13A    -11.228849    14A    -11.226407    15A    -11.225808
      16A     -1.404654    17A     -1.159028    18A     -1.146341
      19A     -1.067304    20A     -1.021338    21A     -1.013147
      22A     -1.005842    23A     -0.964826    24A     -0.900086
      25A     -0.832522    26A     -0.831799    27A     -0.807531
      28A     -0.782612    29A     -0.721561    30A     -0.684142
      31A     -0.670068    32A     -0.659565    33A     -0.644494
      34A     -0.631161    35A     -0.620416    36A     -0.610711
      37A     -0.589156    38A     -0.583460    39A     -0.576916
      40A     -0.564399    41A     -0.543339    42A     -0.530171
      43A     -0.523851    44A     -0.509366    45A     -0.490579
      46A     -0.486706    47A     -0.485423    48A     -0.478610
      49A     -0.465636    50A     -0.340156    51A     -0.336676
      52A     -0.322076    53A     -0.314351

  @DF-RHF Final Energy:  -613.36867700430423

   => Energetics <=

    Nuclear Repulsion Energy =            871.2980106820438095
    One-Electron Energy =               -2560.7224040930341289
    Two-Electron Energy =                1076.0557164066863152
    Total Energy =                       -613.3686770043041179
  Basis Set: (AUG-CC-PVTZ AUX)
    Blend: AUG-CC-PVTZ-RI
    Molecular point group: c1

    Geometry (in Angstrom), charge = 0, multiplicity = 1:

       Center              X                  Y                   Z               Mass
    ------------   -----------------  -----------------  -----------------  -----------------
         O            0.830557201258    -0.237863885716    -0.195747134295    15.994914619570
         C           -1.388225798742     0.485580114284     0.168089865705    12.000000000000
         C            0.057357201258     0.860481114284     0.302564865705    12.000000000000
         C           -4.111003798742    -0.232165885716    -0.046089134295    12.000000000000
         C           -1.864251798742    -0.684069885716     0.773501865705    12.000000000000
         C           -2.279895798742     1.288128114284    -0.547556134295    12.000000000000
         C           -3.207110798742    -1.036121885716     0.663862865705    12.000000000000
         C           -3.627216798742     0.935519114284    -0.646187134295    12.000000000000
         C            2.197063201258    -0.127750885716    -0.102469134295    12.000000000000
         C           -5.570526798742    -0.597976885716    -0.123578134295    12.000000000000
         C            2.879096201258     0.994288114284     0.380504865705    12.000000000000
         C            2.912235201258    -1.250390885716    -0.541816134295    12.000000000000
         C            4.278237201258     0.977793114284     0.420499865705    12.000000000000
         C            4.302100201258    -1.250419885716    -0.496981134295    12.000000000000
         C            4.969375701258    -0.094970685716     0.002208665705    12.000000000000
         H            0.275359201258     1.773534114284    -0.268756134295     1.007825032230
         H            0.320121201258     1.044426114284     1.354474865705     1.007825032230
         H           -1.172421798742    -1.324969885716     1.316086865705     1.007825032230
         H           -1.920513798742     2.192114114284    -1.036843134295     1.007825032230
         H           -3.561695798742    -1.952792885716     1.133000865705     1.007825032230
         H           -4.308320798742     1.569963114284    -1.211217134295     1.007825032230
         H           -6.038858798742    -0.161322885716    -1.010132134295     1.007825032230
         H           -5.702381798742    -1.682863885716    -0.169260134295     1.007825032230
         H           -6.116171798742    -0.234846885716     0.754282865705     1.007825032230
         H            2.347713201258     1.876880114284     0.719757865705     1.007825032230
         H            2.352963201258    -2.104939885716    -0.912903134295     1.007825032230
         H            4.804923201258     1.851881114284     0.796713865705     1.007825032230
         H            4.847567201258    -2.126386885716    -0.840117134295     1.007825032230
         H            6.081187201258    -0.135713885716     0.022134865705     1.007825032230

  Basis Set: AUG-CC-PVTZ
    Blend: AUG-CC-PVTZ
  Basis Set: (AUG-CC-PVTZ AUX)
    Blend: AUG-CC-PVTZ-JKFIT
	 Reference Energy          =    -613.3686770043042316 [Eh]
	 Singles Energy            =      -0.0000000000000000 [Eh]
	 Same-Spin Energy          =      -0.6725284175282870 [Eh]
	 Opposite-Spin Energy      =      -2.1164857685194689 [Eh]
	 Correlation Energy        =      -2.7890141860477558 [Eh]
	 Total Energy              =    -616.1576911903520113 [Eh]

	 ================> DF-SCS-MP2 Energies <==================
	-----------------------------------------------------------
	 SCS Same-Spin Scale       =       0.3333333333333333 [-]
	 SCS Opposite-Spin Scale   =       1.2000000000000000 [-]
	 SCS Same-Spin Energy      =      -0.2241761391760956 [Eh]
	 SCS Opposite-Spin Energy  =      -2.5397829222233628 [Eh]
	 SCS Correlation Energy    =      -2.7639590613994582 [Eh]
	 SCS Total Energy          =    -616.1326360657036503 [Eh]
	-----------------------------------------------------------

  Dipole Moment: [D]
     X:    -0.9976      Y:     0.7004      Z:     0.4581     Total:     1.3021

*** Psi4 exiting successfully. Buy a developer a beer!
