                               Psi4 1.4a3.dev225

  ==> Input File <==

--------------------------------------------------------------------------
#psi4
#
memory 32 gb

molecule  {
0 1
  O        0.8655410    -0.2383350    -0.1978900
  C       -1.3532420     0.4851090     0.1659470
  C        0.0878623     0.8814848     0.2861516
  C       -4.0760200    -0.2326370    -0.0482320
  C       -1.8292680    -0.6845410     0.7713590
  C       -2.2449120     1.2876570    -0.5496990
  C       -3.1721270    -1.0365930     0.6617200
  C       -3.5922330     0.9350480    -0.6483300
  C        2.2320470    -0.1282220    -0.1046120
  C       -5.5355430    -0.5984480    -0.1257210
  C        2.9140800     0.9938170     0.3783620
  C        2.9472190    -1.2508620    -0.5439590
  C        4.3132210     0.9773220     0.4183570
  C        4.3370840    -1.2508910    -0.4991240
  C        5.0300920    -0.1353830    -0.0155080
  H        0.3103430     1.7730630    -0.2708990
  H        0.3551050     1.0439550     1.3523320
  H       -1.1374380    -1.3254410     1.3139440
  H       -1.8855300     2.1916430    -1.0389860
  H       -3.5267120    -1.9532640     1.1308580
  H       -4.2733370     1.5694920    -1.2133600
  H       -6.0038750    -0.1617940    -1.0122750
  H       -5.6673980    -1.6833350    -0.1714030
  H       -6.0811880    -0.2353180     0.7521400
  H        2.3826970     1.8764090     0.7176150
  H        2.3879470    -2.1054110    -0.9150460
  H        4.8399070     1.8514100     0.7945710
  H        4.8825510    -2.1268580    -0.8422600
  H        6.1161710    -0.1361850     0.0199920
units angstrom
no_reorient  #important for SAPT in psi4, default
symmetry c1  #important for SAPT in psi4, default
}

set PROPERTIES_ORIGIN ["COM"]
properties('MP2/aug-cc-pvtz', properties = ['dipole'])
--------------------------------------------------------------------------

    Molecular point group: c1
  Charge       = 0
  Multiplicity = 1
  Basis Set: AUG-CC-PVTZ
    Blend: AUG-CC-PVTZ
  Basis Set: (AUG-CC-PVTZ AUX)
    Blend: AUG-CC-PVTZ-JKFIT

    Orbital Energies [Eh]
    ---------------------

    Doubly Occupied:

       1A    -20.582789     2A    -11.300319     3A    -11.293325
       4A    -11.244011     5A    -11.240614     6A    -11.239582
       7A    -11.239008     8A    -11.237575     9A    -11.235525
      10A    -11.232500    11A    -11.232403    12A    -11.232340
      13A    -11.227040    14A    -11.226717    15A    -11.226001
      16A     -1.400477    17A     -1.159011    18A     -1.143104
      19A     -1.067335    20A     -1.017241    21A     -1.013553
      22A     -1.007555    23A     -0.964620    24A     -0.899957
      25A     -0.833075    26A     -0.831242    27A     -0.808055
      28A     -0.782975    29A     -0.719757    30A     -0.683346
      31A     -0.671348    32A     -0.661606    33A     -0.643138
      34A     -0.631061    35A     -0.621048    36A     -0.608785
      37A     -0.586305    38A     -0.583790    39A     -0.577115
      40A     -0.562464    41A     -0.543691    42A     -0.530987
      43A     -0.525721    44A     -0.513694    45A     -0.491173
      46A     -0.486307    47A     -0.485339    48A     -0.479233
      49A     -0.464790    50A     -0.339580    51A     -0.336987
      52A     -0.322248    53A     -0.311602

  @DF-RHF Final Energy:  -613.37061179807517

   => Energetics <=

    Nuclear Repulsion Energy =            870.5212308753210664
    One-Electron Energy =               -2559.1855527085144786
    Two-Electron Energy =                1075.2937100351182380
    Total Energy =                       -613.3706117980750605
  Basis Set: (AUG-CC-PVTZ AUX)
    Blend: AUG-CC-PVTZ-RI
    Molecular point group: c1

    Geometry (in Angstrom), charge = 0, multiplicity = 1:

       Center              X                  Y                   Z               Mass
    ------------   -----------------  -----------------  -----------------  -----------------
         O            0.829269771417    -0.236745300125    -0.193939348691    15.994914619570
         C           -1.389513228583     0.486698699875     0.169897651309    12.000000000000
         C            0.051591071417     0.883074499875     0.290102251309    12.000000000000
         C           -4.112291228583    -0.231047300125    -0.044281348691    12.000000000000
         C           -1.865539228583    -0.682951300125     0.775309651309    12.000000000000
         C           -2.281183228583     1.289246699875    -0.545748348691    12.000000000000
         C           -3.208398228583    -1.035003300125     0.665670651309    12.000000000000
         C           -3.628504228583     0.936637699875    -0.644379348691    12.000000000000
         C            2.195775771417    -0.126632300125    -0.100661348691    12.000000000000
         C           -5.571814228583    -0.596858300125    -0.121770348691    12.000000000000
         C            2.877808771417     0.995406699875     0.382312651309    12.000000000000
         C            2.910947771417    -1.249272300125    -0.540008348691    12.000000000000
         C            4.276949771417     0.978911699875     0.422307651309    12.000000000000
         C            4.300812771417    -1.249301300125    -0.495173348691    12.000000000000
         C            4.993820771417    -0.133793300125    -0.011557348691    12.000000000000
         H            0.274071771417     1.774652699875    -0.266948348691     1.007825032230
         H            0.318833771417     1.045544699875     1.356282651309     1.007825032230
         H           -1.173709228583    -1.323851300125     1.317894651309     1.007825032230
         H           -1.921801228583     2.193232699875    -1.035035348691     1.007825032230
         H           -3.562983228583    -1.951674300125     1.134808651309     1.007825032230
         H           -4.309608228583     1.571081699875    -1.209409348691     1.007825032230
         H           -6.040146228583    -0.160204300125    -1.008324348691     1.007825032230
         H           -5.703669228583    -1.681745300125    -0.167452348691     1.007825032230
         H           -6.117459228583    -0.233728300125     0.756090651309     1.007825032230
         H            2.346425771417     1.877998699875     0.721565651309     1.007825032230
         H            2.351675771417    -2.103821300125    -0.911095348691     1.007825032230
         H            4.803635771417     1.852999699875     0.798521651309     1.007825032230
         H            4.846279771417    -2.125268300125    -0.838309348691     1.007825032230
         H            6.079899771417    -0.134595300125     0.023942651309     1.007825032230

  Basis Set: AUG-CC-PVTZ
    Blend: AUG-CC-PVTZ
  Basis Set: (AUG-CC-PVTZ AUX)
    Blend: AUG-CC-PVTZ-JKFIT
	 Reference Energy          =    -613.3706117980751742 [Eh]
	 Singles Energy            =      -0.0000000000000000 [Eh]
	 Same-Spin Energy          =      -0.6726781280911507 [Eh]
	 Opposite-Spin Energy      =      -2.1167394247443401 [Eh]
	 Correlation Energy        =      -2.7894175528354905 [Eh]
	 Total Energy              =    -616.1600293509106905 [Eh]

	 ================> DF-SCS-MP2 Energies <==================
	-----------------------------------------------------------
	 SCS Same-Spin Scale       =       0.3333333333333333 [-]
	 SCS Opposite-Spin Scale   =       1.2000000000000000 [-]
	 SCS Same-Spin Energy      =      -0.2242260426970502 [Eh]
	 SCS Opposite-Spin Energy  =      -2.5400873096932082 [Eh]
	 SCS Correlation Energy    =      -2.7643133523902583 [Eh]
	 SCS Total Energy          =    -616.1349251504653921 [Eh]
	-----------------------------------------------------------

  Dipole Moment: [D]
     X:    -1.0584      Y:     0.7761      Z:     0.4575     Total:     1.3899

*** Psi4 exiting successfully. Buy a developer a beer!
