                               Psi4 1.4a3.dev225

  ==> Input File <==

--------------------------------------------------------------------------
#psi4
#
memory 32 gb

molecule  {
0 1
  O        0.8655410    -0.2383350    -0.1978900
  C       -1.3532420     0.4851090     0.1659470
  C        0.0923410     0.8600100     0.3004220
  C       -4.0760200    -0.2326370    -0.0482320
  C       -1.8292680    -0.6845410     0.7713590
  C       -2.2449120     1.2876570    -0.5496990
  C       -3.1721270    -1.0365930     0.6617200
  C       -3.5922330     0.9350480    -0.6483300
  C        2.2320470    -0.1282220    -0.1046120
  C       -5.5355430    -0.5984480    -0.1257210
  C        2.9140800     0.9938170     0.3783620
  C        2.9472190    -1.2508620    -0.5439590
  C        4.3132210     0.9773220     0.4183570
  C        4.3370840    -1.2508910    -0.4991240
  C        5.0300920    -0.1353830    -0.0155080
  H        0.3103430     1.7730630    -0.2708990
  H        0.3551050     1.0439550     1.3523320
  H       -1.1374380    -1.3254410     1.3139440
  H       -1.8855300     2.1916430    -1.0389860
  H       -3.5267120    -1.9532640     1.1308580
  H       -4.2733370     1.5694920    -1.2133600
  H       -6.0124399    -0.1538084    -1.0284884
  H       -5.6673980    -1.6833350    -0.1714030
  H       -6.0811880    -0.2353180     0.7521400
  H        2.3826970     1.8764090     0.7176150
  H        2.3879470    -2.1054110    -0.9150460
  H        4.8399070     1.8514100     0.7945710
  H        4.8825510    -2.1268580    -0.8422600
  H        6.1161710    -0.1361850     0.0199920
units angstrom
no_reorient  #important for SAPT in psi4, default
symmetry c1  #important for SAPT in psi4, default
}

set PROPERTIES_ORIGIN ["COM"]
properties('MP2/aug-cc-pvtz', properties = ['dipole'])
--------------------------------------------------------------------------

    Molecular point group: c1
  Charge       = 0
  Multiplicity = 1
  Basis Set: AUG-CC-PVTZ
    Blend: AUG-CC-PVTZ
  Basis Set: (AUG-CC-PVTZ AUX)
    Blend: AUG-CC-PVTZ-JKFIT

    Orbital Energies [Eh]
    ---------------------

    Doubly Occupied:

       1A    -20.583930     2A    -11.301039     3A    -11.293218
       4A    -11.244010     5A    -11.240978     6A    -11.239413
       7A    -11.239171     8A    -11.237591     9A    -11.235043
      10A    -11.232967    11A    -11.232311    12A    -11.232239
      13A    -11.228283    14A    -11.227699    15A    -11.227275
      16A     -1.404892    17A     -1.158879    18A     -1.143749
      19A     -1.066857    20A     -1.017719    21A     -1.013477
      22A     -1.008170    23A     -0.963439    24A     -0.898826
      25A     -0.833038    26A     -0.831330    27A     -0.808924
      28A     -0.782290    29A     -0.721177    30A     -0.683887
      31A     -0.670470    32A     -0.663701    33A     -0.643697
      34A     -0.631088    35A     -0.620178    36A     -0.609342
      37A     -0.586793    38A     -0.583588    39A     -0.576687
      40A     -0.563946    41A     -0.541199    42A     -0.531711
      43A     -0.522646    44A     -0.513942    45A     -0.491374
      46A     -0.486450    47A     -0.485072    48A     -0.478881
      49A     -0.464250    50A     -0.339961    51A     -0.336816
      52A     -0.322301    53A     -0.312339

  @DF-RHF Final Energy:  -613.37105592934677

   => Energetics <=

    Nuclear Repulsion Energy =            870.6587237934992345
    One-Electron Energy =               -2559.4430539741938446
    Two-Electron Energy =                1075.4132742513479570
    Total Energy =                       -613.3710559293467668
  Basis Set: (AUG-CC-PVTZ AUX)
    Blend: AUG-CC-PVTZ-RI
    Molecular point group: c1

    Geometry (in Angstrom), charge = 0, multiplicity = 1:

       Center              X                  Y                   Z               Mass
    ------------   -----------------  -----------------  -----------------  -----------------
         O            0.829042050758    -0.235485108881    -0.194721282251    15.994914619570
         C           -1.389740949242     0.487958891119     0.169115717749    12.000000000000
         C            0.055842050758     0.862859891119     0.303590717749    12.000000000000
         C           -4.112518949242    -0.229787108881    -0.045063282251    12.000000000000
         C           -1.865766949242    -0.681691108881     0.774527717749    12.000000000000
         C           -2.281410949242     1.290506891119    -0.546530282251    12.000000000000
         C           -3.208625949242    -1.033743108881     0.664888717749    12.000000000000
         C           -3.628731949242     0.937897891119    -0.645161282251    12.000000000000
         C            2.195548050758    -0.125372108881    -0.101443282251    12.000000000000
         C           -5.572041949242    -0.595598108881    -0.122552282251    12.000000000000
         C            2.877581050758     0.996666891119     0.381530717749    12.000000000000
         C            2.910720050758    -1.248012108881    -0.540790282251    12.000000000000
         C            4.276722050758     0.980171891119     0.421525717749    12.000000000000
         C            4.300585050758    -1.248041108881    -0.495955282251    12.000000000000
         C            4.993593050758    -0.132533108881    -0.012339282251    12.000000000000
         H            0.273844050758     1.775912891119    -0.267730282251     1.007825032230
         H            0.318606050758     1.046804891119     1.355500717749     1.007825032230
         H           -1.173936949242    -1.322591108881     1.317112717749     1.007825032230
         H           -1.922028949242     2.194492891119    -1.035817282251     1.007825032230
         H           -3.563210949242    -1.950414108881     1.134026717749     1.007825032230
         H           -4.309835949242     1.572341891119    -1.210191282251     1.007825032230
         H           -6.048938849242    -0.150958508881    -1.025319682251     1.007825032230
         H           -5.703896949242    -1.680485108881    -0.168234282251     1.007825032230
         H           -6.117686949242    -0.232468108881     0.755308717749     1.007825032230
         H            2.346198050758     1.879258891119     0.720783717749     1.007825032230
         H            2.351448050758    -2.102561108881    -0.911877282251     1.007825032230
         H            4.803408050758     1.854259891119     0.797739717749     1.007825032230
         H            4.846052050758    -2.124008108881    -0.839091282251     1.007825032230
         H            6.079672050758    -0.133335108881     0.023160717749     1.007825032230

  Basis Set: AUG-CC-PVTZ
    Blend: AUG-CC-PVTZ
  Basis Set: (AUG-CC-PVTZ AUX)
    Blend: AUG-CC-PVTZ-JKFIT
	 Reference Energy          =    -613.3710559293467668 [Eh]
	 Singles Energy            =      -0.0000000000000000 [Eh]
	 Same-Spin Energy          =      -0.6726547524962008 [Eh]
	 Opposite-Spin Energy      =      -2.1166575484865637 [Eh]
	 Correlation Energy        =      -2.7893123009827647 [Eh]
	 Total Energy              =    -616.1603682303294818 [Eh]

	 ================> DF-SCS-MP2 Energies <==================
	-----------------------------------------------------------
	 SCS Same-Spin Scale       =       0.3333333333333333 [-]
	 SCS Opposite-Spin Scale   =       1.2000000000000000 [-]
	 SCS Same-Spin Energy      =      -0.2242182508320669 [Eh]
	 SCS Opposite-Spin Energy  =      -2.5399890581838762 [Eh]
	 SCS Correlation Energy    =      -2.7642073090159429 [Eh]
	 SCS Total Energy          =    -616.1352632383626542 [Eh]
	-----------------------------------------------------------

  Dipole Moment: [D]
     X:    -0.9925      Y:     0.7296      Z:     0.4786     Total:     1.3215

*** Psi4 exiting successfully. Buy a developer a beer!
