                               Psi4 1.4a3.dev225

  ==> Input File <==

--------------------------------------------------------------------------
#psi4
#
memory 32 gb

molecule  {
0 1
  O        0.8655410    -0.2383350    -0.1978900
  C       -1.3532420     0.4851090     0.1659470
  C        0.0923410     0.8600100     0.3004220
  C       -4.0760200    -0.2326370    -0.0482320
  C       -1.8292680    -0.6845410     0.7713590
  C       -2.2449120     1.2876570    -0.5496990
  C       -3.1721270    -1.0365930     0.6617200
  C       -3.5922330     0.9350480    -0.6483300
  C        2.2320470    -0.1282220    -0.1046120
  C       -5.5355430    -0.5984480    -0.1257210
  C        2.9140800     0.9938170     0.3783620
  C        2.9472190    -1.2508620    -0.5439590
  C        4.3132210     0.9773220     0.4183570
  C        4.3370840    -1.2508910    -0.4991240
  C        5.0300920    -0.1353830    -0.0155080
  H        0.3103430     1.7730630    -0.2708990
  H        0.3551050     1.0439550     1.3523320
  H       -1.1374380    -1.3254410     1.3139440
  H       -1.8855300     2.1916430    -1.0389860
  H       -3.5267120    -1.9532640     1.1308580
  H       -4.2733370     1.5694920    -1.2133600
  H       -6.0038750    -0.1617940    -1.0122750
  H       -5.6673980    -1.6833350    -0.1714030
  H       -6.0811880    -0.2353180     0.7521400
  H        2.3924954     1.8601345     0.7113594
  H        2.3879470    -2.1054110    -0.9150460
  H        4.8399070     1.8514100     0.7945710
  H        4.8825510    -2.1268580    -0.8422600
  H        6.1161710    -0.1361850     0.0199920
units angstrom
no_reorient  #important for SAPT in psi4, default
symmetry c1  #important for SAPT in psi4, default
}

set PROPERTIES_ORIGIN ["COM"]
properties('MP2/aug-cc-pvtz', properties = ['dipole'])
--------------------------------------------------------------------------

    Molecular point group: c1
  Charge       = 0
  Multiplicity = 1
  Basis Set: AUG-CC-PVTZ
    Blend: AUG-CC-PVTZ
  Basis Set: (AUG-CC-PVTZ AUX)
    Blend: AUG-CC-PVTZ-JKFIT

    Orbital Energies [Eh]
    ---------------------

    Doubly Occupied:

       1A    -20.583884     2A    -11.300820     3A    -11.293262
       4A    -11.243865     5A    -11.240778     6A    -11.239321
       7A    -11.239151     8A    -11.237586     9A    -11.234993
      10A    -11.232285    11A    -11.232124    12A    -11.230622
      13A    -11.227527    14A    -11.227118    15A    -11.225888
      16A     -1.404859    17A     -1.158862    18A     -1.143728
      19A     -1.067041    20A     -1.018145    21A     -1.013455
      22A     -1.008490    23A     -0.964122    24A     -0.899641
      25A     -0.833054    26A     -0.831868    27A     -0.809230
      28A     -0.782550    29A     -0.721730    30A     -0.684118
      31A     -0.670704    32A     -0.664708    33A     -0.643883
      34A     -0.631271    35A     -0.620579    36A     -0.610096
      37A     -0.587380    38A     -0.583580    39A     -0.577014
      40A     -0.564250    41A     -0.543340    42A     -0.531786
      43A     -0.522871    44A     -0.514276    45A     -0.491421
      46A     -0.486623    47A     -0.485113    48A     -0.479248
      49A     -0.464182    50A     -0.339851    51A     -0.336775
      52A     -0.322281    53A     -0.312206

  @DF-RHF Final Energy:  -613.37174649602127

   => Energetics <=

    Nuclear Repulsion Energy =            870.8399855491693415
    One-Electron Energy =               -2559.7963553635618155
    Two-Electron Energy =                1075.5846233183713139
    Total Energy =                       -613.3717464960211601
  Basis Set: (AUG-CC-PVTZ AUX)
    Blend: AUG-CC-PVTZ-RI
    Molecular point group: c1

    Geometry (in Angstrom), charge = 0, multiplicity = 1:

       Center              X                  Y                   Z               Mass
    ------------   -----------------  -----------------  -----------------  -----------------
         O            0.828948630383    -0.235361689471    -0.194771940979    15.994914619570
         C           -1.389834369617     0.488082310529     0.169065059021    12.000000000000
         C            0.055748630383     0.862983310529     0.303540059021    12.000000000000
         C           -4.112612369617    -0.229663689471    -0.045113940979    12.000000000000
         C           -1.865860369617    -0.681567689471     0.774477059021    12.000000000000
         C           -2.281504369617     1.290630310529    -0.546580940979    12.000000000000
         C           -3.208719369617    -1.033619689471     0.664838059021    12.000000000000
         C           -3.628825369617     0.938021310529    -0.645211940979    12.000000000000
         C            2.195454630383    -0.125248689471    -0.101493940979    12.000000000000
         C           -5.572135369617    -0.595474689471    -0.122602940979    12.000000000000
         C            2.877487630383     0.996790310529     0.381480059021    12.000000000000
         C            2.910626630383    -1.247888689471    -0.540840940979    12.000000000000
         C            4.276628630383     0.980295310529     0.421475059021    12.000000000000
         C            4.300491630383    -1.247917689471    -0.496005940979    12.000000000000
         C            4.993499630383    -0.132409689471    -0.012389940979    12.000000000000
         H            0.273750630383     1.776036310529    -0.267780940979     1.007825032230
         H            0.318512630383     1.046928310529     1.355450059021     1.007825032230
         H           -1.174030369617    -1.322467689471     1.317062059021     1.007825032230
         H           -1.922122369617     2.194616310529    -1.035867940979     1.007825032230
         H           -3.563304369617    -1.950290689471     1.133976059021     1.007825032230
         H           -4.309929369617     1.572465310529    -1.210241940979     1.007825032230
         H           -6.040467369617    -0.158820689471    -1.009156940979     1.007825032230
         H           -5.703990369617    -1.680361689471    -0.168284940979     1.007825032230
         H           -6.117780369617    -0.232344689471     0.755258059021     1.007825032230
         H            2.355903030383     1.863107810529     0.714477459021     1.007825032230
         H            2.351354630383    -2.102437689471    -0.911927940979     1.007825032230
         H            4.803314630383     1.854383310529     0.797689059021     1.007825032230
         H            4.845958630383    -2.123884689471    -0.839141940979     1.007825032230
         H            6.079578630383    -0.133211689471     0.023110059021     1.007825032230

  Basis Set: AUG-CC-PVTZ
    Blend: AUG-CC-PVTZ
  Basis Set: (AUG-CC-PVTZ AUX)
    Blend: AUG-CC-PVTZ-JKFIT
	 Reference Energy          =    -613.3717464960212737 [Eh]
	 Singles Energy            =      -0.0000000000000000 [Eh]
	 Same-Spin Energy          =      -0.6725909127267523 [Eh]
	 Opposite-Spin Energy      =      -2.1163668782413700 [Eh]
	 Correlation Energy        =      -2.7889577909681225 [Eh]
	 Total Energy              =    -616.1607042869893576 [Eh]

	 ================> DF-SCS-MP2 Energies <==================
	-----------------------------------------------------------
	 SCS Same-Spin Scale       =       0.3333333333333333 [-]
	 SCS Opposite-Spin Scale   =       1.2000000000000000 [-]
	 SCS Same-Spin Energy      =      -0.2241969709089174 [Eh]
	 SCS Opposite-Spin Energy  =      -2.5396402538896439 [Eh]
	 SCS Correlation Energy    =      -2.7638372247985612 [Eh]
	 SCS Total Energy          =    -616.1355837208197954 [Eh]
	-----------------------------------------------------------

  Dipole Moment: [D]
     X:    -1.0082      Y:     0.7347      Z:     0.4725     Total:     1.3340

*** Psi4 exiting successfully. Buy a developer a beer!
