                               Psi4 1.4a3.dev225

  ==> Input File <==

--------------------------------------------------------------------------
#psi4
#
memory 32 gb

molecule  {
0 1
  O        0.8655410    -0.2383350    -0.1978900
  C       -1.3532420     0.4851090     0.1659470
  C        0.0923410     0.8600100     0.3004220
  C       -4.0760200    -0.2326370    -0.0482320
  C       -1.8292680    -0.6845410     0.7713590
  C       -2.2449120     1.2876570    -0.5496990
  C       -3.1721270    -1.0365930     0.6617200
  C       -3.6404831     0.9224204    -0.6518622
  C        2.2320470    -0.1282220    -0.1046120
  C       -5.5355430    -0.5984480    -0.1257210
  C        2.9140800     0.9938170     0.3783620
  C        2.9472190    -1.2508620    -0.5439590
  C        4.3132210     0.9773220     0.4183570
  C        4.3370840    -1.2508910    -0.4991240
  C        5.0300920    -0.1353830    -0.0155080
  H        0.3103430     1.7730630    -0.2708990
  H        0.3551050     1.0439550     1.3523320
  H       -1.1374380    -1.3254410     1.3139440
  H       -1.8855300     2.1916430    -1.0389860
  H       -3.5267120    -1.9532640     1.1308580
  H       -4.2733370     1.5694920    -1.2133600
  H       -6.0038750    -0.1617940    -1.0122750
  H       -5.6673980    -1.6833350    -0.1714030
  H       -6.0811880    -0.2353180     0.7521400
  H        2.3826970     1.8764090     0.7176150
  H        2.3879470    -2.1054110    -0.9150460
  H        4.8399070     1.8514100     0.7945710
  H        4.8825510    -2.1268580    -0.8422600
  H        6.1161710    -0.1361850     0.0199920
units angstrom
no_reorient  #important for SAPT in psi4, default
symmetry c1  #important for SAPT in psi4, default
}

set PROPERTIES_ORIGIN ["COM"]
properties('MP2/aug-cc-pvtz', properties = ['dipole'])
--------------------------------------------------------------------------

    Molecular point group: c1
  Charge       = 0
  Multiplicity = 1
  Basis Set: AUG-CC-PVTZ
    Blend: AUG-CC-PVTZ
  Basis Set: (AUG-CC-PVTZ AUX)
    Blend: AUG-CC-PVTZ-JKFIT

    Orbital Energies [Eh]
    ---------------------

    Doubly Occupied:

       1A    -20.584124     2A    -11.301191     3A    -11.293458
       4A    -11.242889     5A    -11.241306     6A    -11.241072
       7A    -11.239504     8A    -11.239194     9A    -11.235859
      10A    -11.233082    11A    -11.232815    12A    -11.232396
      13A    -11.227806    14A    -11.227373    15A    -11.224295
      16A     -1.405098    17A     -1.157599    18A     -1.143726
      19A     -1.069306    20A     -1.017876    21A     -1.009517
      22A     -1.007608    23A     -0.962271    24A     -0.900278
      25A     -0.836808    26A     -0.831551    27A     -0.808893
      28A     -0.781277    29A     -0.721288    30A     -0.683687
      31A     -0.669703    32A     -0.663830    33A     -0.643561
      34A     -0.635572    35A     -0.619580    36A     -0.610679
      37A     -0.586915    38A     -0.582619    39A     -0.576678
      40A     -0.564633    41A     -0.542701    42A     -0.531765
      43A     -0.522207    44A     -0.514128    45A     -0.493622
      46A     -0.488260    47A     -0.482298    48A     -0.476730
      49A     -0.464237    50A     -0.340090    51A     -0.331842
      52A     -0.326516    53A     -0.312458

  @DF-RHF Final Energy:  -613.36867481672800

   => Energetics <=

    Nuclear Repulsion Energy =            870.2892269517135446
    One-Electron Energy =               -2558.6882604378070027
    Two-Electron Energy =                1075.0303586693653415
    Total Energy =                       -613.3686748167281166
  Basis Set: (AUG-CC-PVTZ AUX)
    Blend: AUG-CC-PVTZ-RI
    Molecular point group: c1

    Geometry (in Angstrom), charge = 0, multiplicity = 1:

       Center              X                  Y                   Z               Mass
    ------------   -----------------  -----------------  -----------------  -----------------
         O            0.831921184649    -0.234679577882    -0.194589805509    15.994914619570
         C           -1.386861815351     0.488764422118     0.169247194491    12.000000000000
         C            0.058721184649     0.863665422118     0.303722194491    12.000000000000
         C           -4.109639815351    -0.228981577882    -0.044931805509    12.000000000000
         C           -1.862887815351    -0.680885577882     0.774659194491    12.000000000000
         C           -2.278531815351     1.291312422118    -0.546398805509    12.000000000000
         C           -3.205746815351    -1.032937577882     0.665020194491    12.000000000000
         C           -3.674102915351     0.926075822118    -0.648562005509    12.000000000000
         C            2.198427184649    -0.124566577882    -0.101311805509    12.000000000000
         C           -5.569162815351    -0.594792577882    -0.122420805509    12.000000000000
         C            2.880460184649     0.997472422118     0.381662194491    12.000000000000
         C            2.913599184649    -1.247206577882    -0.540658805509    12.000000000000
         C            4.279601184649     0.980977422118     0.421657194491    12.000000000000
         C            4.303464184649    -1.247235577882    -0.495823805509    12.000000000000
         C            4.996472184649    -0.131727577882    -0.012207805509    12.000000000000
         H            0.276723184649     1.776718422118    -0.267598805509     1.007825032230
         H            0.321485184649     1.047610422118     1.355632194491     1.007825032230
         H           -1.171057815351    -1.321785577882     1.317244194491     1.007825032230
         H           -1.919149815351     2.195298422118    -1.035685805509     1.007825032230
         H           -3.560331815351    -1.949608577882     1.134158194491     1.007825032230
         H           -4.306956815351     1.573147422118    -1.210059805509     1.007825032230
         H           -6.037494815351    -0.158138577882    -1.008974805509     1.007825032230
         H           -5.701017815351    -1.679679577882    -0.168102805509     1.007825032230
         H           -6.114807815351    -0.231662577882     0.755440194491     1.007825032230
         H            2.349077184649     1.880064422118     0.720915194491     1.007825032230
         H            2.354327184649    -2.101755577882    -0.911745805509     1.007825032230
         H            4.806287184649     1.855065422118     0.797871194491     1.007825032230
         H            4.848931184649    -2.123202577882    -0.838959805509     1.007825032230
         H            6.082551184649    -0.132529577882     0.023292194491     1.007825032230

  Basis Set: AUG-CC-PVTZ
    Blend: AUG-CC-PVTZ
  Basis Set: (AUG-CC-PVTZ AUX)
    Blend: AUG-CC-PVTZ-JKFIT
	 Reference Energy          =    -613.3686748167280030 [Eh]
	 Singles Energy            =      -0.0000000000000000 [Eh]
	 Same-Spin Energy          =      -0.6724453346269117 [Eh]
	 Opposite-Spin Energy      =      -2.1166974523785735 [Eh]
	 Correlation Energy        =      -2.7891427870054852 [Eh]
	 Total Energy              =    -616.1578176037335197 [Eh]

	 ================> DF-SCS-MP2 Energies <==================
	-----------------------------------------------------------
	 SCS Same-Spin Scale       =       0.3333333333333333 [-]
	 SCS Opposite-Spin Scale   =       1.2000000000000000 [-]
	 SCS Same-Spin Energy      =      -0.2241484448756372 [Eh]
	 SCS Opposite-Spin Energy  =      -2.5400369428542882 [Eh]
	 SCS Correlation Energy    =      -2.7641853877299254 [Eh]
	 SCS Total Energy          =    -616.1328602044579839 [Eh]
	-----------------------------------------------------------

  Dipole Moment: [D]
     X:    -0.9667      Y:     0.7490      Z:     0.4641     Total:     1.3080

*** Psi4 exiting successfully. Buy a developer a beer!
