                               Psi4 1.4a3.dev225

  ==> Input File <==

--------------------------------------------------------------------------
#psi4
#
memory 32 gb

molecule  {
0 1
  O        0.8655410    -0.2383350    -0.1978900
  C       -1.3532420     0.4851090     0.1659470
  C        0.0923410     0.8600100     0.3004220
  C       -4.0628344    -0.2807511    -0.1408091
  C       -1.8292680    -0.6845410     0.7713590
  C       -2.2449120     1.2876570    -0.5496990
  C       -3.1721270    -1.0365930     0.6617200
  C       -3.5922330     0.9350480    -0.6483300
  C        2.2320470    -0.1282220    -0.1046120
  C       -5.5355430    -0.5984480    -0.1257210
  C        2.9140800     0.9938170     0.3783620
  C        2.9472190    -1.2508620    -0.5439590
  C        4.3132210     0.9773220     0.4183570
  C        4.3370840    -1.2508910    -0.4991240
  C        5.0300920    -0.1353830    -0.0155080
  H        0.3103430     1.7730630    -0.2708990
  H        0.3551050     1.0439550     1.3523320
  H       -1.1374380    -1.3254410     1.3139440
  H       -1.8855300     2.1916430    -1.0389860
  H       -3.5267120    -1.9532640     1.1308580
  H       -4.2733370     1.5694920    -1.2133600
  H       -6.0038750    -0.1617940    -1.0122750
  H       -5.6673980    -1.6833350    -0.1714030
  H       -6.0811880    -0.2353180     0.7521400
  H        2.3826970     1.8764090     0.7176150
  H        2.3879470    -2.1054110    -0.9150460
  H        4.8399070     1.8514100     0.7945710
  H        4.8825510    -2.1268580    -0.8422600
  H        6.1161710    -0.1361850     0.0199920
units angstrom
no_reorient  #important for SAPT in psi4, default
symmetry c1  #important for SAPT in psi4, default
}

set PROPERTIES_ORIGIN ["COM"]
properties('MP2/aug-cc-pvtz', properties = ['dipole'])
--------------------------------------------------------------------------

    Molecular point group: c1
  Charge       = 0
  Multiplicity = 1
  Basis Set: AUG-CC-PVTZ
    Blend: AUG-CC-PVTZ
  Basis Set: (AUG-CC-PVTZ AUX)
    Blend: AUG-CC-PVTZ-JKFIT

    Orbital Energies [Eh]
    ---------------------

    Doubly Occupied:

       1A    -20.584283     2A    -11.301256     3A    -11.293649
       4A    -11.244674     5A    -11.241138     6A    -11.240185
       7A    -11.239564     8A    -11.237710     9A    -11.235218
      10A    -11.233963    11A    -11.233164    12A    -11.233024
      13A    -11.227873    14A    -11.227435    15A    -11.225644
      16A     -1.405238    17A     -1.158226    18A     -1.143748
      19A     -1.066718    20A     -1.017906    21A     -1.013128
      22A     -1.008528    23A     -0.964075    24A     -0.899136
      25A     -0.832882    26A     -0.830760    27A     -0.809194
      28A     -0.782298    29A     -0.721389    30A     -0.684014
      31A     -0.670528    32A     -0.663932    33A     -0.644009
      34A     -0.631144    35A     -0.620414    36A     -0.609504
      37A     -0.587010    38A     -0.583089    39A     -0.577230
      40A     -0.562414    41A     -0.543152    42A     -0.532705
      43A     -0.522433    44A     -0.513873    45A     -0.494044
      46A     -0.485022    47A     -0.480685    48A     -0.479850
      49A     -0.464509    50A     -0.340112    51A     -0.336247
      52A     -0.322484    53A     -0.312540

  @DF-RHF Final Energy:  -613.36671123457404

   => Energetics <=

    Nuclear Repulsion Energy =            870.5611514080478628
    One-Electron Energy =               -2559.2298240835903016
    Two-Electron Energy =                1075.3019614409683982
    Total Energy =                       -613.3667112345740406
  Basis Set: (AUG-CC-PVTZ AUX)
    Blend: AUG-CC-PVTZ-RI
    Molecular point group: c1

    Geometry (in Angstrom), charge = 0, multiplicity = 1:

       Center              X                  Y                   Z               Mass
    ------------   -----------------  -----------------  -----------------  -----------------
         O            0.828199772314    -0.232530015025    -0.189195990687    15.994914619570
         C           -1.390583227686     0.490913984975     0.174641009313    12.000000000000
         C            0.054999772314     0.865814984975     0.309116009313    12.000000000000
         C           -4.100175627686    -0.274946115025    -0.132115090687    12.000000000000
         C           -1.866609227686    -0.678736015025     0.780053009313    12.000000000000
         C           -2.282253227686     1.293461984975    -0.541004990687    12.000000000000
         C           -3.209468227686    -1.030788015025     0.670414009313    12.000000000000
         C           -3.629574227686     0.940852984975    -0.639635990687    12.000000000000
         C            2.194705772314    -0.122417015025    -0.095917990687    12.000000000000
         C           -5.572884227686    -0.592643015025    -0.117026990687    12.000000000000
         C            2.876738772314     0.999621984975     0.387056009313    12.000000000000
         C            2.909877772314    -1.245057015025    -0.535264990687    12.000000000000
         C            4.275879772314     0.983126984975     0.427051009313    12.000000000000
         C            4.299742772314    -1.245086015025    -0.490429990687    12.000000000000
         C            4.992750772314    -0.129578015025    -0.006813990687    12.000000000000
         H            0.273001772314     1.778867984975    -0.262204990687     1.007825032230
         H            0.317763772314     1.049759984975     1.361026009313     1.007825032230
         H           -1.174779227686    -1.319636015025     1.322638009313     1.007825032230
         H           -1.922871227686     2.197447984975    -1.030291990687     1.007825032230
         H           -3.564053227686    -1.947459015025     1.139552009313     1.007825032230
         H           -4.310678227686     1.575296984975    -1.204665990687     1.007825032230
         H           -6.041216227686    -0.155989015025    -1.003580990687     1.007825032230
         H           -5.704739227686    -1.677530015025    -0.162708990687     1.007825032230
         H           -6.118529227686    -0.229513015025     0.760834009313     1.007825032230
         H            2.345355772314     1.882213984975     0.726309009313     1.007825032230
         H            2.350605772314    -2.099606015025    -0.906351990687     1.007825032230
         H            4.802565772314     1.857214984975     0.803265009313     1.007825032230
         H            4.845209772314    -2.121053015025    -0.833565990687     1.007825032230
         H            6.078829772314    -0.130380015025     0.028686009313     1.007825032230

  Basis Set: AUG-CC-PVTZ
    Blend: AUG-CC-PVTZ
  Basis Set: (AUG-CC-PVTZ AUX)
    Blend: AUG-CC-PVTZ-JKFIT
	 Reference Energy          =    -613.3667112345740406 [Eh]
	 Singles Energy            =      -0.0000000000000000 [Eh]
	 Same-Spin Energy          =      -0.6728666422724588 [Eh]
	 Opposite-Spin Energy      =      -2.1172087368848689 [Eh]
	 Correlation Energy        =      -2.7900753791573276 [Eh]
	 Total Energy              =    -616.1567866137313558 [Eh]

	 ================> DF-SCS-MP2 Energies <==================
	-----------------------------------------------------------
	 SCS Same-Spin Scale       =       0.3333333333333333 [-]
	 SCS Opposite-Spin Scale   =       1.2000000000000000 [-]
	 SCS Same-Spin Energy      =      -0.2242888807574863 [Eh]
	 SCS Opposite-Spin Energy  =      -2.5406504842618425 [Eh]
	 SCS Correlation Energy    =      -2.7649393650193286 [Eh]
	 SCS Total Energy          =    -616.1316505995933994 [Eh]
	-----------------------------------------------------------

  Dipole Moment: [D]
     X:    -0.9468      Y:     0.7679      Z:     0.5149     Total:     1.3233

*** Psi4 exiting successfully. Buy a developer a beer!
