                               Psi4 1.4a3.dev225

  ==> Input File <==

--------------------------------------------------------------------------
#psi4
#
memory 32 gb

molecule  {
0 1
  O        0.8655410    -0.2383350    -0.1978900
  C       -1.3532420     0.4851090     0.1659470
  C        0.0923410     0.8600100     0.3004220
  C       -4.0826658    -0.2072029    -0.0475882
  C       -1.8292680    -0.6845410     0.7713590
  C       -2.2449120     1.2876570    -0.5496990
  C       -3.1721270    -1.0365930     0.6617200
  C       -3.5922330     0.9350480    -0.6483300
  C        2.2320470    -0.1282220    -0.1046120
  C       -5.5355430    -0.5984480    -0.1257210
  C        2.9140800     0.9938170     0.3783620
  C        2.9472190    -1.2508620    -0.5439590
  C        4.3132210     0.9773220     0.4183570
  C        4.3370840    -1.2508910    -0.4991240
  C        5.0300920    -0.1353830    -0.0155080
  H        0.3103430     1.7730630    -0.2708990
  H        0.3551050     1.0439550     1.3523320
  H       -1.1374380    -1.3254410     1.3139440
  H       -1.8855300     2.1916430    -1.0389860
  H       -3.5267120    -1.9532640     1.1308580
  H       -4.2733370     1.5694920    -1.2133600
  H       -6.0038750    -0.1617940    -1.0122750
  H       -5.6673980    -1.6833350    -0.1714030
  H       -6.0811880    -0.2353180     0.7521400
  H        2.3826970     1.8764090     0.7176150
  H        2.3879470    -2.1054110    -0.9150460
  H        4.8399070     1.8514100     0.7945710
  H        4.8825510    -2.1268580    -0.8422600
  H        6.1161710    -0.1361850     0.0199920
units angstrom
no_reorient  #important for SAPT in psi4, default
symmetry c1  #important for SAPT in psi4, default
}

set PROPERTIES_ORIGIN ["COM"]
properties('MP2/aug-cc-pvtz', properties = ['dipole'])
--------------------------------------------------------------------------

    Molecular point group: c1
  Charge       = 0
  Multiplicity = 1
  Basis Set: AUG-CC-PVTZ
    Blend: AUG-CC-PVTZ
  Basis Set: (AUG-CC-PVTZ AUX)
    Blend: AUG-CC-PVTZ-JKFIT

    Orbital Energies [Eh]
    ---------------------

    Doubly Occupied:

       1A    -20.583897     2A    -11.301027     3A    -11.293173
       4A    -11.243779     5A    -11.240957     6A    -11.239391
       7A    -11.239164     8A    -11.237594     9A    -11.235056
      10A    -11.233726    11A    -11.232943    12A    -11.230213
      13A    -11.227676    14A    -11.227254    15A    -11.225924
      16A     -1.404867    17A     -1.158886    18A     -1.143742
      19A     -1.067127    20A     -1.017722    21A     -1.013185
      22A     -1.008480    23A     -0.964110    24A     -0.899602
      25A     -0.833699    26A     -0.830449    27A     -0.809350
      28A     -0.782066    29A     -0.721139    30A     -0.683975
      31A     -0.670492    32A     -0.663672    33A     -0.643773
      34A     -0.631028    35A     -0.620585    36A     -0.609314
      37A     -0.586784    38A     -0.583652    39A     -0.577063
      40A     -0.563974    41A     -0.543381    42A     -0.531580
      43A     -0.523497    44A     -0.513759    45A     -0.492507
      46A     -0.486250    47A     -0.483733    48A     -0.479117
      49A     -0.464043    50A     -0.339934    51A     -0.336814
      52A     -0.322378    53A     -0.312332

  @DF-RHF Final Energy:  -613.37111335372163

   => Energetics <=

    Nuclear Repulsion Energy =            870.7291811789976919
    One-Electron Energy =               -2559.5809152067708965
    Two-Electron Energy =                1075.4806206740513517
    Total Energy =                       -613.3711133537217393
  Basis Set: (AUG-CC-PVTZ AUX)
    Blend: AUG-CC-PVTZ-RI
    Molecular point group: c1

    Geometry (in Angstrom), charge = 0, multiplicity = 1:

       Center              X                  Y                   Z               Mass
    ------------   -----------------  -----------------  -----------------  -----------------
         O            0.829401041553    -0.236985131166    -0.194842762958    15.994914619570
         C           -1.389381958447     0.486458868834     0.168994237042    12.000000000000
         C            0.056201041553     0.861359868834     0.303469237042    12.000000000000
         C           -4.118805758447    -0.205853031166    -0.044540962958    12.000000000000
         C           -1.865407958447    -0.683191131166     0.774406237042    12.000000000000
         C           -2.281051958447     1.289006868834    -0.546651762958    12.000000000000
         C           -3.208266958447    -1.035243131166     0.664767237042    12.000000000000
         C           -3.628372958447     0.936397868834    -0.645282762958    12.000000000000
         C            2.195907041553    -0.126872131166    -0.101564762958    12.000000000000
         C           -5.571682958447    -0.597098131166    -0.122673762958    12.000000000000
         C            2.877940041553     0.995166868834     0.381409237042    12.000000000000
         C            2.911079041553    -1.249512131166    -0.540911762958    12.000000000000
         C            4.277081041553     0.978671868834     0.421404237042    12.000000000000
         C            4.300944041553    -1.249541131166    -0.496076762958    12.000000000000
         C            4.993952041553    -0.134033131166    -0.012460762958    12.000000000000
         H            0.274203041553     1.774412868834    -0.267851762958     1.007825032230
         H            0.318965041553     1.045304868834     1.355379237042     1.007825032230
         H           -1.173577958447    -1.324091131166     1.316991237042     1.007825032230
         H           -1.921669958447     2.192992868834    -1.035938762958     1.007825032230
         H           -3.562851958447    -1.951914131166     1.133905237042     1.007825032230
         H           -4.309476958447     1.570841868834    -1.210312762958     1.007825032230
         H           -6.040014958447    -0.160444131166    -1.009227762958     1.007825032230
         H           -5.703537958447    -1.681985131166    -0.168355762958     1.007825032230
         H           -6.117327958447    -0.233968131166     0.755187237042     1.007825032230
         H            2.346557041553     1.877758868834     0.720662237042     1.007825032230
         H            2.351807041553    -2.104061131166    -0.911998762958     1.007825032230
         H            4.803767041553     1.852759868834     0.797618237042     1.007825032230
         H            4.846411041553    -2.125508131166    -0.839212762958     1.007825032230
         H            6.080031041553    -0.134835131166     0.023039237042     1.007825032230

  Basis Set: AUG-CC-PVTZ
    Blend: AUG-CC-PVTZ
  Basis Set: (AUG-CC-PVTZ AUX)
    Blend: AUG-CC-PVTZ-JKFIT
	 Reference Energy          =    -613.3711133537216256 [Eh]
	 Singles Energy            =      -0.0000000000000000 [Eh]
	 Same-Spin Energy          =      -0.6725712272387240 [Eh]
	 Opposite-Spin Energy      =      -2.1164898767769031 [Eh]
	 Correlation Energy        =      -2.7890611040156270 [Eh]
	 Total Energy              =    -616.1601744577372983 [Eh]

	 ================> DF-SCS-MP2 Energies <==================
	-----------------------------------------------------------
	 SCS Same-Spin Scale       =       0.3333333333333333 [-]
	 SCS Opposite-Spin Scale   =       1.2000000000000000 [-]
	 SCS Same-Spin Energy      =      -0.2241904090795747 [Eh]
	 SCS Opposite-Spin Energy  =      -2.5397878521322839 [Eh]
	 SCS Correlation Energy    =      -2.7639782612118586 [Eh]
	 SCS Total Energy          =    -616.1350916149334580 [Eh]
	-----------------------------------------------------------

  Dipole Moment: [D]
     X:    -1.0056      Y:     0.7209      Z:     0.4695     Total:     1.3234

*** Psi4 exiting successfully. Buy a developer a beer!
