                               Psi4 1.4a3.dev225

  ==> Input File <==

--------------------------------------------------------------------------
#psi4
#
memory 32 gb

molecule  {
0 1
  O        0.8655410    -0.2383350    -0.1978900
  C       -1.3532420     0.4851090     0.1659470
  C        0.0923410     0.8600100     0.3004220
  C       -4.0760200    -0.2326370    -0.0482320
  C       -1.8292680    -0.6845410     0.7713590
  C       -2.2449120     1.2876570    -0.5496990
  C       -3.1721270    -1.0365930     0.6617200
  C       -3.5749446     0.9767760    -0.6697749
  C        2.2320470    -0.1282220    -0.1046120
  C       -5.5355430    -0.5984480    -0.1257210
  C        2.9140800     0.9938170     0.3783620
  C        2.9472190    -1.2508620    -0.5439590
  C        4.3132210     0.9773220     0.4183570
  C        4.3370840    -1.2508910    -0.4991240
  C        5.0300920    -0.1353830    -0.0155080
  H        0.3103430     1.7730630    -0.2708990
  H        0.3551050     1.0439550     1.3523320
  H       -1.1374380    -1.3254410     1.3139440
  H       -1.8855300     2.1916430    -1.0389860
  H       -3.5267120    -1.9532640     1.1308580
  H       -4.2733370     1.5694920    -1.2133600
  H       -6.0038750    -0.1617940    -1.0122750
  H       -5.6673980    -1.6833350    -0.1714030
  H       -6.0811880    -0.2353180     0.7521400
  H        2.3826970     1.8764090     0.7176150
  H        2.3879470    -2.1054110    -0.9150460
  H        4.8399070     1.8514100     0.7945710
  H        4.8825510    -2.1268580    -0.8422600
  H        6.1161710    -0.1361850     0.0199920
units angstrom
no_reorient  #important for SAPT in psi4, default
symmetry c1  #important for SAPT in psi4, default
}

set PROPERTIES_ORIGIN ["COM"]
properties('MP2/aug-cc-pvtz', properties = ['dipole'])
--------------------------------------------------------------------------

    Molecular point group: c1
  Charge       = 0
  Multiplicity = 1
  Basis Set: AUG-CC-PVTZ
    Blend: AUG-CC-PVTZ
  Basis Set: (AUG-CC-PVTZ AUX)
    Blend: AUG-CC-PVTZ-JKFIT

    Orbital Energies [Eh]
    ---------------------

    Doubly Occupied:

       1A    -20.583612     2A    -11.300814     3A    -11.292993
       4A    -11.249285     5A    -11.240813     6A    -11.239257
       7A    -11.238424     8A    -11.235562     9A    -11.235300
      10A    -11.232799    11A    -11.232770    12A    -11.231392
      13A    -11.227525    14A    -11.227112    15A    -11.226529
      16A     -1.404583    17A     -1.156932    18A     -1.143143
      19A     -1.063915    20A     -1.018352    21A     -1.016706
      22A     -1.007748    23A     -0.964621    24A     -0.897529
      25A     -0.831579    26A     -0.830985    27A     -0.807911
      28A     -0.783562    29A     -0.720913    30A     -0.684962
      31A     -0.670455    32A     -0.663486    33A     -0.643292
      34A     -0.631902    35A     -0.620810    36A     -0.609148
      37A     -0.586985    38A     -0.586476    39A     -0.576428
      40A     -0.562855    41A     -0.545550    42A     -0.530954
      43A     -0.521917    44A     -0.513939    45A     -0.493236
      46A     -0.487071    47A     -0.482450    48A     -0.476496
      49A     -0.463987    50A     -0.340823    51A     -0.339700
      52A     -0.316648    53A     -0.312072

  @DF-RHF Final Energy:  -613.36822605841894

   => Energetics <=

    Nuclear Repulsion Energy =            870.2831391058311965
    One-Electron Energy =               -2558.6941138830338787
    Two-Electron Energy =                1075.0427487187837414
    Total Energy =                       -613.3682260584189407
  Basis Set: (AUG-CC-PVTZ AUX)
    Blend: AUG-CC-PVTZ-RI
    Molecular point group: c1

    Geometry (in Angstrom), charge = 0, multiplicity = 1:

       Center              X                  Y                   Z               Mass
    ------------   -----------------  -----------------  -----------------  -----------------
         O            0.827951248889    -0.237972119521    -0.193504759799    15.994914619570
         C           -1.390831751111     0.485471880479     0.170332240201    12.000000000000
         C            0.054751248889     0.860372880479     0.304807240201    12.000000000000
         C           -4.113609751111    -0.232274119521    -0.043846759799    12.000000000000
         C           -1.866857751111    -0.684178119521     0.775744240201    12.000000000000
         C           -2.282501751111     1.288019880479    -0.545313759799    12.000000000000
         C           -3.209716751111    -1.036230119521     0.666105240201    12.000000000000
         C           -3.612534351111     0.977138880479    -0.665389659799    12.000000000000
         C            2.194457248889    -0.127859119521    -0.100226759799    12.000000000000
         C           -5.573132751111    -0.598085119521    -0.121335759799    12.000000000000
         C            2.876490248889     0.994179880479     0.382747240201    12.000000000000
         C            2.909629248889    -1.250499119521    -0.539573759799    12.000000000000
         C            4.275631248889     0.977684880479     0.422742240201    12.000000000000
         C            4.299494248889    -1.250528119521    -0.494738759799    12.000000000000
         C            4.992502248889    -0.135020119521    -0.011122759799    12.000000000000
         H            0.272753248889     1.773425880479    -0.266513759799     1.007825032230
         H            0.317515248889     1.044317880479     1.356717240201     1.007825032230
         H           -1.175027751111    -1.325078119521     1.318329240201     1.007825032230
         H           -1.923119751111     2.192005880479    -1.034600759799     1.007825032230
         H           -3.564301751111    -1.952901119521     1.135243240201     1.007825032230
         H           -4.310926751111     1.569854880479    -1.208974759799     1.007825032230
         H           -6.041464751111    -0.161431119521    -1.007889759799     1.007825032230
         H           -5.704987751111    -1.682972119521    -0.167017759799     1.007825032230
         H           -6.118777751111    -0.234955119521     0.756525240201     1.007825032230
         H            2.345107248889     1.876771880479     0.722000240201     1.007825032230
         H            2.350357248889    -2.105048119521    -0.910660759799     1.007825032230
         H            4.802317248889     1.851772880479     0.798956240201     1.007825032230
         H            4.844961248889    -2.126495119521    -0.837874759799     1.007825032230
         H            6.078581248889    -0.135822119521     0.024377240201     1.007825032230

  Basis Set: AUG-CC-PVTZ
    Blend: AUG-CC-PVTZ
  Basis Set: (AUG-CC-PVTZ AUX)
    Blend: AUG-CC-PVTZ-JKFIT
	 Reference Energy          =    -613.3682260584189407 [Eh]
	 Singles Energy            =      -0.0000000000000000 [Eh]
	 Same-Spin Energy          =      -0.6727053697523464 [Eh]
	 Opposite-Spin Energy      =      -2.1168123444820615 [Eh]
	 Correlation Energy        =      -2.7895177142344076 [Eh]
	 Total Energy              =    -616.1577437726533617 [Eh]

	 ================> DF-SCS-MP2 Energies <==================
	-----------------------------------------------------------
	 SCS Same-Spin Scale       =       0.3333333333333333 [-]
	 SCS Opposite-Spin Scale   =       1.2000000000000000 [-]
	 SCS Same-Spin Energy      =      -0.2242351232507821 [Eh]
	 SCS Opposite-Spin Energy  =      -2.5401748133784738 [Eh]
	 SCS Correlation Energy    =      -2.7644099366292560 [Eh]
	 SCS Total Energy          =    -616.1326359950481901 [Eh]
	-----------------------------------------------------------

  Dipole Moment: [D]
     X:    -1.0386      Y:     0.7269      Z:     0.4694     Total:     1.3518

*** Psi4 exiting successfully. Buy a developer a beer!
