                               Psi4 1.4a3.dev225

  ==> Input File <==

--------------------------------------------------------------------------
#psi4
#
memory 32 gb

molecule  {
0 1
  O        0.8655410    -0.2383350    -0.1978900
  C       -1.3532420     0.4851090     0.1659470
  C        0.0923410     0.8600100     0.3004220
  C       -4.0760200    -0.2326370    -0.0482320
  C       -1.8292680    -0.6845410     0.7713590
  C       -2.2449120     1.2876570    -0.5496990
  C       -3.1721270    -1.0365930     0.6617200
  C       -3.5922330     0.9350480    -0.6483300
  C        2.2320470    -0.1282220    -0.1046120
  C       -5.5355430    -0.5984480    -0.1257210
  C        2.9140800     0.9938170     0.3783620
  C        2.9472190    -1.2508620    -0.5439590
  C        4.3132210     0.9773220     0.4183570
  C        4.3370840    -1.2508910    -0.4991240
  C        5.0300920    -0.1353830    -0.0155080
  H        0.3103430     1.7730630    -0.2708990
  H        0.3551050     1.0439550     1.3523320
  H       -1.1374380    -1.3254410     1.3139440
  H       -1.8855300     2.1916430    -1.0389860
  H       -3.5267120    -1.9532640     1.1308580
  H       -4.2733370     1.5694920    -1.2133600
  H       -6.0466995    -0.1218662    -1.0933419
  H       -5.6673980    -1.6833350    -0.1714030
  H       -6.0811880    -0.2353180     0.7521400
  H        2.3826970     1.8764090     0.7176150
  H        2.3879470    -2.1054110    -0.9150460
  H        4.8399070     1.8514100     0.7945710
  H        4.8825510    -2.1268580    -0.8422600
  H        6.1161710    -0.1361850     0.0199920
units angstrom
no_reorient  #important for SAPT in psi4, default
symmetry c1  #important for SAPT in psi4, default
}

set PROPERTIES_ORIGIN ["COM"]
properties('MP2/aug-cc-pvtz', properties = ['dipole'])
--------------------------------------------------------------------------

    Molecular point group: c1
  Charge       = 0
  Multiplicity = 1
  Basis Set: AUG-CC-PVTZ
    Blend: AUG-CC-PVTZ
  Basis Set: (AUG-CC-PVTZ AUX)
    Blend: AUG-CC-PVTZ-JKFIT

    Orbital Energies [Eh]
    ---------------------

    Doubly Occupied:

       1A    -20.584091     2A    -11.301153     3A    -11.293423
       4A    -11.244797     5A    -11.241073     6A    -11.239507
       7A    -11.239490     8A    -11.237796     9A    -11.237661
      10A    -11.235437    11A    -11.233075    12A    -11.232951
      13A    -11.232498    14A    -11.227802    15A    -11.227369
      16A     -1.405053    17A     -1.159142    18A     -1.143864
      19A     -1.066473    20A     -1.017731    21A     -1.013804
      22A     -1.007791    23A     -0.961509    24A     -0.896479
      25A     -0.833285    26A     -0.831147    27A     -0.808971
      28A     -0.781925    29A     -0.721296    30A     -0.683818
      31A     -0.670312    32A     -0.663811    33A     -0.643624
      34A     -0.631364    35A     -0.619135    36A     -0.609249
      37A     -0.586904    38A     -0.583831    39A     -0.576278
      40A     -0.564043    41A     -0.535053    42A     -0.529960
      43A     -0.520711    44A     -0.512975    45A     -0.491690
      46A     -0.486152    47A     -0.484178    48A     -0.479091
      49A     -0.464416    50A     -0.340060    51A     -0.337130
      52A     -0.322575    53A     -0.312450

  @DF-RHF Final Energy:  -613.36498656073218

   => Energetics <=

    Nuclear Repulsion Energy =            870.3336595115273440
    One-Electron Energy =               -2558.7864849396746649
    Two-Electron Energy =                1075.0878388674150301
    Total Energy =                       -613.3649865607321772
  Basis Set: (AUG-CC-PVTZ AUX)
    Blend: AUG-CC-PVTZ-RI
    Molecular point group: c1

    Geometry (in Angstrom), charge = 0, multiplicity = 1:

       Center              X                  Y                   Z               Mass
    ------------   -----------------  -----------------  -----------------  -----------------
         O            0.829216341037    -0.235647609755    -0.194391350360    15.994914619570
         C           -1.389566658963     0.487796390245     0.169445649640    12.000000000000
         C            0.056016341037     0.862697390245     0.303920649640    12.000000000000
         C           -4.112344658963    -0.229949609755    -0.044733350360    12.000000000000
         C           -1.865592658963    -0.681853609755     0.774857649640    12.000000000000
         C           -2.281236658963     1.290344390245    -0.546200350360    12.000000000000
         C           -3.208451658963    -1.033905609755     0.665218649640    12.000000000000
         C           -3.628557658963     0.937735390245    -0.644831350360    12.000000000000
         C            2.195722341037    -0.125534609755    -0.101113350360    12.000000000000
         C           -5.571867658963    -0.595760609755    -0.122222350360    12.000000000000
         C            2.877755341037     0.996504390245     0.381860649640    12.000000000000
         C            2.910894341037    -1.248174609755    -0.540460350360    12.000000000000
         C            4.276896341037     0.980009390245     0.421855649640    12.000000000000
         C            4.300759341037    -1.248203609755    -0.495625350360    12.000000000000
         C            4.993767341037    -0.132695609755    -0.012009350360    12.000000000000
         H            0.274018341037     1.775750390245    -0.267400350360     1.007825032230
         H            0.318780341037     1.046642390245     1.355830649640     1.007825032230
         H           -1.173762658963    -1.322753609755     1.317442649640     1.007825032230
         H           -1.921854658963     2.194330390245    -1.035487350360     1.007825032230
         H           -3.563036658963    -1.950576609755     1.134356649640     1.007825032230
         H           -4.309661658963     1.572179390245    -1.209861350360     1.007825032230
         H           -6.083024158963    -0.119178809755    -1.089843250360     1.007825032230
         H           -5.703722658963    -1.680647609755    -0.167904350360     1.007825032230
         H           -6.117512658963    -0.232630609755     0.755638649640     1.007825032230
         H            2.346372341037     1.879096390245     0.721113649640     1.007825032230
         H            2.351622341037    -2.102723609755    -0.911547350360     1.007825032230
         H            4.803582341037     1.854097390245     0.798069649640     1.007825032230
         H            4.846226341037    -2.124170609755    -0.838761350360     1.007825032230
         H            6.079846341037    -0.133497609755     0.023490649640     1.007825032230

  Basis Set: AUG-CC-PVTZ
    Blend: AUG-CC-PVTZ
  Basis Set: (AUG-CC-PVTZ AUX)
    Blend: AUG-CC-PVTZ-JKFIT
	 Reference Energy          =    -613.3649865607321772 [Eh]
	 Singles Energy            =      -0.0000000000000000 [Eh]
	 Same-Spin Energy          =      -0.6726751319128299 [Eh]
	 Opposite-Spin Energy      =      -2.1172906376452212 [Eh]
	 Correlation Energy        =      -2.7899657695580511 [Eh]
	 Total Energy              =    -616.1549523302902571 [Eh]

	 ================> DF-SCS-MP2 Energies <==================
	-----------------------------------------------------------
	 SCS Same-Spin Scale       =       0.3333333333333333 [-]
	 SCS Opposite-Spin Scale   =       1.2000000000000000 [-]
	 SCS Same-Spin Energy      =      -0.2242250439709433 [Eh]
	 SCS Opposite-Spin Energy  =      -2.5407487651742655 [Eh]
	 SCS Correlation Energy    =      -2.7649738091452090 [Eh]
	 SCS Total Energy          =    -616.1299603698773808 [Eh]
	-----------------------------------------------------------

  Dipole Moment: [D]
     X:    -0.9457      Y:     0.7200      Z:     0.5114     Total:     1.2939

*** Psi4 exiting successfully. Buy a developer a beer!
