                               Psi4 1.4a3.dev225

  ==> Input File <==

--------------------------------------------------------------------------
#psi4
#
memory 32 gb

molecule  {
0 1
  O        0.8655410    -0.2383350    -0.1978900
  C       -1.3532420     0.4851090     0.1659470
  C        0.0923410     0.8600100     0.3004220
  C       -4.0760200    -0.2326370    -0.0482320
  C       -1.8292680    -0.6845410     0.7713590
  C       -2.2449120     1.2876570    -0.5496990
  C       -3.1721270    -1.0365930     0.6617200
  C       -3.5922330     0.9350480    -0.6483300
  C        2.2320470    -0.1282220    -0.1046120
  C       -5.5355430    -0.5984480    -0.1257210
  C        2.9140800     0.9938170     0.3783620
  C        2.9472190    -1.2508620    -0.5439590
  C        4.3132210     0.9773220     0.4183570
  C        4.3570736    -1.2508914    -0.4984792
  C        5.0300920    -0.1353830    -0.0155080
  H        0.3103430     1.7730630    -0.2708990
  H        0.3551050     1.0439550     1.3523320
  H       -1.1374380    -1.3254410     1.3139440
  H       -1.8855300     2.1916430    -1.0389860
  H       -3.5267120    -1.9532640     1.1308580
  H       -4.2733370     1.5694920    -1.2133600
  H       -6.0038750    -0.1617940    -1.0122750
  H       -5.6673980    -1.6833350    -0.1714030
  H       -6.0811880    -0.2353180     0.7521400
  H        2.3826970     1.8764090     0.7176150
  H        2.3879470    -2.1054110    -0.9150460
  H        4.8399070     1.8514100     0.7945710
  H        4.8825510    -2.1268580    -0.8422600
  H        6.1161710    -0.1361850     0.0199920
units angstrom
no_reorient  #important for SAPT in psi4, default
symmetry c1  #important for SAPT in psi4, default
}

set PROPERTIES_ORIGIN ["COM"]
properties('MP2/aug-cc-pvtz', properties = ['dipole'])
--------------------------------------------------------------------------

    Molecular point group: c1
  Charge       = 0
  Multiplicity = 1
  Basis Set: AUG-CC-PVTZ
    Blend: AUG-CC-PVTZ
  Basis Set: (AUG-CC-PVTZ AUX)
    Blend: AUG-CC-PVTZ-JKFIT

    Orbital Energies [Eh]
    ---------------------

    Doubly Occupied:

       1A    -20.583518     2A    -11.300649     3A    -11.293123
       4A    -11.243784     5A    -11.241274     6A    -11.239711
       7A    -11.239053     8A    -11.237497     9A    -11.234898
      10A    -11.233651    11A    -11.232209    12A    -11.232044
      13A    -11.229311    14A    -11.226699    15A    -11.225831
      16A     -1.404587    17A     -1.158676    18A     -1.142941
      19A     -1.067052    20A     -1.015657    21A     -1.013482
      22A     -1.009529    23A     -0.963825    24A     -0.899221
      25A     -0.833668    26A     -0.832143    27A     -0.807955
      28A     -0.782508    29A     -0.721256    30A     -0.683755
      31A     -0.670426    32A     -0.663584    33A     -0.643825
      34A     -0.631737    35A     -0.620409    36A     -0.610442
      37A     -0.586100    38A     -0.583496    39A     -0.576911
      40A     -0.563673    41A     -0.543208    42A     -0.532412
      43A     -0.522758    44A     -0.511564    45A     -0.492623
      46A     -0.486479    47A     -0.484953    48A     -0.479550
      49A     -0.464223    50A     -0.338045    51A     -0.336665
      52A     -0.322211    53A     -0.313101

  @DF-RHF Final Energy:  -613.37089825763076

   => Energetics <=

    Nuclear Repulsion Energy =            870.4837251357024570
    One-Electron Energy =               -2559.0934396600055152
    Two-Electron Energy =                1075.2388162666723019
    Total Energy =                       -613.3708982576306425
  Basis Set: (AUG-CC-PVTZ AUX)
    Blend: AUG-CC-PVTZ-RI
    Molecular point group: c1

    Geometry (in Angstrom), charge = 0, multiplicity = 1:

       Center              X                  Y                   Z               Mass
    ------------   -----------------  -----------------  -----------------  -----------------
         O            0.827787626126    -0.235444459178    -0.194842823532    15.994914619570
         C           -1.390995373874     0.487999540822     0.168994176468    12.000000000000
         C            0.054587626126     0.862900540822     0.303469176468    12.000000000000
         C           -4.113773373874    -0.229746459178    -0.045184823532    12.000000000000
         C           -1.867021373874    -0.681650459178     0.774406176468    12.000000000000
         C           -2.282665373874     1.290547540822    -0.546651823532    12.000000000000
         C           -3.209880373874    -1.033702459178     0.664767176468    12.000000000000
         C           -3.629986373874     0.937938540822    -0.645282823532    12.000000000000
         C            2.194293626126    -0.125331459178    -0.101564823532    12.000000000000
         C           -5.573296373874    -0.595557459178    -0.122673823532    12.000000000000
         C            2.876326626126     0.996707540822     0.381409176468    12.000000000000
         C            2.909465626126    -1.247971459178    -0.540911823532    12.000000000000
         C            4.275467626126     0.980212540822     0.421404176468    12.000000000000
         C            4.319320226126    -1.248000859178    -0.495432023532    12.000000000000
         C            4.992338626126    -0.132492459178    -0.012460823532    12.000000000000
         H            0.272589626126     1.775953540822    -0.267851823532     1.007825032230
         H            0.317351626126     1.046845540822     1.355379176468     1.007825032230
         H           -1.175191373874    -1.322550459178     1.316991176468     1.007825032230
         H           -1.923283373874     2.194533540822    -1.035938823532     1.007825032230
         H           -3.564465373874    -1.950373459178     1.133905176468     1.007825032230
         H           -4.311090373874     1.572382540822    -1.210312823532     1.007825032230
         H           -6.041628373874    -0.158903459178    -1.009227823532     1.007825032230
         H           -5.705151373874    -1.680444459178    -0.168355823532     1.007825032230
         H           -6.118941373874    -0.232427459178     0.755187176468     1.007825032230
         H            2.344943626126     1.879299540822     0.720662176468     1.007825032230
         H            2.350193626126    -2.102520459178    -0.911998823532     1.007825032230
         H            4.802153626126     1.854300540822     0.797618176468     1.007825032230
         H            4.844797626126    -2.123967459178    -0.839212823532     1.007825032230
         H            6.078417626126    -0.133294459178     0.023039176468     1.007825032230

  Basis Set: AUG-CC-PVTZ
    Blend: AUG-CC-PVTZ
  Basis Set: (AUG-CC-PVTZ AUX)
    Blend: AUG-CC-PVTZ-JKFIT
	 Reference Energy          =    -613.3708982576307562 [Eh]
	 Singles Energy            =      -0.0000000000000000 [Eh]
	 Same-Spin Energy          =      -0.6726976679959399 [Eh]
	 Opposite-Spin Energy      =      -2.1166444094027463 [Eh]
	 Correlation Energy        =      -2.7893420773986861 [Eh]
	 Total Energy              =    -616.1602403350294708 [Eh]

	 ================> DF-SCS-MP2 Energies <==================
	-----------------------------------------------------------
	 SCS Same-Spin Scale       =       0.3333333333333333 [-]
	 SCS Opposite-Spin Scale   =       1.2000000000000000 [-]
	 SCS Same-Spin Energy      =      -0.2242325559986466 [Eh]
	 SCS Opposite-Spin Energy  =      -2.5399732912832955 [Eh]
	 SCS Correlation Energy    =      -2.7642058472819420 [Eh]
	 SCS Total Energy          =    -616.1351041049126707 [Eh]
	-----------------------------------------------------------

  Dipole Moment: [D]
     X:    -0.9936      Y:     0.7345      Z:     0.4731     Total:     1.3231

*** Psi4 exiting successfully. Buy a developer a beer!
