                               Psi4 1.4a3.dev225

  ==> Input File <==

--------------------------------------------------------------------------
#psi4
#
memory 32 gb

molecule  {
0 1
  O        0.8655410    -0.2383350    -0.1978900
  C       -1.3532420     0.4851090     0.1659470
  C        0.0923410     0.8600100     0.3004220
  C       -4.0760200    -0.2326370    -0.0482320
  C       -1.8292680    -0.6845410     0.7713590
  C       -2.2449120     1.2876570    -0.5496990
  C       -3.1628533    -1.0766734     0.6876086
  C       -3.5922330     0.9350480    -0.6483300
  C        2.2320470    -0.1282220    -0.1046120
  C       -5.5355430    -0.5984480    -0.1257210
  C        2.9140800     0.9938170     0.3783620
  C        2.9472190    -1.2508620    -0.5439590
  C        4.3132210     0.9773220     0.4183570
  C        4.3370840    -1.2508910    -0.4991240
  C        5.0300920    -0.1353830    -0.0155080
  H        0.3103430     1.7730630    -0.2708990
  H        0.3551050     1.0439550     1.3523320
  H       -1.1374380    -1.3254410     1.3139440
  H       -1.8855300     2.1916430    -1.0389860
  H       -3.5267120    -1.9532640     1.1308580
  H       -4.2733370     1.5694920    -1.2133600
  H       -6.0038750    -0.1617940    -1.0122750
  H       -5.6673980    -1.6833350    -0.1714030
  H       -6.0811880    -0.2353180     0.7521400
  H        2.3826970     1.8764090     0.7176150
  H        2.3879470    -2.1054110    -0.9150460
  H        4.8399070     1.8514100     0.7945710
  H        4.8825510    -2.1268580    -0.8422600
  H        6.1161710    -0.1361850     0.0199920
units angstrom
no_reorient  #important for SAPT in psi4, default
symmetry c1  #important for SAPT in psi4, default
}

set PROPERTIES_ORIGIN ["COM"]
properties('MP2/aug-cc-pvtz', properties = ['dipole'])
--------------------------------------------------------------------------

    Molecular point group: c1
  Charge       = 0
  Multiplicity = 1
  Basis Set: AUG-CC-PVTZ
    Blend: AUG-CC-PVTZ
  Basis Set: (AUG-CC-PVTZ AUX)
    Blend: AUG-CC-PVTZ-JKFIT

    Orbital Energies [Eh]
    ---------------------

    Doubly Occupied:

       1A    -20.583645     2A    -11.300874     3A    -11.293279
       4A    -11.248707     5A    -11.240845     6A    -11.239375
       7A    -11.239274     8A    -11.238187     9A    -11.235569
      10A    -11.233138    11A    -11.232816    12A    -11.231773
      13A    -11.227537    14A    -11.227134    15A    -11.225735
      16A     -1.404649    17A     -1.155834    18A     -1.142942
      19A     -1.064697    20A     -1.017540    21A     -1.014482
      22A     -1.008176    23A     -0.963821    24A     -0.897823
      25A     -0.834052    26A     -0.830444    27A     -0.809101
      28A     -0.781889    29A     -0.721154    30A     -0.685058
      31A     -0.669771    32A     -0.663525    33A     -0.643156
      34A     -0.635617    35A     -0.619240    36A     -0.610121
      37A     -0.586971    38A     -0.586035    39A     -0.576146
      40A     -0.563465    41A     -0.544611    42A     -0.530663
      43A     -0.522743    44A     -0.513498    45A     -0.494303
      46A     -0.485347    47A     -0.480764    48A     -0.479406
      49A     -0.463628    50A     -0.339792    51A     -0.337499
      52A     -0.318943    53A     -0.312172

  @DF-RHF Final Energy:  -613.36828278564803

   => Energetics <=

    Nuclear Repulsion Energy =            870.0029359517661760
    One-Electron Energy =               -2558.1285004099763682
    Two-Electron Energy =                1074.7572816725621578
    Total Energy =                       -613.3682827856480344
  Basis Set: (AUG-CC-PVTZ AUX)
    Blend: AUG-CC-PVTZ-RI
    Molecular point group: c1

    Geometry (in Angstrom), charge = 0, multiplicity = 1:

       Center              X                  Y                   Z               Mass
    ------------   -----------------  -----------------  -----------------  -----------------
         O            0.828436732142    -0.233016649185    -0.196371944039    15.994914619570
         C           -1.390346267858     0.490427350815     0.167465055961    12.000000000000
         C            0.055236732142     0.865328350815     0.301940055961    12.000000000000
         C           -4.113124267858    -0.227318649185    -0.046713944039    12.000000000000
         C           -1.866372267858    -0.679222649185     0.772877055961    12.000000000000
         C           -2.282016267858     1.292975350815    -0.548180944039    12.000000000000
         C           -3.199957567858    -1.071355049185     0.689126655961    12.000000000000
         C           -3.629337267858     0.940366350815    -0.646811944039    12.000000000000
         C            2.194942732142    -0.122903649185    -0.103093944039    12.000000000000
         C           -5.572647267858    -0.593129649185    -0.124202944039    12.000000000000
         C            2.876975732142     0.999135350815     0.379880055961    12.000000000000
         C            2.910114732142    -1.245543649185    -0.542440944039    12.000000000000
         C            4.276116732142     0.982640350815     0.419875055961    12.000000000000
         C            4.299979732142    -1.245572649185    -0.497605944039    12.000000000000
         C            4.992987732142    -0.130064649185    -0.013989944039    12.000000000000
         H            0.273238732142     1.778381350815    -0.269380944039     1.007825032230
         H            0.318000732142     1.049273350815     1.353850055961     1.007825032230
         H           -1.174542267858    -1.320122649185     1.315462055961     1.007825032230
         H           -1.922634267858     2.196961350815    -1.037467944039     1.007825032230
         H           -3.563816267858    -1.947945649185     1.132376055961     1.007825032230
         H           -4.310441267858     1.574810350815    -1.211841944039     1.007825032230
         H           -6.040979267858    -0.156475649185    -1.010756944039     1.007825032230
         H           -5.704502267858    -1.678016649185    -0.169884944039     1.007825032230
         H           -6.118292267858    -0.229999649185     0.753658055961     1.007825032230
         H            2.345592732142     1.881727350815     0.719133055961     1.007825032230
         H            2.350842732142    -2.100092649185    -0.913527944039     1.007825032230
         H            4.802802732142     1.856728350815     0.796089055961     1.007825032230
         H            4.845446732142    -2.121539649185    -0.840741944039     1.007825032230
         H            6.079066732142    -0.130866649185     0.021510055961     1.007825032230

  Basis Set: AUG-CC-PVTZ
    Blend: AUG-CC-PVTZ
  Basis Set: (AUG-CC-PVTZ AUX)
    Blend: AUG-CC-PVTZ-JKFIT
	 Reference Energy          =    -613.3682827856480344 [Eh]
	 Singles Energy            =      -0.0000000000000000 [Eh]
	 Same-Spin Energy          =      -0.6725473679167158 [Eh]
	 Opposite-Spin Energy      =      -2.1167881306680969 [Eh]
	 Correlation Energy        =      -2.7893354985848129 [Eh]
	 Total Energy              =    -616.1576182842328535 [Eh]

	 ================> DF-SCS-MP2 Energies <==================
	-----------------------------------------------------------
	 SCS Same-Spin Scale       =       0.3333333333333333 [-]
	 SCS Opposite-Spin Scale   =       1.2000000000000000 [-]
	 SCS Same-Spin Energy      =      -0.2241824559722386 [Eh]
	 SCS Opposite-Spin Energy  =      -2.5401457568017163 [Eh]
	 SCS Correlation Energy    =      -2.7643282127739548 [Eh]
	 SCS Total Energy          =    -616.1326109984220238 [Eh]
	-----------------------------------------------------------

  Dipole Moment: [D]
     X:    -1.0214      Y:     0.7176      Z:     0.4768     Total:     1.3362

*** Psi4 exiting successfully. Buy a developer a beer!
