                               Psi4 1.4a3.dev225

  ==> Input File <==

--------------------------------------------------------------------------
#psi4
#
memory 32 gb

molecule  {
0 1
  O        0.8655410    -0.2383350    -0.1978900
  C       -1.3532420     0.4851090     0.1659470
  C        0.0923410     0.8600100     0.3004220
  C       -4.0760200    -0.2326370    -0.0482320
  C       -1.8292680    -0.6845410     0.7713590
  C       -2.2449120     1.2876570    -0.5496990
  C       -3.1721270    -1.0365930     0.6617200
  C       -3.5576561     1.0185040    -0.6912198
  C        2.2320470    -0.1282220    -0.1046120
  C       -5.5355430    -0.5984480    -0.1257210
  C        2.9140800     0.9938170     0.3783620
  C        2.9472190    -1.2508620    -0.5439590
  C        4.3132210     0.9773220     0.4183570
  C        4.3370840    -1.2508910    -0.4991240
  C        5.0300920    -0.1353830    -0.0155080
  H        0.3103430     1.7730630    -0.2708990
  H        0.3551050     1.0439550     1.3523320
  H       -1.1374380    -1.3254410     1.3139440
  H       -1.8855300     2.1916430    -1.0389860
  H       -3.5267120    -1.9532640     1.1308580
  H       -4.2733370     1.5694920    -1.2133600
  H       -6.0038750    -0.1617940    -1.0122750
  H       -5.6673980    -1.6833350    -0.1714030
  H       -6.0811880    -0.2353180     0.7521400
  H        2.3826970     1.8764090     0.7176150
  H        2.3879470    -2.1054110    -0.9150460
  H        4.8399070     1.8514100     0.7945710
  H        4.8825510    -2.1268580    -0.8422600
  H        6.1161710    -0.1361850     0.0199920
units angstrom
no_reorient  #important for SAPT in psi4, default
symmetry c1  #important for SAPT in psi4, default
}

set PROPERTIES_ORIGIN ["COM"]
properties('MP2/aug-cc-pvtz', properties = ['dipole'])
--------------------------------------------------------------------------

    Molecular point group: c1
  Charge       = 0
  Multiplicity = 1
  Basis Set: AUG-CC-PVTZ
    Blend: AUG-CC-PVTZ
  Basis Set: (AUG-CC-PVTZ AUX)
    Blend: AUG-CC-PVTZ-JKFIT

    Orbital Energies [Eh]
    ---------------------

    Doubly Occupied:

       1A    -20.583332     2A    -11.300618     3A    -11.292809
       4A    -11.253908     5A    -11.240671     6A    -11.239125
       7A    -11.237934     8A    -11.235939     9A    -11.234076
      10A    -11.232599    11A    -11.232486    12A    -11.230675
      13A    -11.227377    14A    -11.227136    15A    -11.226972
      16A     -1.404313    17A     -1.155558    18A     -1.142603
      19A     -1.061246    20A     -1.022165    21A     -1.016966
      22A     -1.007239    23A     -0.965095    24A     -0.895901
      25A     -0.831872    26A     -0.829758    27A     -0.806874
      28A     -0.783862    29A     -0.720675    30A     -0.686498
      31A     -0.670874    32A     -0.663298    33A     -0.642860
      34A     -0.633738    35A     -0.620895    36A     -0.608698
      37A     -0.589496    38A     -0.586431    39A     -0.575992
      40A     -0.561951    41A     -0.547445    42A     -0.530265
      43A     -0.520977    44A     -0.513843    45A     -0.496562
      46A     -0.486750    47A     -0.480978    48A     -0.470039
      49A     -0.463290    50A     -0.345180    51A     -0.339585
      52A     -0.312585    53A     -0.310939

  @DF-RHF Final Energy:  -613.35959210756448

   => Energetics <=

    Nuclear Repulsion Energy =            869.8481437524800413
    One-Electron Energy =               -2557.8175686898471213
    Two-Electron Energy =                1074.6098328298025990
    Total Energy =                       -613.3595921075643673
  Basis Set: (AUG-CC-PVTZ AUX)
    Blend: AUG-CC-PVTZ-RI
    Molecular point group: c1

    Geometry (in Angstrom), charge = 0, multiplicity = 1:

       Center              X                  Y                   Z               Mass
    ------------   -----------------  -----------------  -----------------  -----------------
         O            0.826904013533    -0.240499755633    -0.192205754247    15.994914619570
         C           -1.391878986467     0.482944244367     0.171631245753    12.000000000000
         C            0.053704013533     0.857845244367     0.306106245753    12.000000000000
         C           -4.114656986467    -0.234801755633    -0.042547754247    12.000000000000
         C           -1.867904986467    -0.686705755633     0.777043245753    12.000000000000
         C           -2.283548986467     1.285492244367    -0.544014754247    12.000000000000
         C           -3.210763986467    -1.038757755633     0.667404245753    12.000000000000
         C           -3.596293086467     1.016339244367    -0.685535554247    12.000000000000
         C            2.193410013533    -0.130386755633    -0.098927754247    12.000000000000
         C           -5.574179986467    -0.600612755633    -0.120036754247    12.000000000000
         C            2.875443013533     0.991652244367     0.384046245753    12.000000000000
         C            2.908582013533    -1.253026755633    -0.538274754247    12.000000000000
         C            4.274584013533     0.975157244367     0.424041245753    12.000000000000
         C            4.298447013533    -1.253055755633    -0.493439754247    12.000000000000
         C            4.991455013533    -0.137547755633    -0.009823754247    12.000000000000
         H            0.271706013533     1.770898244367    -0.265214754247     1.007825032230
         H            0.316468013533     1.041790244367     1.358016245753     1.007825032230
         H           -1.176074986467    -1.327605755633     1.319628245753     1.007825032230
         H           -1.924166986467     2.189478244367    -1.033301754247     1.007825032230
         H           -3.565348986467    -1.955428755633     1.136542245753     1.007825032230
         H           -4.311973986467     1.567327244367    -1.207675754247     1.007825032230
         H           -6.042511986467    -0.163958755633    -1.006590754247     1.007825032230
         H           -5.706034986467    -1.685499755633    -0.165718754247     1.007825032230
         H           -6.119824986467    -0.237482755633     0.757824245753     1.007825032230
         H            2.344060013533     1.874244244367     0.723299245753     1.007825032230
         H            2.349310013533    -2.107575755633    -0.909361754247     1.007825032230
         H            4.801270013533     1.849245244367     0.800255245753     1.007825032230
         H            4.843914013533    -2.129022755633    -0.836575754247     1.007825032230
         H            6.077534013533    -0.138349755633     0.025676245753     1.007825032230

  Basis Set: AUG-CC-PVTZ
    Blend: AUG-CC-PVTZ
  Basis Set: (AUG-CC-PVTZ AUX)
    Blend: AUG-CC-PVTZ-JKFIT
	 Reference Energy          =    -613.3595921075644810 [Eh]
	 Singles Energy            =      -0.0000000000000000 [Eh]
	 Same-Spin Energy          =      -0.6726939578540073 [Eh]
	 Opposite-Spin Energy      =      -2.1173609695934346 [Eh]
	 Correlation Energy        =      -2.7900549274474420 [Eh]
	 Total Energy              =    -616.1496470350118670 [Eh]

	 ================> DF-SCS-MP2 Energies <==================
	-----------------------------------------------------------
	 SCS Same-Spin Scale       =       0.3333333333333333 [-]
	 SCS Opposite-Spin Scale   =       1.2000000000000000 [-]
	 SCS Same-Spin Energy      =      -0.2242313192846691 [Eh]
	 SCS Opposite-Spin Energy  =      -2.5408331635121213 [Eh]
	 SCS Correlation Energy    =      -2.7650644827967903 [Eh]
	 SCS Total Energy          =    -616.1246565903612691 [Eh]
	-----------------------------------------------------------

  Dipole Moment: [D]
     X:    -1.0676      Y:     0.7224      Z:     0.4685     Total:     1.3715

*** Psi4 exiting successfully. Buy a developer a beer!
