                               Psi4 1.4a3.dev225

  ==> Input File <==

--------------------------------------------------------------------------
#psi4
#
memory 32 gb

molecule  {
0 1
  O        0.8655410    -0.2383350    -0.1978900
  C       -1.3532420     0.4851090     0.1659470
  C        0.0923410     0.8600100     0.3004220
  C       -4.0760200    -0.2326370    -0.0482320
  C       -1.8292680    -0.6845410     0.7713590
  C       -2.2449120     1.2876570    -0.5496990
  C       -3.0756962    -1.0113121     0.6695932
  C       -3.5922330     0.9350480    -0.6483300
  C        2.2320470    -0.1282220    -0.1046120
  C       -5.5355430    -0.5984480    -0.1257210
  C        2.9140800     0.9938170     0.3783620
  C        2.9472190    -1.2508620    -0.5439590
  C        4.3132210     0.9773220     0.4183570
  C        4.3370840    -1.2508910    -0.4991240
  C        5.0300920    -0.1353830    -0.0155080
  H        0.3103430     1.7730630    -0.2708990
  H        0.3551050     1.0439550     1.3523320
  H       -1.1374380    -1.3254410     1.3139440
  H       -1.8855300     2.1916430    -1.0389860
  H       -3.5267120    -1.9532640     1.1308580
  H       -4.2733370     1.5694920    -1.2133600
  H       -6.0038750    -0.1617940    -1.0122750
  H       -5.6673980    -1.6833350    -0.1714030
  H       -6.0811880    -0.2353180     0.7521400
  H        2.3826970     1.8764090     0.7176150
  H        2.3879470    -2.1054110    -0.9150460
  H        4.8399070     1.8514100     0.7945710
  H        4.8825510    -2.1268580    -0.8422600
  H        6.1161710    -0.1361850     0.0199920
units angstrom
no_reorient  #important for SAPT in psi4, default
symmetry c1  #important for SAPT in psi4, default
}

set PROPERTIES_ORIGIN ["COM"]
properties('MP2/aug-cc-pvtz', properties = ['dipole'])
--------------------------------------------------------------------------

    Molecular point group: c1
  Charge       = 0
  Multiplicity = 1
  Basis Set: AUG-CC-PVTZ
    Blend: AUG-CC-PVTZ
  Basis Set: (AUG-CC-PVTZ AUX)
    Blend: AUG-CC-PVTZ-JKFIT

    Orbital Energies [Eh]
    ---------------------

    Doubly Occupied:

       1A    -20.583760     2A    -11.300968     3A    -11.292809
       4A    -11.248876     5A    -11.240869     6A    -11.239307
       7A    -11.238860     8A    -11.236233     9A    -11.232845
      10A    -11.230896    11A    -11.230859    12A    -11.228998
      13A    -11.227593    14A    -11.227169    15A    -11.221879
      16A     -1.404753    17A     -1.163392    18A     -1.143979
      19A     -1.063041    20A     -1.027063    21A     -1.017225
      22A     -1.008616    23A     -0.966157    24A     -0.897472
      25A     -0.832377    26A     -0.822881    27A     -0.808995
      28A     -0.786843    29A     -0.720902    30A     -0.685090
      31A     -0.672270    32A     -0.663643    33A     -0.644508
      34A     -0.627742    35A     -0.618984    36A     -0.607514
      37A     -0.586819    38A     -0.584702    39A     -0.577707
      40A     -0.561110    41A     -0.545860    42A     -0.533087
      43A     -0.523239    44A     -0.514993    45A     -0.495635
      46A     -0.490976    47A     -0.481699    48A     -0.470373
      49A     -0.460397    50A     -0.350138    51A     -0.339800
      52A     -0.315046    53A     -0.312242

  @DF-RHF Final Energy:  -613.35803847946784

   => Energetics <=

    Nuclear Repulsion Energy =            871.8639194745740042
    One-Electron Energy =               -2561.8255371360337449
    Two-Electron Energy =                1076.6035791819920178
    Total Energy =                       -613.3580384794677229
  Basis Set: (AUG-CC-PVTZ AUX)
    Blend: AUG-CC-PVTZ-RI
    Molecular point group: c1

    Geometry (in Angstrom), charge = 0, multiplicity = 1:

       Center              X                  Y                   Z               Mass
    ------------   -----------------  -----------------  -----------------  -----------------
         O            0.823157269109    -0.236975851214    -0.195280677368    15.994914619570
         C           -1.395625730891     0.486468148786     0.168556322632    12.000000000000
         C            0.049957269109     0.861369148786     0.303031322632    12.000000000000
         C           -4.118403730891    -0.231277851214    -0.045622677368    12.000000000000
         C           -1.871651730891    -0.683181851214     0.773968322632    12.000000000000
         C           -2.287295730891     1.289016148786    -0.547089677368    12.000000000000
         C           -3.118079930891    -1.009952951214     0.672202522632    12.000000000000
         C           -3.634616730891     0.936407148786    -0.645720677368    12.000000000000
         C            2.189663269109    -0.126862851214    -0.102002677368    12.000000000000
         C           -5.577926730891    -0.597088851214    -0.123111677368    12.000000000000
         C            2.871696269109     0.995176148786     0.380971322632    12.000000000000
         C            2.904835269109    -1.249502851214    -0.541349677368    12.000000000000
         C            4.270837269109     0.978681148786     0.420966322632    12.000000000000
         C            4.294700269109    -1.249531851214    -0.496514677368    12.000000000000
         C            4.987708269109    -0.134023851214    -0.012898677368    12.000000000000
         H            0.267959269109     1.774422148786    -0.268289677368     1.007825032230
         H            0.312721269109     1.045314148786     1.354941322632     1.007825032230
         H           -1.179821730891    -1.324081851214     1.316553322632     1.007825032230
         H           -1.927913730891     2.193002148786    -1.036376677368     1.007825032230
         H           -3.569095730891    -1.951904851214     1.133467322632     1.007825032230
         H           -4.315720730891     1.570851148786    -1.210750677368     1.007825032230
         H           -6.046258730891    -0.160434851214    -1.009665677368     1.007825032230
         H           -5.709781730891    -1.681975851214    -0.168793677368     1.007825032230
         H           -6.123571730891    -0.233958851214     0.754749322632     1.007825032230
         H            2.340313269109     1.877768148786     0.720224322632     1.007825032230
         H            2.345563269109    -2.104051851214    -0.912436677368     1.007825032230
         H            4.797523269109     1.852769148786     0.797180322632     1.007825032230
         H            4.840167269109    -2.125498851214    -0.839650677368     1.007825032230
         H            6.073787269109    -0.134825851214     0.022601322632     1.007825032230

  Basis Set: AUG-CC-PVTZ
    Blend: AUG-CC-PVTZ
  Basis Set: (AUG-CC-PVTZ AUX)
    Blend: AUG-CC-PVTZ-JKFIT
	 Reference Energy          =    -613.3580384794678366 [Eh]
	 Singles Energy            =      -0.0000000000000000 [Eh]
	 Same-Spin Energy          =      -0.6723750154476663 [Eh]
	 Opposite-Spin Energy      =      -2.1166983558941617 [Eh]
	 Correlation Energy        =      -2.7890733713418281 [Eh]
	 Total Energy              =    -616.1471118508096652 [Eh]

	 ================> DF-SCS-MP2 Energies <==================
	-----------------------------------------------------------
	 SCS Same-Spin Scale       =       0.3333333333333333 [-]
	 SCS Opposite-Spin Scale   =       1.2000000000000000 [-]
	 SCS Same-Spin Energy      =      -0.2241250051492221 [Eh]
	 SCS Opposite-Spin Energy  =      -2.5400380270729941 [Eh]
	 SCS Correlation Energy    =      -2.7641630322222164 [Eh]
	 SCS Total Energy          =    -616.1222015116900366 [Eh]
	-----------------------------------------------------------

  Dipole Moment: [D]
     X:    -1.0716      Y:     0.7558      Z:     0.4484     Total:     1.3858

*** Psi4 exiting successfully. Buy a developer a beer!
