                               Psi4 1.4a3.dev225

  ==> Input File <==

--------------------------------------------------------------------------
#psi4
#
memory 32 gb

molecule  {
0 1
  O        0.8655410    -0.2383350    -0.1978900
  C       -1.3532420     0.4851090     0.1659470
  C        0.0923410     0.8600100     0.3004220
  C       -4.0814115    -0.2054401    -0.0929192
  C       -1.8292680    -0.6845410     0.7713590
  C       -2.2449120     1.2876570    -0.5496990
  C       -3.1721270    -1.0365930     0.6617200
  C       -3.5922330     0.9350480    -0.6483300
  C        2.2320470    -0.1282220    -0.1046120
  C       -5.5355430    -0.5984480    -0.1257210
  C        2.9140800     0.9938170     0.3783620
  C        2.9472190    -1.2508620    -0.5439590
  C        4.3132210     0.9773220     0.4183570
  C        4.3370840    -1.2508910    -0.4991240
  C        5.0300920    -0.1353830    -0.0155080
  H        0.3103430     1.7730630    -0.2708990
  H        0.3551050     1.0439550     1.3523320
  H       -1.1374380    -1.3254410     1.3139440
  H       -1.8855300     2.1916430    -1.0389860
  H       -3.5267120    -1.9532640     1.1308580
  H       -4.2733370     1.5694920    -1.2133600
  H       -6.0038750    -0.1617940    -1.0122750
  H       -5.6673980    -1.6833350    -0.1714030
  H       -6.0811880    -0.2353180     0.7521400
  H        2.3826970     1.8764090     0.7176150
  H        2.3879470    -2.1054110    -0.9150460
  H        4.8399070     1.8514100     0.7945710
  H        4.8825510    -2.1268580    -0.8422600
  H        6.1161710    -0.1361850     0.0199920
units angstrom
no_reorient  #important for SAPT in psi4, default
symmetry c1  #important for SAPT in psi4, default
}

set PROPERTIES_ORIGIN ["COM"]
properties('MP2/aug-cc-pvtz', properties = ['dipole'])
--------------------------------------------------------------------------

    Molecular point group: c1
  Charge       = 0
  Multiplicity = 1
  Basis Set: AUG-CC-PVTZ
    Blend: AUG-CC-PVTZ
  Basis Set: (AUG-CC-PVTZ AUX)
    Blend: AUG-CC-PVTZ-JKFIT

    Orbital Energies [Eh]
    ---------------------

    Doubly Occupied:

       1A    -20.584022     2A    -11.301116     3A    -11.293316
       4A    -11.243493     5A    -11.241012     6A    -11.239538
       7A    -11.239443     8A    -11.237748     9A    -11.236582
      10A    -11.234301    11A    -11.233014    12A    -11.227900
      13A    -11.227737    14A    -11.227310    15A    -11.225972
      16A     -1.404999    17A     -1.159002    18A     -1.143820
      19A     -1.067520    20A     -1.017806    21A     -1.012830
      22A     -1.008677    23A     -0.964186    24A     -0.899938
      25A     -0.834668    26A     -0.829297    27A     -0.809818
      28A     -0.781486    29A     -0.721201    30A     -0.684162
      31A     -0.670465    32A     -0.663745    33A     -0.643849
      34A     -0.630947    35A     -0.620664    36A     -0.609323
      37A     -0.586940    38A     -0.583926    39A     -0.577032
      40A     -0.563582    41A     -0.543521    42A     -0.532004
      43A     -0.523876    44A     -0.513433    45A     -0.495159
      46A     -0.486362    47A     -0.480447    48A     -0.478287
      49A     -0.463979    50A     -0.340052    51A     -0.338069
      52A     -0.321843    53A     -0.312415

  @DF-RHF Final Energy:  -613.36877341312879

   => Energetics <=

    Nuclear Repulsion Energy =            870.7129482186022642
    One-Electron Energy =               -2559.5397757585465115
    Two-Electron Energy =                1075.4580541268153411
    Total Energy =                       -613.3687734131287925
  Basis Set: (AUG-CC-PVTZ AUX)
    Blend: AUG-CC-PVTZ-RI
    Molecular point group: c1

    Geometry (in Angstrom), charge = 0, multiplicity = 1:

       Center              X                  Y                   Z               Mass
    ------------   -----------------  -----------------  -----------------  -----------------
         O            0.829325063457    -0.237091911192    -0.192096878357    15.994914619570
         C           -1.389457936543     0.486352088808     0.171740121643    12.000000000000
         C            0.056125063457     0.861253088808     0.306215121643    12.000000000000
         C           -4.117627436543    -0.204197011192    -0.087126078357    12.000000000000
         C           -1.865483936543    -0.683297911192     0.777152121643    12.000000000000
         C           -2.281127936543     1.288900088808    -0.543905878357    12.000000000000
         C           -3.208342936543    -1.035349911192     0.667513121643    12.000000000000
         C           -3.628448936543     0.936291088808    -0.642536878357    12.000000000000
         C            2.195831063457    -0.126978911192    -0.098818878357    12.000000000000
         C           -5.571758936543    -0.597204911192    -0.119927878357    12.000000000000
         C            2.877864063457     0.995060088808     0.384155121643    12.000000000000
         C            2.911003063457    -1.249618911192    -0.538165878357    12.000000000000
         C            4.277005063457     0.978565088808     0.424150121643    12.000000000000
         C            4.300868063457    -1.249647911192    -0.493330878357    12.000000000000
         C            4.993876063457    -0.134139911192    -0.009714878357    12.000000000000
         H            0.274127063457     1.774306088808    -0.265105878357     1.007825032230
         H            0.318889063457     1.045198088808     1.358125121643     1.007825032230
         H           -1.173653936543    -1.324197911192     1.319737121643     1.007825032230
         H           -1.921745936543     2.192886088808    -1.033192878357     1.007825032230
         H           -3.562927936543    -1.952020911192     1.136651121643     1.007825032230
         H           -4.309552936543     1.570735088808    -1.207566878357     1.007825032230
         H           -6.040090936543    -0.160550911192    -1.006481878357     1.007825032230
         H           -5.703613936543    -1.682091911192    -0.165609878357     1.007825032230
         H           -6.117403936543    -0.234074911192     0.757933121643     1.007825032230
         H            2.346481063457     1.877652088808     0.723408121643     1.007825032230
         H            2.351731063457    -2.104167911192    -0.909252878357     1.007825032230
         H            4.803691063457     1.852653088808     0.800364121643     1.007825032230
         H            4.846335063457    -2.125614911192    -0.836466878357     1.007825032230
         H            6.079955063457    -0.134941911192     0.025785121643     1.007825032230

  Basis Set: AUG-CC-PVTZ
    Blend: AUG-CC-PVTZ
  Basis Set: (AUG-CC-PVTZ AUX)
    Blend: AUG-CC-PVTZ-JKFIT
	 Reference Energy          =    -613.3687734131287925 [Eh]
	 Singles Energy            =      -0.0000000000000000 [Eh]
	 Same-Spin Energy          =      -0.6724579720805243 [Eh]
	 Opposite-Spin Energy      =      -2.1165894285652751 [Eh]
	 Correlation Energy        =      -2.7890474006457993 [Eh]
	 Total Energy              =    -616.1578208137746060 [Eh]

	 ================> DF-SCS-MP2 Energies <==================
	-----------------------------------------------------------
	 SCS Same-Spin Scale       =       0.3333333333333333 [-]
	 SCS Opposite-Spin Scale   =       1.2000000000000000 [-]
	 SCS Same-Spin Energy      =      -0.2241526573601748 [Eh]
	 SCS Opposite-Spin Energy  =      -2.5399073142783299 [Eh]
	 SCS Correlation Energy    =      -2.7640599716385048 [Eh]
	 SCS Total Energy          =    -616.1328333847673093 [Eh]
	-----------------------------------------------------------

  Dipole Moment: [D]
     X:    -0.9930      Y:     0.7258      Z:     0.4878     Total:     1.3231

*** Psi4 exiting successfully. Buy a developer a beer!
