                               Psi4 1.4a3.dev225

  ==> Input File <==

--------------------------------------------------------------------------
#psi4
#
memory 32 gb

molecule  {
0 1
  O        0.8655410    -0.2383350    -0.1978900
  C       -1.3532420     0.4851090     0.1659470
  C        0.0923410     0.8600100     0.3004220
  C       -4.0760200    -0.2326370    -0.0482320
  C       -1.8292680    -0.6845410     0.7713590
  C       -2.2449120     1.2876570    -0.5496990
  C       -3.1676940    -1.0566899     0.6746495
  C       -3.5922330     0.9350480    -0.6483300
  C        2.2320470    -0.1282220    -0.1046120
  C       -5.5355430    -0.5984480    -0.1257210
  C        2.9140800     0.9938170     0.3783620
  C        2.9472190    -1.2508620    -0.5439590
  C        4.3132210     0.9773220     0.4183570
  C        4.3370840    -1.2508910    -0.4991240
  C        5.0300920    -0.1353830    -0.0155080
  H        0.3103430     1.7730630    -0.2708990
  H        0.3551050     1.0439550     1.3523320
  H       -1.1374380    -1.3254410     1.3139440
  H       -1.8855300     2.1916430    -1.0389860
  H       -3.5267120    -1.9532640     1.1308580
  H       -4.2733370     1.5694920    -1.2133600
  H       -6.0038750    -0.1617940    -1.0122750
  H       -5.6673980    -1.6833350    -0.1714030
  H       -6.0811880    -0.2353180     0.7521400
  H        2.3826970     1.8764090     0.7176150
  H        2.3879470    -2.1054110    -0.9150460
  H        4.8399070     1.8514100     0.7945710
  H        4.8825510    -2.1268580    -0.8422600
  H        6.1161710    -0.1361850     0.0199920
units angstrom
no_reorient  #important for SAPT in psi4, default
symmetry c1  #important for SAPT in psi4, default
}

set PROPERTIES_ORIGIN ["COM"]
properties('MP2/aug-cc-pvtz', properties = ['dipole'])
--------------------------------------------------------------------------

    Molecular point group: c1
  Charge       = 0
  Multiplicity = 1
  Basis Set: AUG-CC-PVTZ
    Blend: AUG-CC-PVTZ
  Basis Set: (AUG-CC-PVTZ AUX)
    Blend: AUG-CC-PVTZ-JKFIT

    Orbital Energies [Eh]
    ---------------------

    Doubly Occupied:

       1A    -20.583767     2A    -11.300942     3A    -11.293221
       4A    -11.246296     5A    -11.240900     6A    -11.239332
       7A    -11.239180     8A    -11.237895     9A    -11.235223
      10A    -11.232878    11A    -11.232604    12A    -11.231998
      13A    -11.227605    14A    -11.227193    15A    -11.225791
      16A     -1.404750    17A     -1.157236    18A     -1.143352
      19A     -1.065822    20A     -1.017631    21A     -1.013922
      22A     -1.008246    23A     -0.963926    24A     -0.898604
      25A     -0.833409    26A     -0.830837    27A     -0.809030
      28A     -0.782256    29A     -0.721142    30A     -0.684395
      31A     -0.670092    32A     -0.663597    33A     -0.643440
      34A     -0.633191    35A     -0.619904    36A     -0.609769
      37A     -0.586751    38A     -0.585014    39A     -0.576546
      40A     -0.563676    41A     -0.544014    42A     -0.531206
      43A     -0.522796    44A     -0.513741    45A     -0.492574
      46A     -0.485611    47A     -0.483516    48A     -0.479428
      49A     -0.463962    50A     -0.339860    51A     -0.337032
      52A     -0.320620    53A     -0.312241

  @DF-RHF Final Energy:  -613.37070621561747

   => Energetics <=

    Nuclear Repulsion Energy =            870.3697046998684073
    One-Electron Energy =               -2558.8648953937536135
    Two-Electron Energy =                1075.1244844782677319
    Total Energy =                       -613.3707062156174743
  Basis Set: (AUG-CC-PVTZ AUX)
    Blend: AUG-CC-PVTZ-RI
    Molecular point group: c1

    Geometry (in Angstrom), charge = 0, multiplicity = 1:

       Center              X                  Y                   Z               Mass
    ------------   -----------------  -----------------  -----------------  -----------------
         O            0.828729953195    -0.234227131745    -0.195586958198    15.994914619570
         C           -1.390053046805     0.489216868255     0.168250041802    12.000000000000
         C            0.055529953195     0.864117868255     0.302725041802    12.000000000000
         C           -4.112831046805    -0.228529131745    -0.045928958198    12.000000000000
         C           -1.866079046805    -0.680433131745     0.773662041802    12.000000000000
         C           -2.281723046805     1.291764868255    -0.547395958198    12.000000000000
         C           -3.204505046805    -1.052582031745     0.676952541802    12.000000000000
         C           -3.629044046805     0.939155868255    -0.646026958198    12.000000000000
         C            2.195235953195    -0.124114131745    -0.102308958198    12.000000000000
         C           -5.572354046805    -0.594340131745    -0.123417958198    12.000000000000
         C            2.877268953195     0.997924868255     0.380665041802    12.000000000000
         C            2.910407953195    -1.246754131745    -0.541655958198    12.000000000000
         C            4.276409953195     0.981429868255     0.420660041802    12.000000000000
         C            4.300272953195    -1.246783131745    -0.496820958198    12.000000000000
         C            4.993280953195    -0.131275131745    -0.013204958198    12.000000000000
         H            0.273531953195     1.777170868255    -0.268595958198     1.007825032230
         H            0.318293953195     1.048062868255     1.354635041802     1.007825032230
         H           -1.174249046805    -1.321333131745     1.316247041802     1.007825032230
         H           -1.922341046805     2.195750868255    -1.036682958198     1.007825032230
         H           -3.563523046805    -1.949156131745     1.133161041802     1.007825032230
         H           -4.310148046805     1.573599868255    -1.211056958198     1.007825032230
         H           -6.040686046805    -0.157686131745    -1.009971958198     1.007825032230
         H           -5.704209046805    -1.679227131745    -0.169099958198     1.007825032230
         H           -6.117999046805    -0.231210131745     0.754443041802     1.007825032230
         H            2.345885953195     1.880516868255     0.719918041802     1.007825032230
         H            2.351135953195    -2.101303131745    -0.912742958198     1.007825032230
         H            4.803095953195     1.855517868255     0.796874041802     1.007825032230
         H            4.845739953195    -2.122750131745    -0.839956958198     1.007825032230
         H            6.079359953195    -0.132077131745     0.022295041802     1.007825032230

  Basis Set: AUG-CC-PVTZ
    Blend: AUG-CC-PVTZ
  Basis Set: (AUG-CC-PVTZ AUX)
    Blend: AUG-CC-PVTZ-JKFIT
	 Reference Energy          =    -613.3707062156174743 [Eh]
	 Singles Energy            =      -0.0000000000000000 [Eh]
	 Same-Spin Energy          =      -0.6725920979008506 [Eh]
	 Opposite-Spin Energy      =      -2.1166106684030539 [Eh]
	 Correlation Energy        =      -2.7892027663039043 [Eh]
	 Total Energy              =    -616.1599089819213759 [Eh]

	 ================> DF-SCS-MP2 Energies <==================
	-----------------------------------------------------------
	 SCS Same-Spin Scale       =       0.3333333333333333 [-]
	 SCS Opposite-Spin Scale   =       1.2000000000000000 [-]
	 SCS Same-Spin Energy      =      -0.2241973659669502 [Eh]
	 SCS Opposite-Spin Energy  =      -2.5399328020836647 [Eh]
	 SCS Correlation Energy    =      -2.7641301680506150 [Eh]
	 SCS Total Energy          =    -616.1348363836681301 [Eh]
	-----------------------------------------------------------

  Dipole Moment: [D]
     X:    -1.0129      Y:     0.7235      Z:     0.4747     Total:     1.3322

*** Psi4 exiting successfully. Buy a developer a beer!
