                               Psi4 1.4a3.dev225

  ==> Input File <==

--------------------------------------------------------------------------
#psi4
#
memory 32 gb

molecule  {
0 1
  O        0.8655410    -0.2383350    -0.1978900
  C       -1.3532420     0.4851090     0.1659470
  C        0.0923410     0.8600100     0.3004220
  C       -4.0760200    -0.2326370    -0.0482320
  C       -1.8292680    -0.6845410     0.7713590
  C       -2.2449120     1.2876570    -0.5496990
  C       -3.1721270    -1.0365930     0.6617200
  C       -3.5922330     0.9350480    -0.6483300
  C        2.2320470    -0.1282220    -0.1046120
  C       -5.5355430    -0.5984480    -0.1257210
  C        2.9140800     0.9938170     0.3783620
  C        2.9472190    -1.2508620    -0.5439590
  C        4.3132210     0.9773220     0.4183570
  C        4.3370840    -1.2508910    -0.4991240
  C        5.0300920    -0.1353830    -0.0155080
  H        0.3103430     1.7730630    -0.2708990
  H        0.3551050     1.0439550     1.3523320
  H       -1.1374380    -1.3254410     1.3139440
  H       -1.8855300     2.1916430    -1.0389860
  H       -3.5267120    -1.9532640     1.1308580
  H       -4.2733370     1.5694920    -1.2133600
  H       -6.0038750    -0.1617940    -1.0122750
  H       -5.6673980    -1.6833350    -0.1714030
  H       -6.1807991    -0.1690262     0.9123993
  H        2.3826970     1.8764090     0.7176150
  H        2.3879470    -2.1054110    -0.9150460
  H        4.8399070     1.8514100     0.7945710
  H        4.8825510    -2.1268580    -0.8422600
  H        6.1161710    -0.1361850     0.0199920
units angstrom
no_reorient  #important for SAPT in psi4, default
symmetry c1  #important for SAPT in psi4, default
}

set PROPERTIES_ORIGIN ["COM"]
properties('MP2/aug-cc-pvtz', properties = ['dipole'])
--------------------------------------------------------------------------

    Molecular point group: c1
  Charge       = 0
  Multiplicity = 1
  Basis Set: AUG-CC-PVTZ
    Blend: AUG-CC-PVTZ
  Basis Set: (AUG-CC-PVTZ AUX)
    Blend: AUG-CC-PVTZ-JKFIT

    Orbital Energies [Eh]
    ---------------------

    Doubly Occupied:

       1A    -20.584475     2A    -11.301421     3A    -11.293898
       4A    -11.248393     5A    -11.245476     6A    -11.241286
       7A    -11.240358     8A    -11.239722     9A    -11.238465
      10A    -11.235788    11A    -11.233764    12A    -11.233412
      13A    -11.233321    14A    -11.228042    15A    -11.227584
      16A     -1.405433    17A     -1.159706    18A     -1.144132
      19A     -1.066494    20A     -1.017894    21A     -1.014392
      22A     -1.007787    23A     -0.960042    24A     -0.894381
      25A     -0.833878    26A     -0.831519    27A     -0.809007
      28A     -0.782090    29A     -0.721627    30A     -0.683829
      31A     -0.671427    32A     -0.664118    33A     -0.643765
      34A     -0.631860    35A     -0.621779    36A     -0.609818
      37A     -0.587067    38A     -0.584570    39A     -0.565403
      40A     -0.550073    41A     -0.543536    42A     -0.528928
      43A     -0.523816    44A     -0.514549    45A     -0.490174
      46A     -0.487813    47A     -0.483025    48A     -0.476708
      49A     -0.463745    50A     -0.340266    51A     -0.337624
      52A     -0.321507    53A     -0.312704

  @DF-RHF Final Energy:  -613.35193655978105

   => Energetics <=

    Nuclear Repulsion Energy =            869.9504780597239915
    One-Electron Energy =               -2557.9810474425107714
    Two-Electron Energy =                1074.6786328230057279
    Total Energy =                       -613.3519365597810520
  Basis Set: (AUG-CC-PVTZ AUX)
    Blend: AUG-CC-PVTZ-RI
    Molecular point group: c1

    Geometry (in Angstrom), charge = 0, multiplicity = 1:

       Center              X                  Y                   Z               Mass
    ------------   -----------------  -----------------  -----------------  -----------------
         O            0.829505233854    -0.235781732422    -0.195619059111    15.994914619570
         C           -1.389277766146     0.487662267578     0.168217940889    12.000000000000
         C            0.056305233854     0.862563267578     0.302692940889    12.000000000000
         C           -4.112055766146    -0.230083732422    -0.045961059111    12.000000000000
         C           -1.865303766146    -0.681987732422     0.773629940889    12.000000000000
         C           -2.280947766146     1.290210267578    -0.547428059111    12.000000000000
         C           -3.208162766146    -1.034039732422     0.663990940889    12.000000000000
         C           -3.628268766146     0.937601267578    -0.646059059111    12.000000000000
         C            2.196011233854    -0.125668732422    -0.102341059111    12.000000000000
         C           -5.571578766146    -0.595894732422    -0.123450059111    12.000000000000
         C            2.878044233854     0.996370267578     0.380632940889    12.000000000000
         C            2.911183233854    -1.248308732422    -0.541688059111    12.000000000000
         C            4.277185233854     0.979875267578     0.420627940889    12.000000000000
         C            4.301048233854    -1.248337732422    -0.496853059111    12.000000000000
         C            4.994056233854    -0.132829732422    -0.013237059111    12.000000000000
         H            0.274307233854     1.775616267578    -0.268628059111     1.007825032230
         H            0.319069233854     1.046508267578     1.354602940889     1.007825032230
         H           -1.173473766146    -1.322887732422     1.316214940889     1.007825032230
         H           -1.921565766146     2.194196267578    -1.036715059111     1.007825032230
         H           -3.562747766146    -1.950710732422     1.133128940889     1.007825032230
         H           -4.309372766146     1.572045267578    -1.211089059111     1.007825032230
         H           -6.039910766146    -0.159240732422    -1.010004059111     1.007825032230
         H           -5.703433766146    -1.680781732422    -0.169132059111     1.007825032230
         H           -6.216834866146    -0.166472932422     0.914670240889     1.007825032230
         H            2.346661233854     1.878962267578     0.719885940889     1.007825032230
         H            2.351911233854    -2.102857732422    -0.912775059111     1.007825032230
         H            4.803871233854     1.853963267578     0.796841940889     1.007825032230
         H            4.846515233854    -2.124304732422    -0.839989059111     1.007825032230
         H            6.080135233854    -0.133631732422     0.022262940889     1.007825032230

  Basis Set: AUG-CC-PVTZ
    Blend: AUG-CC-PVTZ
  Basis Set: (AUG-CC-PVTZ AUX)
    Blend: AUG-CC-PVTZ-JKFIT
	 Reference Energy          =    -613.3519365597810520 [Eh]
	 Singles Energy            =      -0.0000000000000000 [Eh]
	 Same-Spin Energy          =      -0.6726140749278399 [Eh]
	 Opposite-Spin Energy      =      -2.1179965133421446 [Eh]
	 Correlation Energy        =      -2.7906105882699843 [Eh]
	 Total Energy              =    -616.1425471480509941 [Eh]

	 ================> DF-SCS-MP2 Energies <==================
	-----------------------------------------------------------
	 SCS Same-Spin Scale       =       0.3333333333333333 [-]
	 SCS Opposite-Spin Scale   =       1.2000000000000000 [-]
	 SCS Same-Spin Energy      =      -0.2242046916426133 [Eh]
	 SCS Opposite-Spin Energy  =      -2.5415958160105734 [Eh]
	 SCS Correlation Energy    =      -2.7658005076531866 [Eh]
	 SCS Total Energy          =    -616.1177370674342910 [Eh]
	-----------------------------------------------------------

  Dipole Moment: [D]
     X:    -0.8537      Y:     0.7196      Z:     0.3951     Total:     1.1843

*** Psi4 exiting successfully. Buy a developer a beer!
