                               Psi4 1.4a3.dev225

  ==> Input File <==

--------------------------------------------------------------------------
#psi4
#
memory 32 gb

molecule  {
0 1
  O        0.8655410    -0.2383350    -0.1978900
  C       -1.3532420     0.4851090     0.1659470
  C        0.0923410     0.8600100     0.3004220
  C       -4.0760200    -0.2326370    -0.0482320
  C       -1.8292680    -0.6845410     0.7713590
  C       -2.2449120     1.2876570    -0.5496990
  C       -3.1721270    -1.0365930     0.6617200
  C       -3.5922330     0.9350480    -0.6483300
  C        2.2320470    -0.1282220    -0.1046120
  C       -5.5355430    -0.5984480    -0.1257210
  C        2.9043302     0.9777772     0.3714578
  C        2.9472190    -1.2508620    -0.5439590
  C        4.3132210     0.9773220     0.4183570
  C        4.3370840    -1.2508910    -0.4991240
  C        5.0300920    -0.1353830    -0.0155080
  H        0.3103430     1.7730630    -0.2708990
  H        0.3551050     1.0439550     1.3523320
  H       -1.1374380    -1.3254410     1.3139440
  H       -1.8855300     2.1916430    -1.0389860
  H       -3.5267120    -1.9532640     1.1308580
  H       -4.2733370     1.5694920    -1.2133600
  H       -6.0038750    -0.1617940    -1.0122750
  H       -5.6673980    -1.6833350    -0.1714030
  H       -6.0811880    -0.2353180     0.7521400
  H        2.3826970     1.8764090     0.7176150
  H        2.3879470    -2.1054110    -0.9150460
  H        4.8399070     1.8514100     0.7945710
  H        4.8825510    -2.1268580    -0.8422600
  H        6.1161710    -0.1361850     0.0199920
units angstrom
no_reorient  #important for SAPT in psi4, default
symmetry c1  #important for SAPT in psi4, default
}

set PROPERTIES_ORIGIN ["COM"]
properties('MP2/aug-cc-pvtz', properties = ['dipole'])
--------------------------------------------------------------------------

    Molecular point group: c1
  Charge       = 0
  Multiplicity = 1
  Basis Set: AUG-CC-PVTZ
    Blend: AUG-CC-PVTZ
  Basis Set: (AUG-CC-PVTZ AUX)
    Blend: AUG-CC-PVTZ-JKFIT

    Orbital Energies [Eh]
    ---------------------

    Doubly Occupied:

       1A    -20.583148     2A    -11.298514     3A    -11.292739
       4A    -11.243661     5A    -11.241946     6A    -11.239246
       7A    -11.238886     8A    -11.237343     9A    -11.234759
      10A    -11.232371    11A    -11.232098    12A    -11.231934
      13A    -11.228223    14A    -11.227702    15A    -11.225746
      16A     -1.404548    17A     -1.158832    18A     -1.144508
      19A     -1.066806    20A     -1.016359    21A     -1.013443
      22A     -1.009909    23A     -0.964383    24A     -0.899357
      25A     -0.833648    26A     -0.831879    27A     -0.808161
      28A     -0.782059    29A     -0.721464    30A     -0.683606
      31A     -0.670261    32A     -0.662651    33A     -0.644573
      34A     -0.631388    35A     -0.620435    36A     -0.609521
      37A     -0.585458    38A     -0.583376    39A     -0.576832
      40A     -0.563075    41A     -0.543367    42A     -0.531829
      43A     -0.522974    44A     -0.512290    45A     -0.492091
      46A     -0.486475    47A     -0.484815    48A     -0.479465
      49A     -0.463804    50A     -0.339156    51A     -0.336569
      52A     -0.322071    53A     -0.314220

  @DF-RHF Final Energy:  -613.37125626153636

   => Energetics <=

    Nuclear Repulsion Energy =            871.0553739452341233
    One-Electron Energy =               -2560.2453035729422481
    Two-Electron Energy =                1075.8186733661716517
    Total Energy =                       -613.3712562615364732
  Basis Set: (AUG-CC-PVTZ AUX)
    Blend: AUG-CC-PVTZ-RI
    Molecular point group: c1

    Geometry (in Angstrom), charge = 0, multiplicity = 1:

       Center              X                  Y                   Z               Mass
    ------------   -----------------  -----------------  -----------------  -----------------
         O            0.829589063564    -0.234472886933    -0.194385549639    15.994914619570
         C           -1.389193936436     0.488971113067     0.169451450361    12.000000000000
         C            0.056389063564     0.863872113067     0.303926450361    12.000000000000
         C           -4.111971936436    -0.228774886933    -0.044727549639    12.000000000000
         C           -1.865219936436    -0.680678886933     0.774863450361    12.000000000000
         C           -2.280863936436     1.291519113067    -0.546194549639    12.000000000000
         C           -3.208078936436    -1.032730886933     0.665224450361    12.000000000000
         C           -3.628184936436     0.938910113067    -0.644825549639    12.000000000000
         C            2.196095063564    -0.124359886933    -0.101107549639    12.000000000000
         C           -5.571494936436    -0.594585886933    -0.122216549639    12.000000000000
         C            2.868378263564     0.981639313067     0.374962250361    12.000000000000
         C            2.911267063564    -1.246999886933    -0.540454549639    12.000000000000
         C            4.277269063564     0.981184113067     0.421861450361    12.000000000000
         C            4.301132063564    -1.247028886933    -0.495619549639    12.000000000000
         C            4.994140063564    -0.131520886933    -0.012003549639    12.000000000000
         H            0.274391063564     1.776925113067    -0.267394549639     1.007825032230
         H            0.319153063564     1.047817113067     1.355836450361     1.007825032230
         H           -1.173389936436    -1.321578886933     1.317448450361     1.007825032230
         H           -1.921481936436     2.195505113067    -1.035481549639     1.007825032230
         H           -3.562663936436    -1.949401886933     1.134362450361     1.007825032230
         H           -4.309288936436     1.573354113067    -1.209855549639     1.007825032230
         H           -6.039826936436    -0.157931886933    -1.008770549639     1.007825032230
         H           -5.703349936436    -1.679472886933    -0.167898549639     1.007825032230
         H           -6.117139936436    -0.231455886933     0.755644450361     1.007825032230
         H            2.346745063564     1.880271113067     0.721119450361     1.007825032230
         H            2.351995063564    -2.101548886933    -0.911541549639     1.007825032230
         H            4.803955063564     1.855272113067     0.798075450361     1.007825032230
         H            4.846599063564    -2.122995886933    -0.838755549639     1.007825032230
         H            6.080219063564    -0.132322886933     0.023496450361     1.007825032230

  Basis Set: AUG-CC-PVTZ
    Blend: AUG-CC-PVTZ
  Basis Set: (AUG-CC-PVTZ AUX)
    Blend: AUG-CC-PVTZ-JKFIT
	 Reference Energy          =    -613.3712562615363595 [Eh]
	 Singles Energy            =      -0.0000000000000000 [Eh]
	 Same-Spin Energy          =      -0.6726207321672318 [Eh]
	 Opposite-Spin Energy      =      -2.1164810660764490 [Eh]
	 Correlation Energy        =      -2.7891017982436810 [Eh]
	 Total Energy              =    -616.1603580597800374 [Eh]

	 ================> DF-SCS-MP2 Energies <==================
	-----------------------------------------------------------
	 SCS Same-Spin Scale       =       0.3333333333333333 [-]
	 SCS Opposite-Spin Scale   =       1.2000000000000000 [-]
	 SCS Same-Spin Energy      =      -0.2242069107224106 [Eh]
	 SCS Opposite-Spin Energy  =      -2.5397772792917386 [Eh]
	 SCS Correlation Energy    =      -2.7639841900141491 [Eh]
	 SCS Total Energy          =    -616.1352404515505441 [Eh]
	-----------------------------------------------------------

  Dipole Moment: [D]
     X:    -0.9616      Y:     0.7319      Z:     0.4724     Total:     1.2975

*** Psi4 exiting successfully. Buy a developer a beer!
