                               Psi4 1.4a3.dev225

  ==> Input File <==

--------------------------------------------------------------------------
#psi4
#
memory 32 gb

molecule  {
0 1
  O        0.8655410    -0.2383350    -0.1978900
  C       -1.3532420     0.4851090     0.1659470
  C        0.0923410     0.8600100     0.3004220
  C       -4.0760200    -0.2326370    -0.0482320
  C       -1.8292680    -0.6845410     0.7713590
  C       -2.2449120     1.2876570    -0.5496990
  C       -3.1721270    -1.0365930     0.6617200
  C       -3.5922330     0.9350480    -0.6483300
  C        2.2320470    -0.1282220    -0.1046120
  C       -5.5355430    -0.5984480    -0.1257210
  C        2.9140800     0.9938170     0.3783620
  C        2.9472190    -1.2508620    -0.5439590
  C        4.3132210     0.9773220     0.4183570
  C        4.3370840    -1.2508910    -0.4991240
  C        5.0300920    -0.1353830    -0.0155080
  H        0.3103430     1.7730630    -0.2708990
  H        0.3551050     1.0439550     1.3523320
  H       -1.1374380    -1.3254410     1.3139440
  H       -1.8855300     2.1916430    -1.0389860
  H       -3.5267120    -1.9532640     1.1308580
  H       -4.2733370     1.5694920    -1.2133600
  H       -6.0038750    -0.1617940    -1.0122750
  H       -5.6673980    -1.6833350    -0.1714030
  H       -6.0811880    -0.2353180     0.7521400
  H        2.3582010     1.9170952     0.7332541
  H        2.3879470    -2.1054110    -0.9150460
  H        4.8399070     1.8514100     0.7945710
  H        4.8825510    -2.1268580    -0.8422600
  H        6.1161710    -0.1361850     0.0199920
units angstrom
no_reorient  #important for SAPT in psi4, default
symmetry c1  #important for SAPT in psi4, default
}

set PROPERTIES_ORIGIN ["COM"]
properties('MP2/aug-cc-pvtz', properties = ['dipole'])
--------------------------------------------------------------------------

    Molecular point group: c1
  Charge       = 0
  Multiplicity = 1
  Basis Set: AUG-CC-PVTZ
    Blend: AUG-CC-PVTZ
  Basis Set: (AUG-CC-PVTZ AUX)
    Blend: AUG-CC-PVTZ-JKFIT

    Orbital Energies [Eh]
    ---------------------

    Doubly Occupied:

       1A    -20.583941     2A    -11.301554     3A    -11.292943
       4A    -11.243758     5A    -11.241510     6A    -11.239606
       7A    -11.238983     8A    -11.238550     9A    -11.237449
      10A    -11.234866    11A    -11.232191    12A    -11.232028
      13A    -11.228080    14A    -11.227626    15A    -11.225815
      16A     -1.404870    17A     -1.158764    18A     -1.143792
      19A     -1.066958    20A     -1.016996    21A     -1.013278
      22A     -1.007847    23A     -0.963912    24A     -0.899231
      25A     -0.832902    26A     -0.830395    27A     -0.808222
      28A     -0.782104    29A     -0.719927    30A     -0.683613
      31A     -0.670248    32A     -0.661351    33A     -0.643436
      34A     -0.630452    35A     -0.620440    36A     -0.607660
      37A     -0.584968    38A     -0.583475    39A     -0.576893
      40A     -0.563166    41A     -0.543313    42A     -0.531874
      43A     -0.522860    44A     -0.513402    45A     -0.491003
      46A     -0.486572    47A     -0.485001    48A     -0.477563
      49A     -0.464305    50A     -0.340201    51A     -0.336679
      52A     -0.322150    53A     -0.312615

  @DF-RHF Final Energy:  -613.36901619318724

   => Energetics <=

    Nuclear Repulsion Energy =            870.5160333438544740
    One-Electron Energy =               -2559.1674228684082664
    Two-Electron Energy =                1075.2823733313666708
    Total Energy =                       -613.3690161931872353
  Basis Set: (AUG-CC-PVTZ AUX)
    Blend: AUG-CC-PVTZ-RI
    Molecular point group: c1

    Geometry (in Angstrom), charge = 0, multiplicity = 1:

       Center              X                  Y                   Z               Mass
    ------------   -----------------  -----------------  -----------------  -----------------
         O            0.829123097701    -0.235651467995    -0.194883326791    15.994914619570
         C           -1.389659902299     0.487792532005     0.168953673209    12.000000000000
         C            0.055923097701     0.862693532005     0.303428673209    12.000000000000
         C           -4.112437902299    -0.229953467995    -0.045225326791    12.000000000000
         C           -1.865685902299    -0.681857467995     0.774365673209    12.000000000000
         C           -2.281329902299     1.290340532005    -0.546692326791    12.000000000000
         C           -3.208544902299    -1.033909467995     0.664726673209    12.000000000000
         C           -3.628650902299     0.937731532005    -0.645323326791    12.000000000000
         C            2.195629097701    -0.125538467995    -0.101605326791    12.000000000000
         C           -5.571960902299    -0.595764467995    -0.122714326791    12.000000000000
         C            2.877662097701     0.996500532005     0.381368673209    12.000000000000
         C            2.910801097701    -1.248178467995    -0.540952326791    12.000000000000
         C            4.276803097701     0.980005532005     0.421363673209    12.000000000000
         C            4.300666097701    -1.248207467995    -0.496117326791    12.000000000000
         C            4.993674097701    -0.132699467995    -0.012501326791    12.000000000000
         H            0.273925097701     1.775746532005    -0.267892326791     1.007825032230
         H            0.318687097701     1.046638532005     1.355338673209     1.007825032230
         H           -1.173855902299    -1.322757467995     1.316950673209     1.007825032230
         H           -1.921947902299     2.194326532005    -1.035979326791     1.007825032230
         H           -3.563129902299    -1.950580467995     1.133864673209     1.007825032230
         H           -4.309754902299     1.572175532005    -1.210353326791     1.007825032230
         H           -6.040292902299    -0.159110467995    -1.009268326791     1.007825032230
         H           -5.703815902299    -1.680651467995    -0.168396326791     1.007825032230
         H           -6.117605902299    -0.232634467995     0.755146673209     1.007825032230
         H            2.321783097701     1.919778732005     0.736260773209     1.007825032230
         H            2.351529097701    -2.102727467995    -0.912039326791     1.007825032230
         H            4.803489097701     1.854093532005     0.797577673209     1.007825032230
         H            4.846133097701    -2.124174467995    -0.839253326791     1.007825032230
         H            6.079753097701    -0.133501467995     0.022998673209     1.007825032230

  Basis Set: AUG-CC-PVTZ
    Blend: AUG-CC-PVTZ
  Basis Set: (AUG-CC-PVTZ AUX)
    Blend: AUG-CC-PVTZ-JKFIT
	 Reference Energy          =    -613.3690161931872353 [Eh]
	 Singles Energy            =      -0.0000000000000000 [Eh]
	 Same-Spin Energy          =      -0.6728139612086715 [Eh]
	 Opposite-Spin Energy      =      -2.1169752653282612 [Eh]
	 Correlation Energy        =      -2.7897892265369326 [Eh]
	 Total Energy              =    -616.1588054197242172 [Eh]

	 ================> DF-SCS-MP2 Energies <==================
	-----------------------------------------------------------
	 SCS Same-Spin Scale       =       0.3333333333333333 [-]
	 SCS Opposite-Spin Scale   =       1.2000000000000000 [-]
	 SCS Same-Spin Energy      =      -0.2242713204028905 [Eh]
	 SCS Opposite-Spin Energy  =      -2.5403703183939133 [Eh]
	 SCS Correlation Energy    =      -2.7646416387968036 [Eh]
	 SCS Total Energy          =    -616.1336578319840100 [Eh]
	-----------------------------------------------------------

  Dipole Moment: [D]
     X:    -0.9884      Y:     0.7225      Z:     0.4680     Total:     1.3107

*** Psi4 exiting successfully. Buy a developer a beer!
