                               Psi4 1.4a3.dev225

  ==> Input File <==

--------------------------------------------------------------------------
#psi4
#
memory 32 gb

molecule  {
0 1
  O        0.8655410    -0.2383350    -0.1978900
  C       -1.3532420     0.4851090     0.1659470
  C        0.0923410     0.8600100     0.3004220
  C       -4.0720539    -0.2445075    -0.0713585
  C       -1.8292680    -0.6845410     0.7713590
  C       -2.2449120     1.2876570    -0.5496990
  C       -3.1721270    -1.0365930     0.6617200
  C       -3.5922330     0.9350480    -0.6483300
  C        2.2320470    -0.1282220    -0.1046120
  C       -5.5355430    -0.5984480    -0.1257210
  C        2.9140800     0.9938170     0.3783620
  C        2.9472190    -1.2508620    -0.5439590
  C        4.3132210     0.9773220     0.4183570
  C        4.3370840    -1.2508910    -0.4991240
  C        5.0300920    -0.1353830    -0.0155080
  H        0.3103430     1.7730630    -0.2708990
  H        0.3551050     1.0439550     1.3523320
  H       -1.1374380    -1.3254410     1.3139440
  H       -1.8855300     2.1916430    -1.0389860
  H       -3.5267120    -1.9532640     1.1308580
  H       -4.2733370     1.5694920    -1.2133600
  H       -6.0038750    -0.1617940    -1.0122750
  H       -5.6673980    -1.6833350    -0.1714030
  H       -6.0811880    -0.2353180     0.7521400
  H        2.3826970     1.8764090     0.7176150
  H        2.3879470    -2.1054110    -0.9150460
  H        4.8399070     1.8514100     0.7945710
  H        4.8825510    -2.1268580    -0.8422600
  H        6.1161710    -0.1361850     0.0199920
units angstrom
no_reorient  #important for SAPT in psi4, default
symmetry c1  #important for SAPT in psi4, default
}

set PROPERTIES_ORIGIN ["COM"]
properties('MP2/aug-cc-pvtz', properties = ['dipole'])
--------------------------------------------------------------------------

    Molecular point group: c1
  Charge       = 0
  Multiplicity = 1
  Basis Set: AUG-CC-PVTZ
    Blend: AUG-CC-PVTZ
  Basis Set: (AUG-CC-PVTZ AUX)
    Blend: AUG-CC-PVTZ-JKFIT

    Orbital Energies [Eh]
    ---------------------

    Doubly Occupied:

       1A    -20.583963     2A    -11.301057     3A    -11.293253
       4A    -11.243851     5A    -11.240989     6A    -11.239423
       7A    -11.239269     8A    -11.237602     9A    -11.234980
      10A    -11.232982    11A    -11.232443    12A    -11.232219
      13A    -11.227711    14A    -11.227286    15A    -11.225824
      16A     -1.404924    17A     -1.158775    18A     -1.143741
      19A     -1.066992    20A     -1.017758    21A     -1.013382
      22A     -1.008350    23A     -0.964058    24A     -0.899479
      25A     -0.833016    26A     -0.831310    27A     -0.808991
      28A     -0.782403    29A     -0.721195    30A     -0.683972
      31A     -0.670569    32A     -0.663722    33A     -0.643789
      34A     -0.631015    35A     -0.620566    36A     -0.609415
      37A     -0.586814    38A     -0.583495    39A     -0.576934
      40A     -0.563748    41A     -0.543281    42A     -0.532064
      43A     -0.522771    44A     -0.513983    45A     -0.492014
      46A     -0.486270    47A     -0.484206    48A     -0.479129
      49A     -0.464300    50A     -0.339969    51A     -0.336701
      52A     -0.322369    53A     -0.312355

  @DF-RHF Final Energy:  -613.37119027023527

   => Energetics <=

    Nuclear Repulsion Energy =            870.7330308147674032
    One-Electron Energy =               -2559.5870799708104641
    Two-Electron Energy =                1075.4828588858076728
    Total Energy =                       -613.3711902702352745
  Basis Set: (AUG-CC-PVTZ AUX)
    Blend: AUG-CC-PVTZ-RI
    Molecular point group: c1

    Geometry (in Angstrom), charge = 0, multiplicity = 1:

       Center              X                  Y                   Z               Mass
    ------------   -----------------  -----------------  -----------------  -----------------
         O            0.828758235244    -0.234725438534    -0.193402898390    15.994914619570
         C           -1.390024764756     0.488718561466     0.170434101610    12.000000000000
         C            0.055558235244     0.863619561466     0.304909101610    12.000000000000
         C           -4.108836664756    -0.240897938534    -0.066871398390    12.000000000000
         C           -1.866050764756    -0.680931438534     0.775846101610    12.000000000000
         C           -2.281694764756     1.291266561466    -0.545211898390    12.000000000000
         C           -3.208909764756    -1.032983438534     0.666207101610    12.000000000000
         C           -3.629015764756     0.938657561466    -0.643842898390    12.000000000000
         C            2.195264235244    -0.124612438534    -0.100124898390    12.000000000000
         C           -5.572325764756    -0.594838438534    -0.121233898390    12.000000000000
         C            2.877297235244     0.997426561466     0.382849101610    12.000000000000
         C            2.910436235244    -1.247252438534    -0.539471898390    12.000000000000
         C            4.276438235244     0.980931561466     0.422844101610    12.000000000000
         C            4.300301235244    -1.247281438534    -0.494636898390    12.000000000000
         C            4.993309235244    -0.131773438534    -0.011020898390    12.000000000000
         H            0.273560235244     1.776672561466    -0.266411898390     1.007825032230
         H            0.318322235244     1.047564561466     1.356819101610     1.007825032230
         H           -1.174220764756    -1.321831438534     1.318431101610     1.007825032230
         H           -1.922312764756     2.195252561466    -1.034498898390     1.007825032230
         H           -3.563494764756    -1.949654438534     1.135345101610     1.007825032230
         H           -4.310119764756     1.573101561466    -1.208872898390     1.007825032230
         H           -6.040657764756    -0.158184438534    -1.007787898390     1.007825032230
         H           -5.704180764756    -1.679725438534    -0.166915898390     1.007825032230
         H           -6.117970764756    -0.231708438534     0.756627101610     1.007825032230
         H            2.345914235244     1.880018561466     0.722102101610     1.007825032230
         H            2.351164235244    -2.101801438534    -0.910558898390     1.007825032230
         H            4.803124235244     1.855019561466     0.799058101610     1.007825032230
         H            4.845768235244    -2.123248438534    -0.837772898390     1.007825032230
         H            6.079388235244    -0.132575438534     0.024479101610     1.007825032230

  Basis Set: AUG-CC-PVTZ
    Blend: AUG-CC-PVTZ
  Basis Set: (AUG-CC-PVTZ AUX)
    Blend: AUG-CC-PVTZ-JKFIT
	 Reference Energy          =    -613.3711902702352745 [Eh]
	 Singles Energy            =      -0.0000000000000000 [Eh]
	 Same-Spin Energy          =      -0.6726672501493853 [Eh]
	 Opposite-Spin Energy      =      -2.1165836357057226 [Eh]
	 Correlation Energy        =      -2.7892508858551079 [Eh]
	 Total Energy              =    -616.1604411560904282 [Eh]

	 ================> DF-SCS-MP2 Energies <==================
	-----------------------------------------------------------
	 SCS Same-Spin Scale       =       0.3333333333333333 [-]
	 SCS Opposite-Spin Scale   =       1.2000000000000000 [-]
	 SCS Same-Spin Energy      =      -0.2242224167164618 [Eh]
	 SCS Opposite-Spin Energy  =      -2.5399003628468670 [Eh]
	 SCS Correlation Energy    =      -2.7641227795633290 [Eh]
	 SCS Total Energy          =    -616.1353130497985831 [Eh]
	-----------------------------------------------------------

  Dipole Moment: [D]
     X:    -0.9933      Y:     0.7395      Z:     0.4819     Total:     1.3289

*** Psi4 exiting successfully. Buy a developer a beer!
