                               Psi4 1.4a3.dev225

  ==> Input File <==

--------------------------------------------------------------------------
#psi4
#
memory 32 gb

molecule  {
0 1
  O        0.8655410    -0.2383350    -0.1978900
  C       -1.3532420     0.4851090     0.1659470
  C        0.0999762     0.8167245     0.3288355
  C       -4.0760200    -0.2326370    -0.0482320
  C       -1.8292680    -0.6845410     0.7713590
  C       -2.2449120     1.2876570    -0.5496990
  C       -3.1721270    -1.0365930     0.6617200
  C       -3.5922330     0.9350480    -0.6483300
  C        2.2320470    -0.1282220    -0.1046120
  C       -5.5355430    -0.5984480    -0.1257210
  C        2.9140800     0.9938170     0.3783620
  C        2.9472190    -1.2508620    -0.5439590
  C        4.3132210     0.9773220     0.4183570
  C        4.3370840    -1.2508910    -0.4991240
  C        5.0300920    -0.1353830    -0.0155080
  H        0.3103430     1.7730630    -0.2708990
  H        0.3551050     1.0439550     1.3523320
  H       -1.1374380    -1.3254410     1.3139440
  H       -1.8855300     2.1916430    -1.0389860
  H       -3.5267120    -1.9532640     1.1308580
  H       -4.2733370     1.5694920    -1.2133600
  H       -6.0038750    -0.1617940    -1.0122750
  H       -5.6673980    -1.6833350    -0.1714030
  H       -6.0811880    -0.2353180     0.7521400
  H        2.3826970     1.8764090     0.7176150
  H        2.3879470    -2.1054110    -0.9150460
  H        4.8399070     1.8514100     0.7945710
  H        4.8825510    -2.1268580    -0.8422600
  H        6.1161710    -0.1361850     0.0199920
units angstrom
no_reorient  #important for SAPT in psi4, default
symmetry c1  #important for SAPT in psi4, default
}

set PROPERTIES_ORIGIN ["COM"]
properties('MP2/aug-cc-pvtz', properties = ['dipole'])
--------------------------------------------------------------------------

    Molecular point group: c1
  Charge       = 0
  Multiplicity = 1
  Basis Set: AUG-CC-PVTZ
    Blend: AUG-CC-PVTZ
  Basis Set: (AUG-CC-PVTZ AUX)
    Blend: AUG-CC-PVTZ-JKFIT

    Orbital Energies [Eh]
    ---------------------

    Doubly Occupied:

       1A    -20.586145     2A    -11.302376     3A    -11.293520
       4A    -11.243568     5A    -11.241612     6A    -11.240142
       7A    -11.238610     8A    -11.237422     9A    -11.233996
      10A    -11.233957    11A    -11.232126    12A    -11.231408
      13A    -11.228955    14A    -11.228333    15A    -11.225655
      16A     -1.413738    17A     -1.158636    18A     -1.144929
      19A     -1.066619    20A     -1.018711    21A     -1.013414
      22A     -1.009653    23A     -0.963149    24A     -0.899064
      25A     -0.833782    26A     -0.830764    27A     -0.810803
      28A     -0.781774    29A     -0.724716    30A     -0.685700
      31A     -0.669530    32A     -0.666966    33A     -0.644772
      34A     -0.631405    35A     -0.619504    36A     -0.610605
      37A     -0.587698    38A     -0.583164    39A     -0.576782
      40A     -0.567057    41A     -0.542820    42A     -0.533956
      43A     -0.517762    44A     -0.513665    45A     -0.491876
      46A     -0.487102    47A     -0.485144    48A     -0.477991
      49A     -0.459729    50A     -0.340633    51A     -0.336346
      52A     -0.322285    53A     -0.313696

  @DF-RHF Final Energy:  -613.36913076235817

   => Energetics <=

    Nuclear Repulsion Energy =            871.1807449203702163
    One-Electron Energy =               -2560.4322196485927634
    Two-Electron Energy =                1075.8823439658644929
    Total Energy =                       -613.3691307623580542
  Basis Set: (AUG-CC-PVTZ AUX)
    Blend: AUG-CC-PVTZ-RI
    Molecular point group: c1

    Geometry (in Angstrom), charge = 0, multiplicity = 1:

       Center              X                  Y                   Z               Mass
    ------------   -----------------  -----------------  -----------------  -----------------
         O            0.828535982807    -0.232822503132    -0.196524887588    15.994914619570
         C           -1.390247017193     0.490621496868     0.167312112412    12.000000000000
         C            0.062971182807     0.822236996868     0.330200612412    12.000000000000
         C           -4.113025017193    -0.227124503132    -0.046866887588    12.000000000000
         C           -1.866273017193    -0.679028503132     0.772724112412    12.000000000000
         C           -2.281917017193     1.293169496868    -0.548333887588    12.000000000000
         C           -3.209132017193    -1.031080503132     0.663085112412    12.000000000000
         C           -3.629238017193     0.940560496868    -0.646964887588    12.000000000000
         C            2.195041982807    -0.122709503132    -0.103246887588    12.000000000000
         C           -5.572548017193    -0.592935503132    -0.124355887588    12.000000000000
         C            2.877074982807     0.999329496868     0.379727112412    12.000000000000
         C            2.910213982807    -1.245349503132    -0.542593887588    12.000000000000
         C            4.276215982807     0.982834496868     0.419722112412    12.000000000000
         C            4.300078982807    -1.245378503132    -0.497758887588    12.000000000000
         C            4.993086982807    -0.129870503132    -0.014142887588    12.000000000000
         H            0.273337982807     1.778575496868    -0.269533887588     1.007825032230
         H            0.318099982807     1.049467496868     1.353697112412     1.007825032230
         H           -1.174443017193    -1.319928503132     1.315309112412     1.007825032230
         H           -1.922535017193     2.197155496868    -1.037620887588     1.007825032230
         H           -3.563717017193    -1.947751503132     1.132223112412     1.007825032230
         H           -4.310342017193     1.575004496868    -1.211994887588     1.007825032230
         H           -6.040880017193    -0.156281503132    -1.010909887588     1.007825032230
         H           -5.704403017193    -1.677822503132    -0.170037887588     1.007825032230
         H           -6.118193017193    -0.229805503132     0.753505112412     1.007825032230
         H            2.345691982807     1.881921496868     0.718980112412     1.007825032230
         H            2.350941982807    -2.099898503132    -0.913680887588     1.007825032230
         H            4.802901982807     1.856922496868     0.795936112412     1.007825032230
         H            4.845545982807    -2.121345503132    -0.840894887588     1.007825032230
         H            6.079165982807    -0.130672503132     0.021357112412     1.007825032230

  Basis Set: AUG-CC-PVTZ
    Blend: AUG-CC-PVTZ
  Basis Set: (AUG-CC-PVTZ AUX)
    Blend: AUG-CC-PVTZ-JKFIT
	 Reference Energy          =    -613.3691307623581679 [Eh]
	 Singles Energy            =      -0.0000000000000000 [Eh]
	 Same-Spin Energy          =      -0.6727067401110183 [Eh]
	 Opposite-Spin Energy      =      -2.1163451595752161 [Eh]
	 Correlation Energy        =      -2.7890518996862346 [Eh]
	 Total Energy              =    -616.1581826620443962 [Eh]

	 ================> DF-SCS-MP2 Energies <==================
	-----------------------------------------------------------
	 SCS Same-Spin Scale       =       0.3333333333333333 [-]
	 SCS Opposite-Spin Scale   =       1.2000000000000000 [-]
	 SCS Same-Spin Energy      =      -0.2242355800370061 [Eh]
	 SCS Opposite-Spin Energy  =      -2.5396141914902590 [Eh]
	 SCS Correlation Energy    =      -2.7638497715272652 [Eh]
	 SCS Total Energy          =    -616.1329805338854158 [Eh]
	-----------------------------------------------------------

  Dipole Moment: [D]
     X:    -0.8961      Y:     0.6319      Z:     0.5013     Total:     1.2056

*** Psi4 exiting successfully. Buy a developer a beer!
