                               Psi4 1.4a3.dev225

  ==> Input File <==

--------------------------------------------------------------------------
#psi4
#
memory 32 gb

molecule  {
0 1
  O        0.8655410    -0.2383350    -0.1978900
  C       -1.3532420     0.4851090     0.1659470
  C        0.0923410     0.8600100     0.3004220
  C       -4.0760200    -0.2326370    -0.0482320
  C       -1.8292680    -0.6845410     0.7713590
  C       -2.2449120     1.2876570    -0.5496990
  C       -3.1721270    -1.0365930     0.6617200
  C       -3.5922330     0.9350480    -0.6483300
  C        2.2320470    -0.1282220    -0.1046120
  C       -5.5355430    -0.5984480    -0.1257210
  C        2.8653311     0.9136182     0.3438410
  C        2.9472190    -1.2508620    -0.5439590
  C        4.3132210     0.9773220     0.4183570
  C        4.3370840    -1.2508910    -0.4991240
  C        5.0300920    -0.1353830    -0.0155080
  H        0.3103430     1.7730630    -0.2708990
  H        0.3551050     1.0439550     1.3523320
  H       -1.1374380    -1.3254410     1.3139440
  H       -1.8855300     2.1916430    -1.0389860
  H       -3.5267120    -1.9532640     1.1308580
  H       -4.2733370     1.5694920    -1.2133600
  H       -6.0038750    -0.1617940    -1.0122750
  H       -5.6673980    -1.6833350    -0.1714030
  H       -6.0811880    -0.2353180     0.7521400
  H        2.3826970     1.8764090     0.7176150
  H        2.3879470    -2.1054110    -0.9150460
  H        4.8399070     1.8514100     0.7945710
  H        4.8825510    -2.1268580    -0.8422600
  H        6.1161710    -0.1361850     0.0199920
units angstrom
no_reorient  #important for SAPT in psi4, default
symmetry c1  #important for SAPT in psi4, default
}

set PROPERTIES_ORIGIN ["COM"]
properties('MP2/aug-cc-pvtz', properties = ['dipole'])
--------------------------------------------------------------------------

    Molecular point group: c1
  Charge       = 0
  Multiplicity = 1
  Basis Set: AUG-CC-PVTZ
    Blend: AUG-CC-PVTZ
  Basis Set: (AUG-CC-PVTZ AUX)
    Blend: AUG-CC-PVTZ-JKFIT

    Orbital Energies [Eh]
    ---------------------

    Doubly Occupied:

       1A    -20.579892     2A    -11.290899     3A    -11.287072
       4A    -11.245991     5A    -11.242944     6A    -11.238804
       7A    -11.237988     8A    -11.236491     9A    -11.233938
      10A    -11.231439    11A    -11.231256    12A    -11.230419
      13A    -11.229648    14A    -11.229572    15A    -11.225241
      16A     -1.403261    17A     -1.159469    18A     -1.148029
      19A     -1.066043    20A     -1.019862    21A     -1.012058
      22A     -1.010739    23A     -0.965352    24A     -0.898737
      25A     -0.839653    26A     -0.831252    27A     -0.804109
      28A     -0.780371    29A     -0.722515    30A     -0.682136
      31A     -0.669394    32A     -0.660492    33A     -0.647499
      34A     -0.631999    35A     -0.620160    36A     -0.610411
      37A     -0.582676    38A     -0.580771    39A     -0.576110
      40A     -0.558972    41A     -0.543772    42A     -0.532108
      43A     -0.524160    44A     -0.506271    45A     -0.492429
      46A     -0.485993    47A     -0.483085    48A     -0.479301
      49A     -0.462157    50A     -0.339659    51A     -0.335753
      52A     -0.322058    53A     -0.319316

  @DF-RHF Final Energy:  -613.35861297146471

   => Energetics <=

    Nuclear Repulsion Energy =            872.3624821919968326
    One-Electron Energy =               -2562.8827434572540369
    Two-Electron Energy =                1077.1616482937924957
    Total Energy =                       -613.3586129714647086
  Basis Set: (AUG-CC-PVTZ AUX)
    Blend: AUG-CC-PVTZ-RI
    Molecular point group: c1

    Geometry (in Angstrom), charge = 0, multiplicity = 1:

       Center              X                  Y                   Z               Mass
    ------------   -----------------  -----------------  -----------------  -----------------
         O            0.831951399011    -0.230586513146    -0.192712686789    15.994914619570
         C           -1.386831600989     0.492857486854     0.171124313211    12.000000000000
         C            0.058751399011     0.867758486854     0.305599313211    12.000000000000
         C           -4.109609600989    -0.224888513146    -0.043054686789    12.000000000000
         C           -1.862857600989    -0.676792513146     0.776536313211    12.000000000000
         C           -2.278501600989     1.295405486854    -0.544521686789    12.000000000000
         C           -3.205716600989    -1.028844513146     0.666897313211    12.000000000000
         C           -3.625822600989     0.942796486854    -0.643152686789    12.000000000000
         C            2.198457399011    -0.120473513146    -0.099434686789    12.000000000000
         C           -5.569132600989    -0.590699513146    -0.120543686789    12.000000000000
         C            2.831741499011     0.921366686854     0.349018313211    12.000000000000
         C            2.913629399011    -1.243113513146    -0.538781686789    12.000000000000
         C            4.279631399011     0.985070486854     0.423534313211    12.000000000000
         C            4.303494399011    -1.243142513146    -0.493946686789    12.000000000000
         C            4.996502399011    -0.127634513146    -0.010330686789    12.000000000000
         H            0.276753399011     1.780811486854    -0.265721686789     1.007825032230
         H            0.321515399011     1.051703486854     1.357509313211     1.007825032230
         H           -1.171027600989    -1.317692513146     1.319121313211     1.007825032230
         H           -1.919119600989     2.199391486854    -1.033808686789     1.007825032230
         H           -3.560301600989    -1.945515513146     1.136035313211     1.007825032230
         H           -4.306926600989     1.577240486854    -1.208182686789     1.007825032230
         H           -6.037464600989    -0.154045513146    -1.007097686789     1.007825032230
         H           -5.700987600989    -1.675586513146    -0.166225686789     1.007825032230
         H           -6.114777600989    -0.227569513146     0.757317313211     1.007825032230
         H            2.349107399011     1.884157486854     0.722792313211     1.007825032230
         H            2.354357399011    -2.097662513146    -0.909868686789     1.007825032230
         H            4.806317399011     1.859158486854     0.799748313211     1.007825032230
         H            4.848961399011    -2.119109513146    -0.837082686789     1.007825032230
         H            6.082581399011    -0.128436513146     0.025169313211     1.007825032230

  Basis Set: AUG-CC-PVTZ
    Blend: AUG-CC-PVTZ
  Basis Set: (AUG-CC-PVTZ AUX)
    Blend: AUG-CC-PVTZ-JKFIT
	 Reference Energy          =    -613.3586129714647086 [Eh]
	 Singles Energy            =      -0.0000000000000000 [Eh]
	 Same-Spin Energy          =      -0.6723889745312028 [Eh]
	 Opposite-Spin Energy      =      -2.1167150060832078 [Eh]
	 Correlation Energy        =      -2.7891039806144109 [Eh]
	 Total Energy              =    -616.1477169520791222 [Eh]

	 ================> DF-SCS-MP2 Energies <==================
	-----------------------------------------------------------
	 SCS Same-Spin Scale       =       0.3333333333333333 [-]
	 SCS Opposite-Spin Scale   =       1.2000000000000000 [-]
	 SCS Same-Spin Energy      =      -0.2241296581770676 [Eh]
	 SCS Opposite-Spin Energy  =      -2.5400580072998493 [Eh]
	 SCS Correlation Energy    =      -2.7641876654769169 [Eh]
	 SCS Total Energy          =    -616.1228006369416335 [Eh]
	-----------------------------------------------------------

  Dipole Moment: [D]
     X:    -0.7763      Y:     0.7360      Z:     0.4775     Total:     1.1714

*** Psi4 exiting successfully. Buy a developer a beer!
