                               Psi4 1.4a3.dev225

  ==> Input File <==

--------------------------------------------------------------------------
#psi4
#
memory 32 gb

molecule  {
0 1
  O        0.8655410    -0.2383350    -0.1978900
  C       -1.3532420     0.4851090     0.1659470
  C        0.0963438     0.8385077     0.3147920
  C       -4.0760200    -0.2326370    -0.0482320
  C       -1.8292680    -0.6845410     0.7713590
  C       -2.2449120     1.2876570    -0.5496990
  C       -3.1721270    -1.0365930     0.6617200
  C       -3.5922330     0.9350480    -0.6483300
  C        2.2320470    -0.1282220    -0.1046120
  C       -5.5355430    -0.5984480    -0.1257210
  C        2.9140800     0.9938170     0.3783620
  C        2.9472190    -1.2508620    -0.5439590
  C        4.3132210     0.9773220     0.4183570
  C        4.3370840    -1.2508910    -0.4991240
  C        5.0300920    -0.1353830    -0.0155080
  H        0.3103430     1.7730630    -0.2708990
  H        0.3551050     1.0439550     1.3523320
  H       -1.1374380    -1.3254410     1.3139440
  H       -1.8855300     2.1916430    -1.0389860
  H       -3.5267120    -1.9532640     1.1308580
  H       -4.2733370     1.5694920    -1.2133600
  H       -6.0038750    -0.1617940    -1.0122750
  H       -5.6673980    -1.6833350    -0.1714030
  H       -6.0811880    -0.2353180     0.7521400
  H        2.3826970     1.8764090     0.7176150
  H        2.3879470    -2.1054110    -0.9150460
  H        4.8399070     1.8514100     0.7945710
  H        4.8825510    -2.1268580    -0.8422600
  H        6.1161710    -0.1361850     0.0199920
units angstrom
no_reorient  #important for SAPT in psi4, default
symmetry c1  #important for SAPT in psi4, default
}

set PROPERTIES_ORIGIN ["COM"]
properties('MP2/aug-cc-pvtz', properties = ['dipole'])
--------------------------------------------------------------------------

    Molecular point group: c1
  Charge       = 0
  Multiplicity = 1
  Basis Set: AUG-CC-PVTZ
    Blend: AUG-CC-PVTZ
  Basis Set: (AUG-CC-PVTZ AUX)
    Blend: AUG-CC-PVTZ-JKFIT

    Orbital Energies [Eh]
    ---------------------

    Doubly Occupied:

       1A    -20.585002     2A    -11.301694     3A    -11.293236
       4A    -11.243691     5A    -11.241287     6A    -11.239767
       7A    -11.238782     8A    -11.237504     9A    -11.234437
      10A    -11.233469    11A    -11.232183    12A    -11.231742
      13A    -11.228309    14A    -11.227788    15A    -11.225754
      16A     -1.409237    17A     -1.158708    18A     -1.144329
      19A     -1.066782    20A     -1.018214    21A     -1.013354
      22A     -1.009009    23A     -0.963573    24A     -0.899228
      25A     -0.833282    26A     -0.831164    27A     -0.809831
      28A     -0.782025    29A     -0.722807    30A     -0.684742
      31A     -0.669811    32A     -0.665553    33A     -0.644295
      34A     -0.631161    35A     -0.619993    36A     -0.609986
      37A     -0.587229    38A     -0.583344    39A     -0.576873
      40A     -0.565505    41A     -0.543057    42A     -0.532879
      43A     -0.519931    44A     -0.514175    45A     -0.491549
      46A     -0.486873    47A     -0.485036    48A     -0.478345
      49A     -0.462608    50A     -0.340287    51A     -0.336537
      52A     -0.322260    53A     -0.313007

  @DF-RHF Final Energy:  -613.37105994326635

   => Energetics <=

    Nuclear Repulsion Energy =            870.9627716124963399
    One-Electron Energy =               -2560.0252171900010580
    Two-Electron Energy =                1075.6913856342382587
    Total Energy =                       -613.3710599432663457
  Basis Set: (AUG-CC-PVTZ AUX)
    Blend: AUG-CC-PVTZ-RI
    Molecular point group: c1

    Geometry (in Angstrom), charge = 0, multiplicity = 1:

       Center              X                  Y                   Z               Mass
    ------------   -----------------  -----------------  -----------------  -----------------
         O            0.828756012174    -0.234142000902    -0.195674215192    15.994914619570
         C           -1.390026987826     0.489301999098     0.168162784808    12.000000000000
         C            0.059558812174     0.842700699098     0.317007784808    12.000000000000
         C           -4.112804987826    -0.228444000902    -0.046016215192    12.000000000000
         C           -1.866052987826    -0.680348000902     0.773574784808    12.000000000000
         C           -2.281696987826     1.291849999098    -0.547483215192    12.000000000000
         C           -3.208911987826    -1.032400000902     0.663935784808    12.000000000000
         C           -3.629017987826     0.939240999098    -0.646114215192    12.000000000000
         C            2.195262012174    -0.124029000902    -0.102396215192    12.000000000000
         C           -5.572327987826    -0.594255000902    -0.123505215192    12.000000000000
         C            2.877295012174     0.998009999098     0.380577784808    12.000000000000
         C            2.910434012174    -1.246669000902    -0.541743215192    12.000000000000
         C            4.276436012174     0.981514999098     0.420572784808    12.000000000000
         C            4.300299012174    -1.246698000902    -0.496908215192    12.000000000000
         C            4.993307012174    -0.131190000902    -0.013292215192    12.000000000000
         H            0.273558012174     1.777255999098    -0.268683215192     1.007825032230
         H            0.318320012174     1.048147999098     1.354547784808     1.007825032230
         H           -1.174222987826    -1.321248000902     1.316159784808     1.007825032230
         H           -1.922314987826     2.195835999098    -1.036770215192     1.007825032230
         H           -3.563496987826    -1.949071000902     1.133073784808     1.007825032230
         H           -4.310121987826     1.573684999098    -1.211144215192     1.007825032230
         H           -6.040659987826    -0.157601000902    -1.010059215192     1.007825032230
         H           -5.704182987826    -1.679142000902    -0.169187215192     1.007825032230
         H           -6.117972987826    -0.231125000902     0.754355784808     1.007825032230
         H            2.345912012174     1.880601999098     0.719830784808     1.007825032230
         H            2.351162012174    -2.101218000902    -0.912830215192     1.007825032230
         H            4.803122012174     1.855602999098     0.796786784808     1.007825032230
         H            4.845766012174    -2.122665000902    -0.840044215192     1.007825032230
         H            6.079386012174    -0.131992000902     0.022207784808     1.007825032230

  Basis Set: AUG-CC-PVTZ
    Blend: AUG-CC-PVTZ
  Basis Set: (AUG-CC-PVTZ AUX)
    Blend: AUG-CC-PVTZ-JKFIT
	 Reference Energy          =    -613.3710599432663457 [Eh]
	 Singles Energy            =      -0.0000000000000000 [Eh]
	 Same-Spin Energy          =      -0.6726607661809538 [Eh]
	 Opposite-Spin Energy      =      -2.1163906255158431 [Eh]
	 Correlation Energy        =      -2.7890513916967969 [Eh]
	 Total Energy              =    -616.1601113349631760 [Eh]

	 ================> DF-SCS-MP2 Energies <==================
	-----------------------------------------------------------
	 SCS Same-Spin Scale       =       0.3333333333333333 [-]
	 SCS Opposite-Spin Scale   =       1.2000000000000000 [-]
	 SCS Same-Spin Energy      =      -0.2242202553936513 [Eh]
	 SCS Opposite-Spin Energy  =      -2.5396687506190117 [Eh]
	 SCS Correlation Energy    =      -2.7638890060126631 [Eh]
	 SCS Total Energy          =    -616.1349489492789644 [Eh]
	-----------------------------------------------------------

  Dipole Moment: [D]
     X:    -0.9494      Y:     0.6839      Z:     0.4863     Total:     1.2671

*** Psi4 exiting successfully. Buy a developer a beer!
