                               Psi4 1.4a3.dev225

  ==> Input File <==

--------------------------------------------------------------------------
#psi4
#
memory 32 gb

molecule  {
0 1
  O        0.8655410    -0.2383350    -0.1978900
  C       -1.3532420     0.4851090     0.1659470
  C        0.0923410     0.8600100     0.3004220
  C       -4.0698188    -0.2581825    -0.0488994
  C       -1.8292680    -0.6845410     0.7713590
  C       -2.2449120     1.2876570    -0.5496990
  C       -3.1721270    -1.0365930     0.6617200
  C       -3.5922330     0.9350480    -0.6483300
  C        2.2320470    -0.1282220    -0.1046120
  C       -5.5355430    -0.5984480    -0.1257210
  C        2.9140800     0.9938170     0.3783620
  C        2.9472190    -1.2508620    -0.5439590
  C        4.3132210     0.9773220     0.4183570
  C        4.3370840    -1.2508910    -0.4991240
  C        5.0300920    -0.1353830    -0.0155080
  H        0.3103430     1.7730630    -0.2708990
  H        0.3551050     1.0439550     1.3523320
  H       -1.1374380    -1.3254410     1.3139440
  H       -1.8855300     2.1916430    -1.0389860
  H       -3.5267120    -1.9532640     1.1308580
  H       -4.2733370     1.5694920    -1.2133600
  H       -6.0038750    -0.1617940    -1.0122750
  H       -5.6673980    -1.6833350    -0.1714030
  H       -6.0811880    -0.2353180     0.7521400
  H        2.3826970     1.8764090     0.7176150
  H        2.3879470    -2.1054110    -0.9150460
  H        4.8399070     1.8514100     0.7945710
  H        4.8825510    -2.1268580    -0.8422600
  H        6.1161710    -0.1361850     0.0199920
units angstrom
no_reorient  #important for SAPT in psi4, default
symmetry c1  #important for SAPT in psi4, default
}

set PROPERTIES_ORIGIN ["COM"]
properties('MP2/aug-cc-pvtz', properties = ['dipole'])
--------------------------------------------------------------------------

    Molecular point group: c1
  Charge       = 0
  Multiplicity = 1
  Basis Set: AUG-CC-PVTZ
    Blend: AUG-CC-PVTZ
  Basis Set: (AUG-CC-PVTZ AUX)
    Blend: AUG-CC-PVTZ-JKFIT

    Orbital Energies [Eh]
    ---------------------

    Doubly Occupied:

       1A    -20.583908     2A    -11.301011     3A    -11.293192
       4A    -11.243825     5A    -11.240964     6A    -11.239400
       7A    -11.239090     8A    -11.237515     9A    -11.235041
      10A    -11.234217    11A    -11.232950    12A    -11.230229
      13A    -11.227683    14A    -11.227262    15A    -11.225857
      16A     -1.404860    17A     -1.158828    18A     -1.143728
      19A     -1.067109    20A     -1.017772    21A     -1.013534
      22A     -1.008094    23A     -0.964017    24A     -0.899617
      25A     -0.832860    26A     -0.831745    27A     -0.808430
      28A     -0.782592    29A     -0.721171    30A     -0.683969
      31A     -0.670511    32A     -0.663692    33A     -0.643747
      34A     -0.631017    35A     -0.620428    36A     -0.609453
      37A     -0.586795    38A     -0.583615    39A     -0.576981
      40A     -0.563901    41A     -0.543381    42A     -0.532214
      43A     -0.522172    44A     -0.514336    45A     -0.491345
      46A     -0.488247    47A     -0.483771    48A     -0.477925
      49A     -0.464316    50A     -0.339993    51A     -0.337522
      52A     -0.321435    53A     -0.312296

  @DF-RHF Final Energy:  -613.37076716029981

   => Energetics <=

    Nuclear Repulsion Energy =            870.7533634992262250
    One-Electron Energy =               -2559.6291335331848131
    Two-Electron Energy =                1075.5050028736586682
    Total Energy =                       -613.3707671602999199
  Basis Set: (AUG-CC-PVTZ AUX)
    Blend: AUG-CC-PVTZ-RI
    Molecular point group: c1

    Geometry (in Angstrom), charge = 0, multiplicity = 1:

       Center              X                  Y                   Z               Mass
    ------------   -----------------  -----------------  -----------------  -----------------
         O            0.828622846069    -0.233897087695    -0.194763338196    15.994914619570
         C           -1.390160153931     0.489546912305     0.169073661804    12.000000000000
         C            0.055422846069     0.864447912305     0.303548661804    12.000000000000
         C           -4.106736953931    -0.253744587695    -0.045772738196    12.000000000000
         C           -1.866186153931    -0.680103087695     0.774485661804    12.000000000000
         C           -2.281830153931     1.292094912305    -0.546572338196    12.000000000000
         C           -3.209045153931    -1.032155087695     0.664846661804    12.000000000000
         C           -3.629151153931     0.939485912305    -0.645203338196    12.000000000000
         C            2.195128846069    -0.123784087695    -0.101485338196    12.000000000000
         C           -5.572461153931    -0.594010087695    -0.122594338196    12.000000000000
         C            2.877161846069     0.998254912305     0.381488661804    12.000000000000
         C            2.910300846069    -1.246424087695    -0.540832338196    12.000000000000
         C            4.276302846069     0.981759912305     0.421483661804    12.000000000000
         C            4.300165846069    -1.246453087695    -0.495997338196    12.000000000000
         C            4.993173846069    -0.130945087695    -0.012381338196    12.000000000000
         H            0.273424846069     1.777500912305    -0.267772338196     1.007825032230
         H            0.318186846069     1.048392912305     1.355458661804     1.007825032230
         H           -1.174356153931    -1.321003087695     1.317070661804     1.007825032230
         H           -1.922448153931     2.196080912305    -1.035859338196     1.007825032230
         H           -3.563630153931    -1.948826087695     1.133984661804     1.007825032230
         H           -4.310255153931     1.573929912305    -1.210233338196     1.007825032230
         H           -6.040793153931    -0.157356087695    -1.009148338196     1.007825032230
         H           -5.704316153931    -1.678897087695    -0.168276338196     1.007825032230
         H           -6.118106153931    -0.230880087695     0.755266661804     1.007825032230
         H            2.345778846069     1.880846912305     0.720741661804     1.007825032230
         H            2.351028846069    -2.100973087695    -0.911919338196     1.007825032230
         H            4.802988846069     1.855847912305     0.797697661804     1.007825032230
         H            4.845632846069    -2.122420087695    -0.839133338196     1.007825032230
         H            6.079252846069    -0.131747087695     0.023118661804     1.007825032230

  Basis Set: AUG-CC-PVTZ
    Blend: AUG-CC-PVTZ
  Basis Set: (AUG-CC-PVTZ AUX)
    Blend: AUG-CC-PVTZ-JKFIT
	 Reference Energy          =    -613.3707671602998062 [Eh]
	 Singles Energy            =      -0.0000000000000000 [Eh]
	 Same-Spin Energy          =      -0.6727073898381384 [Eh]
	 Opposite-Spin Energy      =      -2.1166190873790751 [Eh]
	 Correlation Energy        =      -2.7893264772172133 [Eh]
	 Total Energy              =    -616.1600936375169795 [Eh]

	 ================> DF-SCS-MP2 Energies <==================
	-----------------------------------------------------------
	 SCS Same-Spin Scale       =       0.3333333333333333 [-]
	 SCS Opposite-Spin Scale   =       1.2000000000000000 [-]
	 SCS Same-Spin Energy      =      -0.2242357966127128 [Eh]
	 SCS Opposite-Spin Energy  =      -2.5399429048548900 [Eh]
	 SCS Correlation Energy    =      -2.7641787014676029 [Eh]
	 SCS Total Energy          =    -616.1349458617673918 [Eh]
	-----------------------------------------------------------

  Dipole Moment: [D]
     X:    -0.9994      Y:     0.7425      Z:     0.4735     Total:     1.3320

*** Psi4 exiting successfully. Buy a developer a beer!
