                               Psi4 1.4a3.dev225

  ==> Input File <==

--------------------------------------------------------------------------
#psi4
#
memory 32 gb

molecule  {
0 1
  O        0.8655410    -0.2383350    -0.1978900
  C       -1.3532420     0.4851090     0.1659470
  C        0.0923410     0.8600100     0.3004220
  C       -4.0393690    -0.2017576    -0.0582390
  C       -1.8292680    -0.6845410     0.7713590
  C       -2.2449120     1.2876570    -0.5496990
  C       -3.1721270    -1.0365930     0.6617200
  C       -3.5922330     0.9350480    -0.6483300
  C        2.2320470    -0.1282220    -0.1046120
  C       -5.5355430    -0.5984480    -0.1257210
  C        2.9140800     0.9938170     0.3783620
  C        2.9472190    -1.2508620    -0.5439590
  C        4.3132210     0.9773220     0.4183570
  C        4.3370840    -1.2508910    -0.4991240
  C        5.0300920    -0.1353830    -0.0155080
  H        0.3103430     1.7730630    -0.2708990
  H        0.3551050     1.0439550     1.3523320
  H       -1.1374380    -1.3254410     1.3139440
  H       -1.8855300     2.1916430    -1.0389860
  H       -3.5267120    -1.9532640     1.1308580
  H       -4.2733370     1.5694920    -1.2133600
  H       -6.0038750    -0.1617940    -1.0122750
  H       -5.6673980    -1.6833350    -0.1714030
  H       -6.0811880    -0.2353180     0.7521400
  H        2.3826970     1.8764090     0.7176150
  H        2.3879470    -2.1054110    -0.9150460
  H        4.8399070     1.8514100     0.7945710
  H        4.8825510    -2.1268580    -0.8422600
  H        6.1161710    -0.1361850     0.0199920
units angstrom
no_reorient  #important for SAPT in psi4, default
symmetry c1  #important for SAPT in psi4, default
}

set PROPERTIES_ORIGIN ["COM"]
properties('MP2/aug-cc-pvtz', properties = ['dipole'])
--------------------------------------------------------------------------

    Molecular point group: c1
  Charge       = 0
  Multiplicity = 1
  Basis Set: AUG-CC-PVTZ
    Blend: AUG-CC-PVTZ
  Basis Set: (AUG-CC-PVTZ AUX)
    Blend: AUG-CC-PVTZ-JKFIT

    Orbital Energies [Eh]
    ---------------------

    Doubly Occupied:

       1A    -20.584059     2A    -11.301185     3A    -11.293331
       4A    -11.241084     5A    -11.240892     6A    -11.239518
       7A    -11.239158     8A    -11.237772     9A    -11.235091
      10A    -11.233085    11A    -11.232410    12A    -11.227820
      13A    -11.227729    14A    -11.227402    15A    -11.226343
      16A     -1.405024    17A     -1.162128    18A     -1.144276
      19A     -1.065561    20A     -1.017583    21A     -1.015568
      22A     -1.007266    23A     -0.960946    24A     -0.899772
      25A     -0.835868    26A     -0.831228    27A     -0.809735
      28A     -0.783082    29A     -0.721333    30A     -0.684773
      31A     -0.670826    32A     -0.663809    33A     -0.642608
      34A     -0.630899    35A     -0.620893    36A     -0.609861
      37A     -0.587278    38A     -0.586824    39A     -0.573193
      40A     -0.562093    41A     -0.541960    42A     -0.529007
      43A     -0.523908    44A     -0.513274    45A     -0.494470
      46A     -0.489411    47A     -0.482999    48A     -0.475469
      49A     -0.464545    50A     -0.340115    51A     -0.337874
      52A     -0.326009    53A     -0.312434

  @DF-RHF Final Energy:  -613.36977565761822

   => Energetics <=

    Nuclear Repulsion Energy =            871.2889766299749681
    One-Electron Energy =               -2560.6959431529594440
    Two-Electron Energy =                1076.0371908653662558
    Total Energy =                       -613.3697756576182201
  Basis Set: (AUG-CC-PVTZ AUX)
    Blend: AUG-CC-PVTZ-RI
    Molecular point group: c1

    Geometry (in Angstrom), charge = 0, multiplicity = 1:

       Center              X                  Y                   Z               Mass
    ------------   -----------------  -----------------  -----------------  -----------------
         O            0.826778376789    -0.237314975322    -0.194197600316    15.994914619570
         C           -1.392004623211     0.486129024678     0.169639399684    12.000000000000
         C            0.053578376789     0.861030024678     0.304114399684    12.000000000000
         C           -4.078131623211    -0.200737575322    -0.054546600316    12.000000000000
         C           -1.868030623211    -0.683520975322     0.775051399684    12.000000000000
         C           -2.283674623211     1.288677024678    -0.546006600316    12.000000000000
         C           -3.210889623211    -1.035572975322     0.665412399684    12.000000000000
         C           -3.630995623211     0.936068024678    -0.644637600316    12.000000000000
         C            2.193284376789    -0.127201975322    -0.100919600316    12.000000000000
         C           -5.574305623211    -0.597427975322    -0.122028600316    12.000000000000
         C            2.875317376789     0.994837024678     0.382054399684    12.000000000000
         C            2.908456376789    -1.249841975322    -0.540266600316    12.000000000000
         C            4.274458376789     0.978342024678     0.422049399684    12.000000000000
         C            4.298321376789    -1.249870975322    -0.495431600316    12.000000000000
         C            4.991329376789    -0.134362975322    -0.011815600316    12.000000000000
         H            0.271580376789     1.774083024678    -0.267206600316     1.007825032230
         H            0.316342376789     1.044975024678     1.356024399684     1.007825032230
         H           -1.176200623211    -1.324420975322     1.317636399684     1.007825032230
         H           -1.924292623211     2.192663024678    -1.035293600316     1.007825032230
         H           -3.565474623211    -1.952243975322     1.134550399684     1.007825032230
         H           -4.312099623211     1.570512024678    -1.209667600316     1.007825032230
         H           -6.042637623211    -0.160773975322    -1.008582600316     1.007825032230
         H           -5.706160623211    -1.682314975322    -0.167710600316     1.007825032230
         H           -6.119950623211    -0.234297975322     0.755832399684     1.007825032230
         H            2.343934376789     1.877429024678     0.721307399684     1.007825032230
         H            2.349184376789    -2.104390975322    -0.911353600316     1.007825032230
         H            4.801144376789     1.852430024678     0.798263399684     1.007825032230
         H            4.843788376789    -2.125837975322    -0.838567600316     1.007825032230
         H            6.077408376789    -0.135164975322     0.023684399684     1.007825032230

  Basis Set: AUG-CC-PVTZ
    Blend: AUG-CC-PVTZ
  Basis Set: (AUG-CC-PVTZ AUX)
    Blend: AUG-CC-PVTZ-JKFIT
	 Reference Energy          =    -613.3697756576182201 [Eh]
	 Singles Energy            =      -0.0000000000000000 [Eh]
	 Same-Spin Energy          =      -0.6722764251500323 [Eh]
	 Opposite-Spin Energy      =      -2.1160913738523792 [Eh]
	 Correlation Energy        =      -2.7883677990024114 [Eh]
	 Total Energy              =    -616.1581434566206781 [Eh]

	 ================> DF-SCS-MP2 Energies <==================
	-----------------------------------------------------------
	 SCS Same-Spin Scale       =       0.3333333333333333 [-]
	 SCS Opposite-Spin Scale   =       1.2000000000000000 [-]
	 SCS Same-Spin Energy      =      -0.2240921417166774 [Eh]
	 SCS Opposite-Spin Energy  =      -2.5393096486228548 [Eh]
	 SCS Correlation Energy    =      -2.7634017903395320 [Eh]
	 SCS Total Energy          =    -616.1331774479577916 [Eh]
	-----------------------------------------------------------

  Dipole Moment: [D]
     X:    -0.8504      Y:     0.7478      Z:     0.4744     Total:     1.2278

*** Psi4 exiting successfully. Buy a developer a beer!
