                               Psi4 1.4a3.dev225

  ==> Input File <==

--------------------------------------------------------------------------
#psi4
#
memory 32 gb

molecule  {
0 1
  O        0.8655410    -0.2383350    -0.1978900
  C       -1.3532420     0.4851090     0.1659470
  C        0.0923410     0.8600100     0.3004220
  C       -4.0760200    -0.2326370    -0.0482320
  C       -1.8292680    -0.6845410     0.7713590
  C       -2.2449120     1.2876570    -0.5496990
  C       -3.1857569    -0.9551949     0.6103750
  C       -3.5922330     0.9350480    -0.6483300
  C        2.2320470    -0.1282220    -0.1046120
  C       -5.5355430    -0.5984480    -0.1257210
  C        2.9140800     0.9938170     0.3783620
  C        2.9472190    -1.2508620    -0.5439590
  C        4.3132210     0.9773220     0.4183570
  C        4.3370840    -1.2508910    -0.4991240
  C        5.0300920    -0.1353830    -0.0155080
  H        0.3103430     1.7730630    -0.2708990
  H        0.3551050     1.0439550     1.3523320
  H       -1.1374380    -1.3254410     1.3139440
  H       -1.8855300     2.1916430    -1.0389860
  H       -3.5267120    -1.9532640     1.1308580
  H       -4.2733370     1.5694920    -1.2133600
  H       -6.0038750    -0.1617940    -1.0122750
  H       -5.6673980    -1.6833350    -0.1714030
  H       -6.0811880    -0.2353180     0.7521400
  H        2.3826970     1.8764090     0.7176150
  H        2.3879470    -2.1054110    -0.9150460
  H        4.8399070     1.8514100     0.7945710
  H        4.8825510    -2.1268580    -0.8422600
  H        6.1161710    -0.1361850     0.0199920
units angstrom
no_reorient  #important for SAPT in psi4, default
symmetry c1  #important for SAPT in psi4, default
}

set PROPERTIES_ORIGIN ["COM"]
properties('MP2/aug-cc-pvtz', properties = ['dipole'])
--------------------------------------------------------------------------

    Molecular point group: c1
  Charge       = 0
  Multiplicity = 1
  Basis Set: AUG-CC-PVTZ
    Blend: AUG-CC-PVTZ
  Basis Set: (AUG-CC-PVTZ AUX)
    Blend: AUG-CC-PVTZ-JKFIT

    Orbital Energies [Eh]
    ---------------------

    Doubly Occupied:

       1A    -20.584513     2A    -11.301369     3A    -11.293137
       4A    -11.241238     5A    -11.239682     6A    -11.239521
       7A    -11.236228     8A    -11.234791     9A    -11.234345
      10A    -11.233265    11A    -11.233227    12A    -11.230392
      13A    -11.228013    14A    -11.227550    15A    -11.226441
      16A     -1.405388    17A     -1.167271    18A     -1.144940
      19A     -1.072506    20A     -1.018202    21A     -1.011950
      22A     -1.008322    23A     -0.964873    24A     -0.904540
      25A     -0.835807    26A     -0.832009    27A     -0.808413
      28A     -0.781059    29A     -0.721390    30A     -0.684013
      31A     -0.672962    32A     -0.664085    33A     -0.645175
      34A     -0.626005    35A     -0.622496    36A     -0.607939
      37A     -0.587141    38A     -0.579287    39A     -0.576399
      40A     -0.566237    41A     -0.540084    42A     -0.534741
      43A     -0.523291    44A     -0.515632    45A     -0.495593
      46A     -0.491928    47A     -0.483877    48A     -0.468721
      49A     -0.462354    50A     -0.340637    51A     -0.338578
      52A     -0.326826    53A     -0.312664

  @DF-RHF Final Energy:  -613.35960341648183

   => Energetics <=

    Nuclear Repulsion Energy =            872.3232512446287501
    One-Electron Energy =               -2562.7116083204518873
    Two-Electron Energy =                1077.0287536593411915
    Total Energy =                       -613.3596034164818320
  Basis Set: (AUG-CC-PVTZ AUX)
    Blend: AUG-CC-PVTZ-RI
    Molecular point group: c1

    Geometry (in Angstrom), charge = 0, multiplicity = 1:

       Center              X                  Y                   Z               Mass
    ------------   -----------------  -----------------  -----------------  -----------------
         O            0.829824097136    -0.240375100190    -0.191693588103    15.994914619570
         C           -1.388958902864     0.483068899810     0.172143411897    12.000000000000
         C            0.056624097136     0.857969899810     0.306618411897    12.000000000000
         C           -4.111736902864    -0.234677100190    -0.042035588103    12.000000000000
         C           -1.864984902864    -0.686581100190     0.777555411897    12.000000000000
         C           -2.280628902864     1.285616899810    -0.543502588103    12.000000000000
         C           -3.221473802864    -0.957235000190     0.616571411897    12.000000000000
         C           -3.627949902864     0.933007899810    -0.642133588103    12.000000000000
         C            2.196330097136    -0.130262100190    -0.098415588103    12.000000000000
         C           -5.571259902864    -0.600488100190    -0.119524588103    12.000000000000
         C            2.878363097136     0.991776899810     0.384558411897    12.000000000000
         C            2.911502097136    -1.252902100190    -0.537762588103    12.000000000000
         C            4.277504097136     0.975281899810     0.424553411897    12.000000000000
         C            4.301367097136    -1.252931100190    -0.492927588103    12.000000000000
         C            4.994375097136    -0.137423100190    -0.009311588103    12.000000000000
         H            0.274626097136     1.771022899810    -0.264702588103     1.007825032230
         H            0.319388097136     1.041914899810     1.358528411897     1.007825032230
         H           -1.173154902864    -1.327481100190     1.320140411897     1.007825032230
         H           -1.921246902864     2.189602899810    -1.032789588103     1.007825032230
         H           -3.562428902864    -1.955304100190     1.137054411897     1.007825032230
         H           -4.309053902864     1.567451899810    -1.207163588103     1.007825032230
         H           -6.039591902864    -0.163834100190    -1.006078588103     1.007825032230
         H           -5.703114902864    -1.685375100190    -0.165206588103     1.007825032230
         H           -6.116904902864    -0.237358100190     0.758336411897     1.007825032230
         H            2.346980097136     1.874368899810     0.723811411897     1.007825032230
         H            2.352230097136    -2.107451100190    -0.908849588103     1.007825032230
         H            4.804190097136     1.849369899810     0.800767411897     1.007825032230
         H            4.846834097136    -2.128898100190    -0.836063588103     1.007825032230
         H            6.080454097136    -0.138225100190     0.026188411897     1.007825032230

  Basis Set: AUG-CC-PVTZ
    Blend: AUG-CC-PVTZ
  Basis Set: (AUG-CC-PVTZ AUX)
    Blend: AUG-CC-PVTZ-JKFIT
	 Reference Energy          =    -613.3596034164818320 [Eh]
	 Singles Energy            =      -0.0000000000000000 [Eh]
	 Same-Spin Energy          =      -0.6730222533556166 [Eh]
	 Opposite-Spin Energy      =      -2.1169719166639167 [Eh]
	 Correlation Energy        =      -2.7899941700195332 [Eh]
	 Total Energy              =    -616.1495975865013861 [Eh]

	 ================> DF-SCS-MP2 Energies <==================
	-----------------------------------------------------------
	 SCS Same-Spin Scale       =       0.3333333333333333 [-]
	 SCS Opposite-Spin Scale   =       1.2000000000000000 [-]
	 SCS Same-Spin Energy      =      -0.2243407511185389 [Eh]
	 SCS Opposite-Spin Energy  =      -2.5403662999967001 [Eh]
	 SCS Correlation Energy    =      -2.7647070511152387 [Eh]
	 SCS Total Energy          =    -616.1243104675970699 [Eh]
	-----------------------------------------------------------

  Dipole Moment: [D]
     X:    -0.9466      Y:     0.7926      Z:     0.4442     Total:     1.3121

*** Psi4 exiting successfully. Buy a developer a beer!
