                               Psi4 1.4a3.dev225

  ==> Input File <==

--------------------------------------------------------------------------
#psi4
#
memory 32 gb

molecule  {
0 1
  O        0.8655410    -0.2383350    -0.1978900
  C       -1.3532420     0.4851090     0.1659470
  C        0.0923410     0.8600100     0.3004220
  C       -4.0760200    -0.2326370    -0.0482320
  C       -1.8292680    -0.6845410     0.7713590
  C       -2.2449120     1.2876570    -0.5496990
  C       -3.1721270    -1.0365930     0.6617200
  C       -3.5922330     0.9350480    -0.6483300
  C        2.2320470    -0.1282220    -0.1046120
  C       -5.5355430    -0.5984480    -0.1257210
  C        2.9140800     0.9938170     0.3783620
  C        2.9472190    -1.2508620    -0.5439590
  C        4.3132210     0.9773220     0.4183570
  C        4.3370840    -1.2508910    -0.4991240
  C        5.0300920    -0.1353830    -0.0155080
  H        0.3103430     1.7730630    -0.2708990
  H        0.3551050     1.0439550     1.3523320
  H       -1.1374380    -1.3254410     1.3139440
  H       -1.8855300     2.1916430    -1.0389860
  H       -3.5267120    -1.9532640     1.1308580
  H       -4.2733370     1.5694920    -1.2133600
  H       -6.0038750    -0.1617940    -1.0122750
  H       -5.6734252    -1.7329264    -0.1734912
  H       -6.0811880    -0.2353180     0.7521400
  H        2.3826970     1.8764090     0.7176150
  H        2.3879470    -2.1054110    -0.9150460
  H        4.8399070     1.8514100     0.7945710
  H        4.8825510    -2.1268580    -0.8422600
  H        6.1161710    -0.1361850     0.0199920
units angstrom
no_reorient  #important for SAPT in psi4, default
symmetry c1  #important for SAPT in psi4, default
}

set PROPERTIES_ORIGIN ["COM"]
properties('MP2/aug-cc-pvtz', properties = ['dipole'])
--------------------------------------------------------------------------

    Molecular point group: c1
  Charge       = 0
  Multiplicity = 1
  Basis Set: AUG-CC-PVTZ
    Blend: AUG-CC-PVTZ
  Basis Set: (AUG-CC-PVTZ AUX)
    Blend: AUG-CC-PVTZ-JKFIT

    Orbital Energies [Eh]
    ---------------------

    Doubly Occupied:

       1A    -20.583980     2A    -11.301072     3A    -11.293291
       4A    -11.244280     5A    -11.241005     6A    -11.239437
       7A    -11.239304     8A    -11.237753     9A    -11.235059
      10A    -11.232998    11A    -11.232650    12A    -11.232213
      13A    -11.231843    14A    -11.227725    15A    -11.227300
      16A     -1.404942    17A     -1.158963    18A     -1.143781
      19A     -1.066666    20A     -1.017702    21A     -1.013546
      22A     -1.008054    23A     -0.962591    24A     -0.897864
      25A     -0.833008    26A     -0.831427    27A     -0.808816
      28A     -0.782202    29A     -0.721220    30A     -0.683816
      31A     -0.670452    32A     -0.663743    33A     -0.643617
      34A     -0.630977    35A     -0.620012    36A     -0.609456
      37A     -0.586823    38A     -0.583681    39A     -0.575237
      40A     -0.563612    41A     -0.539579    42A     -0.532018
      43A     -0.520933    44A     -0.514106    45A     -0.491491
      46A     -0.486755    47A     -0.484509    48A     -0.478958
      49A     -0.464265    50A     -0.339986    51A     -0.336896
      52A     -0.322354    53A     -0.312371

  @DF-RHF Final Energy:  -613.36946761660818

   => Energetics <=

    Nuclear Repulsion Energy =            870.5359004076042311
    One-Electron Energy =               -2559.1980560003726168
    Two-Electron Energy =                1075.2926879761600958
    Total Energy =                       -613.3694676166082900
  Basis Set: (AUG-CC-PVTZ AUX)
    Blend: AUG-CC-PVTZ-RI
    Molecular point group: c1

    Geometry (in Angstrom), charge = 0, multiplicity = 1:

       Center              X                  Y                   Z               Mass
    ------------   -----------------  -----------------  -----------------  -----------------
         O            0.829029140612    -0.235192195029    -0.194793141965    15.994914619570
         C           -1.389753859388     0.488251804971     0.169043858035    12.000000000000
         C            0.055829140612     0.863152804971     0.303518858035    12.000000000000
         C           -4.112531859388    -0.229494195029    -0.045135141965    12.000000000000
         C           -1.865779859388    -0.681398195029     0.774455858035    12.000000000000
         C           -2.281423859388     1.290799804971    -0.546602141965    12.000000000000
         C           -3.208638859388    -1.033450195029     0.664816858035    12.000000000000
         C           -3.628744859388     0.938190804971    -0.645233141965    12.000000000000
         C            2.195535140612    -0.125079195029    -0.101515141965    12.000000000000
         C           -5.572054859388    -0.595305195029    -0.122624141965    12.000000000000
         C            2.877568140612     0.996959804971     0.381458858035    12.000000000000
         C            2.910707140612    -1.247719195029    -0.540862141965    12.000000000000
         C            4.276709140612     0.980464804971     0.421453858035    12.000000000000
         C            4.300572140612    -1.247748195029    -0.496027141965    12.000000000000
         C            4.993580140612    -0.132240195029    -0.012411141965    12.000000000000
         H            0.273831140612     1.776205804971    -0.267802141965     1.007825032230
         H            0.318593140612     1.047097804971     1.355428858035     1.007825032230
         H           -1.173949859388    -1.322298195029     1.317040858035     1.007825032230
         H           -1.922041859388     2.194785804971    -1.035889141965     1.007825032230
         H           -3.563223859388    -1.950121195029     1.133954858035     1.007825032230
         H           -4.309848859388     1.572634804971    -1.210263141965     1.007825032230
         H           -6.040386859388    -0.158651195029    -1.009178141965     1.007825032230
         H           -5.709937059388    -1.729783595029    -0.170394341965     1.007825032230
         H           -6.117699859388    -0.232175195029     0.755236858035     1.007825032230
         H            2.346185140612     1.879551804971     0.720711858035     1.007825032230
         H            2.351435140612    -2.102268195029    -0.911949141965     1.007825032230
         H            4.803395140612     1.854552804971     0.797667858035     1.007825032230
         H            4.846039140612    -2.123715195029    -0.839163141965     1.007825032230
         H            6.079659140612    -0.133042195029     0.023088858035     1.007825032230

  Basis Set: AUG-CC-PVTZ
    Blend: AUG-CC-PVTZ
  Basis Set: (AUG-CC-PVTZ AUX)
    Blend: AUG-CC-PVTZ-JKFIT
	 Reference Energy          =    -613.3694676166081763 [Eh]
	 Singles Energy            =      -0.0000000000000000 [Eh]
	 Same-Spin Energy          =      -0.6726547827363067 [Eh]
	 Opposite-Spin Energy      =      -2.1168650693717619 [Eh]
	 Correlation Energy        =      -2.7895198521080689 [Eh]
	 Total Energy              =    -616.1589874687161910 [Eh]

	 ================> DF-SCS-MP2 Energies <==================
	-----------------------------------------------------------
	 SCS Same-Spin Scale       =       0.3333333333333333 [-]
	 SCS Opposite-Spin Scale   =       1.2000000000000000 [-]
	 SCS Same-Spin Energy      =      -0.2242182609121022 [Eh]
	 SCS Opposite-Spin Energy  =      -2.5402380832461140 [Eh]
	 SCS Correlation Energy    =      -2.7644563441582162 [Eh]
	 SCS Total Energy          =    -616.1339239607664240 [Eh]
	-----------------------------------------------------------

  Dipole Moment: [D]
     X:    -0.9830      Y:     0.7565      Z:     0.4728     Total:     1.3275

*** Psi4 exiting successfully. Buy a developer a beer!
