                               Psi4 1.4a3.dev225

  ==> Input File <==

--------------------------------------------------------------------------
#psi4
#
memory 32 gb

molecule  {
0 1
  O        0.8655410    -0.2383350    -0.1978900
  C       -1.3532420     0.4851090     0.1659470
  C        0.0923410     0.8600100     0.3004220
  C       -4.0760200    -0.2326370    -0.0482320
  C       -1.8292680    -0.6845410     0.7713590
  C       -2.2449120     1.2876570    -0.5496990
  C       -3.1076847    -1.0939103     0.7123354
  C       -3.5922330     0.9350480    -0.6483300
  C        2.2320470    -0.1282220    -0.1046120
  C       -5.5355430    -0.5984480    -0.1257210
  C        2.9140800     0.9938170     0.3783620
  C        2.9472190    -1.2508620    -0.5439590
  C        4.3132210     0.9773220     0.4183570
  C        4.3370840    -1.2508910    -0.4991240
  C        5.0300920    -0.1353830    -0.0155080
  H        0.3103430     1.7730630    -0.2708990
  H        0.3551050     1.0439550     1.3523320
  H       -1.1374380    -1.3254410     1.3139440
  H       -1.8855300     2.1916430    -1.0389860
  H       -3.5267120    -1.9532640     1.1308580
  H       -4.2733370     1.5694920    -1.2133600
  H       -6.0038750    -0.1617940    -1.0122750
  H       -5.6673980    -1.6833350    -0.1714030
  H       -6.0811880    -0.2353180     0.7521400
  H        2.3826970     1.8764090     0.7176150
  H        2.3879470    -2.1054110    -0.9150460
  H        4.8399070     1.8514100     0.7945710
  H        4.8825510    -2.1268580    -0.8422600
  H        6.1161710    -0.1361850     0.0199920
units angstrom
no_reorient  #important for SAPT in psi4, default
symmetry c1  #important for SAPT in psi4, default
}

set PROPERTIES_ORIGIN ["COM"]
properties('MP2/aug-cc-pvtz', properties = ['dipole'])
--------------------------------------------------------------------------

    Molecular point group: c1
  Charge       = 0
  Multiplicity = 1
  Basis Set: AUG-CC-PVTZ
    Blend: AUG-CC-PVTZ
  Basis Set: (AUG-CC-PVTZ AUX)
    Blend: AUG-CC-PVTZ-JKFIT

    Orbital Energies [Eh]
    ---------------------

    Doubly Occupied:

       1A    -20.583337     2A    -11.300711     3A    -11.293118
       4A    -11.253567     5A    -11.240692     6A    -11.239277
       7A    -11.239118     8A    -11.238034     9A    -11.233377
      10A    -11.232642    11A    -11.230643    12A    -11.229742
      13A    -11.227363    14A    -11.227108    15A    -11.226975
      16A     -1.404388    17A     -1.155613    18A     -1.142591
      19A     -1.061296    20A     -1.021465    21A     -1.017090
      22A     -1.008293    23A     -0.964778    24A     -0.895922
      25A     -0.833010    26A     -0.827689    27A     -0.809148
      28A     -0.782383    29A     -0.721075    30A     -0.686476
      31A     -0.670595    32A     -0.663370    33A     -0.642898
      34A     -0.636203    35A     -0.617022    36A     -0.610645
      37A     -0.589022    38A     -0.586369    39A     -0.575959
      40A     -0.562242    41A     -0.546381    42A     -0.530286
      43A     -0.522903    44A     -0.513718    45A     -0.496920
      46A     -0.485935    47A     -0.480218    48A     -0.472187
      49A     -0.461593    50A     -0.345153    51A     -0.339606
      52A     -0.313076    53A     -0.311959

  @DF-RHF Final Energy:  -613.36044871599961

   => Energetics <=

    Nuclear Repulsion Energy =            869.9963681783617631
    One-Electron Energy =               -2558.1112792330595767
    Two-Electron Energy =                1074.7544623386982039
    Total Energy =                       -613.3604487159996097
  Basis Set: (AUG-CC-PVTZ AUX)
    Blend: AUG-CC-PVTZ-RI
    Molecular point group: c1

    Geometry (in Angstrom), charge = 0, multiplicity = 1:

       Center              X                  Y                   Z               Mass
    ------------   -----------------  -----------------  -----------------  -----------------
         O            0.825094943759    -0.231972539453    -0.197869747735    15.994914619570
         C           -1.393688056241     0.491471460547     0.165967252265    12.000000000000
         C            0.051894943759     0.866372460547     0.300442252265    12.000000000000
         C           -4.116466056241    -0.226274539453    -0.048211747735    12.000000000000
         C           -1.869714056241    -0.678178539453     0.771379252265    12.000000000000
         C           -2.285358056241     1.294019460547    -0.549678747735    12.000000000000
         C           -3.148130756241    -1.087547839453     0.712355652265    12.000000000000
         C           -3.632679056241     0.941410460547    -0.648309747735    12.000000000000
         C            2.191600943759    -0.121859539453    -0.104591747735    12.000000000000
         C           -5.575989056241    -0.592085539453    -0.125700747735    12.000000000000
         C            2.873633943759     1.000179460547     0.378382252265    12.000000000000
         C            2.906772943759    -1.244499539453    -0.543938747735    12.000000000000
         C            4.272774943759     0.983684460547     0.418377252265    12.000000000000
         C            4.296637943759    -1.244528539453    -0.499103747735    12.000000000000
         C            4.989645943759    -0.129020539453    -0.015487747735    12.000000000000
         H            0.269896943759     1.779425460547    -0.270878747735     1.007825032230
         H            0.314658943759     1.050317460547     1.352352252265     1.007825032230
         H           -1.177884056241    -1.319078539453     1.313964252265     1.007825032230
         H           -1.925976056241     2.198005460547    -1.038965747735     1.007825032230
         H           -3.567158056241    -1.946901539453     1.130878252265     1.007825032230
         H           -4.313783056241     1.575854460547    -1.213339747735     1.007825032230
         H           -6.044321056241    -0.155431539453    -1.012254747735     1.007825032230
         H           -5.707844056241    -1.676972539453    -0.171382747735     1.007825032230
         H           -6.121634056241    -0.228955539453     0.752160252265     1.007825032230
         H            2.342250943759     1.882771460547     0.717635252265     1.007825032230
         H            2.347500943759    -2.099048539453    -0.915025747735     1.007825032230
         H            4.799460943759     1.857772460547     0.794591252265     1.007825032230
         H            4.842104943759    -2.120495539453    -0.842239747735     1.007825032230
         H            6.075724943759    -0.129822539453     0.020012252265     1.007825032230

  Basis Set: AUG-CC-PVTZ
    Blend: AUG-CC-PVTZ
  Basis Set: (AUG-CC-PVTZ AUX)
    Blend: AUG-CC-PVTZ-JKFIT
	 Reference Energy          =    -613.3604487159996097 [Eh]
	 Singles Energy            =      -0.0000000000000000 [Eh]
	 Same-Spin Energy          =      -0.6722304549151713 [Eh]
	 Opposite-Spin Energy      =      -2.1170283545212527 [Eh]
	 Correlation Energy        =      -2.7892588094364239 [Eh]
	 Total Energy              =    -616.1497075254360425 [Eh]

	 ================> DF-SCS-MP2 Energies <==================
	-----------------------------------------------------------
	 SCS Same-Spin Scale       =       0.3333333333333333 [-]
	 SCS Opposite-Spin Scale   =       1.2000000000000000 [-]
	 SCS Same-Spin Energy      =      -0.2240768183050571 [Eh]
	 SCS Opposite-Spin Energy  =      -2.5404340254255033 [Eh]
	 SCS Correlation Energy    =      -2.7645108437305606 [Eh]
	 SCS Total Energy          =    -616.1249595597302005 [Eh]
	-----------------------------------------------------------

  Dipole Moment: [D]
     X:    -1.0679      Y:     0.7117      Z:     0.4732     Total:     1.3679

*** Psi4 exiting successfully. Buy a developer a beer!
