                               Psi4 1.4a3.dev225

  ==> Input File <==

--------------------------------------------------------------------------
#psi4
#
memory 32 gb

molecule  {
0 1
  O        0.8655410    -0.2383350    -0.1978900
  C       -1.3532420     0.4851090     0.1659470
  C        0.0923410     0.8600100     0.3004220
  C       -4.0760200    -0.2326370    -0.0482320
  C       -1.8292680    -0.6845410     0.7713590
  C       -2.2449120     1.2876570    -0.5496990
  C       -3.1721270    -1.0365930     0.6617200
  C       -3.5922330     0.9350480    -0.6483300
  C        2.2320470    -0.1282220    -0.1046120
  C       -5.5355430    -0.5984480    -0.1257210
  C        2.9140800     0.9938170     0.3783620
  C        2.9472190    -1.2508620    -0.5439590
  C        4.3132210     0.9773220     0.4183570
  C        4.3370840    -1.2508910    -0.4991240
  C        5.0300920    -0.1353830    -0.0155080
  H        0.3103430     1.7730630    -0.2708990
  H        0.3551050     1.0439550     1.3523320
  H       -1.1374380    -1.3254410     1.3139440
  H       -1.8855300     2.1916430    -1.0389860
  H       -3.5267120    -1.9532640     1.1308580
  H       -4.2733370     1.5694920    -1.2133600
  H       -6.0038750    -0.1617940    -1.0122750
  H       -5.6673980    -1.6833350    -0.1714030
  H       -6.0811880    -0.2353180     0.7521400
  H        2.3826970     1.8764090     0.7176150
  H        2.3879470    -2.1054110    -0.9150460
  H        4.8399070     1.8514100     0.7945710
  H        4.8825510    -2.1268580    -0.8422600
  H        6.3160642    -0.1363326     0.0265258
units angstrom
no_reorient  #important for SAPT in psi4, default
symmetry c1  #important for SAPT in psi4, default
}

set PROPERTIES_ORIGIN ["COM"]
properties('MP2/aug-cc-pvtz', properties = ['dipole'])
--------------------------------------------------------------------------

    Molecular point group: c1
  Charge       = 0
  Multiplicity = 1
  Basis Set: AUG-CC-PVTZ
    Blend: AUG-CC-PVTZ
  Basis Set: (AUG-CC-PVTZ AUX)
    Blend: AUG-CC-PVTZ-JKFIT

    Orbital Energies [Eh]
    ---------------------

    Doubly Occupied:

       1A    -20.584744     2A    -11.302194     3A    -11.293831
       4A    -11.249316     5A    -11.244174     6A    -11.243323
       7A    -11.241841     8A    -11.239514     9A    -11.237934
      10A    -11.235344    11A    -11.234710    12A    -11.232591
      13A    -11.232439    14A    -11.229459    15A    -11.226125
      16A     -1.405727    17A     -1.159297    18A     -1.144563
      19A     -1.067269    20A     -1.019381    21A     -1.013657
      22A     -1.006137    23A     -0.962915    24A     -0.899500
      25A     -0.833139    26A     -0.832416    27A     -0.803739
      28A     -0.782546    29A     -0.720561    30A     -0.684382
      31A     -0.670545    32A     -0.644846    33A     -0.644529
      34A     -0.631608    35A     -0.620914    36A     -0.607299
      37A     -0.588283    38A     -0.583906    39A     -0.577243
      40A     -0.564833    41A     -0.543779    42A     -0.530909
      43A     -0.523609    44A     -0.493661    45A     -0.491307
      46A     -0.486951    47A     -0.483948    48A     -0.479793
      49A     -0.465456    50A     -0.341551    51A     -0.337103
      52A     -0.322643    53A     -0.313751

  @DF-RHF Final Energy:  -613.34941231026755

   => Energetics <=

    Nuclear Repulsion Energy =            869.8020932345008305
    One-Electron Energy =               -2557.6805469589194217
    Two-Electron Energy =                1074.5290414141511519
    Total Energy =                       -613.3494123102675530
  Basis Set: (AUG-CC-PVTZ AUX)
    Blend: AUG-CC-PVTZ-RI
    Molecular point group: c1

    Geometry (in Angstrom), charge = 0, multiplicity = 1:

       Center              X                  Y                   Z               Mass
    ------------   -----------------  -----------------  -----------------  -----------------
         O            0.827981553251    -0.235443732516    -0.194837005022    15.994914619570
         C           -1.390801446749     0.488000267484     0.168999994978    12.000000000000
         C            0.054781553251     0.862901267484     0.303474994978    12.000000000000
         C           -4.113579446749    -0.229745732516    -0.045179005022    12.000000000000
         C           -1.866827446749    -0.681649732516     0.774411994978    12.000000000000
         C           -2.282471446749     1.290548267484    -0.546646005022    12.000000000000
         C           -3.209686446749    -1.033701732516     0.664772994978    12.000000000000
         C           -3.629792446749     0.937939267484    -0.645277005022    12.000000000000
         C            2.194487553251    -0.125330732516    -0.101559005022    12.000000000000
         C           -5.573102446749    -0.595556732516    -0.122668005022    12.000000000000
         C            2.876520553251     0.996708267484     0.381414994978    12.000000000000
         C            2.909659553251    -1.247970732516    -0.540906005022    12.000000000000
         C            4.275661553251     0.980213267484     0.421409994978    12.000000000000
         C            4.299524553251    -1.247999732516    -0.496071005022    12.000000000000
         C            4.992532553251    -0.132491732516    -0.012455005022    12.000000000000
         H            0.272783553251     1.775954267484    -0.267846005022     1.007825032230
         H            0.317545553251     1.046846267484     1.355384994978     1.007825032230
         H           -1.174997446749    -1.322549732516     1.316996994978     1.007825032230
         H           -1.923089446749     2.194534267484    -1.035933005022     1.007825032230
         H           -3.564271446749    -1.950372732516     1.133910994978     1.007825032230
         H           -4.310896446749     1.572383267484    -1.210307005022     1.007825032230
         H           -6.041434446749    -0.158902732516    -1.009222005022     1.007825032230
         H           -5.704957446749    -1.680443732516    -0.168350005022     1.007825032230
         H           -6.118747446749    -0.232426732516     0.755192994978     1.007825032230
         H            2.345137553251     1.879300267484     0.720667994978     1.007825032230
         H            2.350387553251    -2.102519732516    -0.911993005022     1.007825032230
         H            4.802347553251     1.854301267484     0.797623994978     1.007825032230
         H            4.844991553251    -2.123966732516    -0.839207005022     1.007825032230
         H            6.278504753251    -0.133441332516     0.029578794978     1.007825032230

  Basis Set: AUG-CC-PVTZ
    Blend: AUG-CC-PVTZ
  Basis Set: (AUG-CC-PVTZ AUX)
    Blend: AUG-CC-PVTZ-JKFIT
	 Reference Energy          =    -613.3494123102675530 [Eh]
	 Singles Energy            =      -0.0000000000000000 [Eh]
	 Same-Spin Energy          =      -0.6730632357540093 [Eh]
	 Opposite-Spin Energy      =      -2.1186534084232829 [Eh]
	 Correlation Energy        =      -2.7917166441772920 [Eh]
	 Total Energy              =    -616.1411289544448664 [Eh]

	 ================> DF-SCS-MP2 Energies <==================
	-----------------------------------------------------------
	 SCS Same-Spin Scale       =       0.3333333333333333 [-]
	 SCS Opposite-Spin Scale   =       1.2000000000000000 [-]
	 SCS Same-Spin Energy      =      -0.2243544119180031 [Eh]
	 SCS Opposite-Spin Energy  =      -2.5423840901079395 [Eh]
	 SCS Correlation Energy    =      -2.7667385020259427 [Eh]
	 SCS Total Energy          =    -616.1161508122935402 [Eh]
	-----------------------------------------------------------

  Dipole Moment: [D]
     X:    -1.1330      Y:     0.7307      Z:     0.4672     Total:     1.4269

*** Psi4 exiting successfully. Buy a developer a beer!
