                               Psi4 1.4a3.dev225

  ==> Input File <==

--------------------------------------------------------------------------
#psi4
#
memory 32 gb

molecule  {
0 1
  O        0.8655410    -0.2383350    -0.1978900
  C       -1.3532420     0.4851090     0.1659470
  C        0.0923410     0.8600100     0.3004220
  C       -4.0939353    -0.2484464    -0.0429033
  C       -1.8292680    -0.6845410     0.7713590
  C       -2.2449120     1.2876570    -0.5496990
  C       -3.1721270    -1.0365930     0.6617200
  C       -3.5922330     0.9350480    -0.6483300
  C        2.2320470    -0.1282220    -0.1046120
  C       -5.5355430    -0.5984480    -0.1257210
  C        2.9140800     0.9938170     0.3783620
  C        2.9472190    -1.2508620    -0.5439590
  C        4.3132210     0.9773220     0.4183570
  C        4.3370840    -1.2508910    -0.4991240
  C        5.0300920    -0.1353830    -0.0155080
  H        0.3103430     1.7730630    -0.2708990
  H        0.3551050     1.0439550     1.3523320
  H       -1.1374380    -1.3254410     1.3139440
  H       -1.8855300     2.1916430    -1.0389860
  H       -3.5267120    -1.9532640     1.1308580
  H       -4.2733370     1.5694920    -1.2133600
  H       -6.0038750    -0.1617940    -1.0122750
  H       -5.6673980    -1.6833350    -0.1714030
  H       -6.0811880    -0.2353180     0.7521400
  H        2.3826970     1.8764090     0.7176150
  H        2.3879470    -2.1054110    -0.9150460
  H        4.8399070     1.8514100     0.7945710
  H        4.8825510    -2.1268580    -0.8422600
  H        6.1161710    -0.1361850     0.0199920
units angstrom
no_reorient  #important for SAPT in psi4, default
symmetry c1  #important for SAPT in psi4, default
}

set PROPERTIES_ORIGIN ["COM"]
properties('MP2/aug-cc-pvtz', properties = ['dipole'])
--------------------------------------------------------------------------

    Molecular point group: c1
  Charge       = 0
  Multiplicity = 1
  Basis Set: AUG-CC-PVTZ
    Blend: AUG-CC-PVTZ
  Basis Set: (AUG-CC-PVTZ AUX)
    Blend: AUG-CC-PVTZ-JKFIT

    Orbital Energies [Eh]
    ---------------------

    Doubly Occupied:

       1A    -20.583857     2A    -11.300971     3A    -11.293125
       4A    -11.245359     5A    -11.240924     6A    -11.239359
       7A    -11.239110     8A    -11.237490     9A    -11.234938
      10A    -11.234386    11A    -11.232907    12A    -11.232035
      13A    -11.227639    14A    -11.227221    15A    -11.225565
      16A     -1.404811    17A     -1.157486    18A     -1.143462
      19A     -1.068223    20A     -1.017909    21A     -1.012544
      22A     -1.008758    23A     -0.965460    24A     -0.899407
      25A     -0.831778    26A     -0.831376    27A     -0.808455
      28A     -0.782014    29A     -0.721092    30A     -0.683638
      31A     -0.670416    32A     -0.663646    33A     -0.644537
      34A     -0.631125    35A     -0.620531    36A     -0.609176
      37A     -0.586755    38A     -0.581935    39A     -0.579047
      40A     -0.565149    41A     -0.544072    42A     -0.533503
      43A     -0.522382    44A     -0.514456    45A     -0.492604
      46A     -0.486117    47A     -0.483263    48A     -0.478244
      49A     -0.463916    50A     -0.339901    51A     -0.336683
      52A     -0.319977    53A     -0.312255

  @DF-RHF Final Energy:  -613.37022295975487

   => Energetics <=

    Nuclear Repulsion Energy =            870.4895221559160063
    One-Electron Energy =               -2559.0975128526056324
    Two-Electron Energy =                1075.2377677369349840
    Total Energy =                       -613.3702229597547557
  Basis Set: (AUG-CC-PVTZ AUX)
    Blend: AUG-CC-PVTZ-RI
    Molecular point group: c1

    Geometry (in Angstrom), charge = 0, multiplicity = 1:

       Center              X                  Y                   Z               Mass
    ------------   -----------------  -----------------  -----------------  -----------------
         O            0.830083681391    -0.234486843206    -0.195126546566    15.994914619570
         C           -1.388699318609     0.488957156794     0.168710453434    12.000000000000
         C            0.056883681391     0.863858156794     0.303185453434    12.000000000000
         C           -4.129392618609    -0.244598243206    -0.040139846566    12.000000000000
         C           -1.864725318609    -0.680692843206     0.774122453434    12.000000000000
         C           -2.280369318609     1.291505156794    -0.546935546566    12.000000000000
         C           -3.207584318609    -1.032744843206     0.664483453434    12.000000000000
         C           -3.627690318609     0.938896156794    -0.645566546566    12.000000000000
         C            2.196589681391    -0.124373843206    -0.101848546566    12.000000000000
         C           -5.571000318609    -0.594599843206    -0.122957546566    12.000000000000
         C            2.878622681391     0.997665156794     0.381125453434    12.000000000000
         C            2.911761681391    -1.247013843206    -0.541195546566    12.000000000000
         C            4.277763681391     0.981170156794     0.421120453434    12.000000000000
         C            4.301626681391    -1.247042843206    -0.496360546566    12.000000000000
         C            4.994634681391    -0.131534843206    -0.012744546566    12.000000000000
         H            0.274885681391     1.776911156794    -0.268135546566     1.007825032230
         H            0.319647681391     1.047803156794     1.355095453434     1.007825032230
         H           -1.172895318609    -1.321592843206     1.316707453434     1.007825032230
         H           -1.920987318609     2.195491156794    -1.036222546566     1.007825032230
         H           -3.562169318609    -1.949415843206     1.133621453434     1.007825032230
         H           -4.308794318609     1.573340156794    -1.210596546566     1.007825032230
         H           -6.039332318609    -0.157945843206    -1.009511546566     1.007825032230
         H           -5.702855318609    -1.679486843206    -0.168639546566     1.007825032230
         H           -6.116645318609    -0.231469843206     0.754903453434     1.007825032230
         H            2.347239681391     1.880257156794     0.720378453434     1.007825032230
         H            2.352489681391    -2.101562843206    -0.912282546566     1.007825032230
         H            4.804449681391     1.855258156794     0.797334453434     1.007825032230
         H            4.847093681391    -2.123009843206    -0.839496546566     1.007825032230
         H            6.080713681391    -0.132336843206     0.022755453434     1.007825032230

  Basis Set: AUG-CC-PVTZ
    Blend: AUG-CC-PVTZ
  Basis Set: (AUG-CC-PVTZ AUX)
    Blend: AUG-CC-PVTZ-JKFIT
	 Reference Energy          =    -613.3702229597548694 [Eh]
	 Singles Energy            =      -0.0000000000000000 [Eh]
	 Same-Spin Energy          =      -0.6728969520515278 [Eh]
	 Opposite-Spin Energy      =      -2.1168794670681068 [Eh]
	 Correlation Energy        =      -2.7897764191196348 [Eh]
	 Total Energy              =    -616.1599993788745451 [Eh]

	 ================> DF-SCS-MP2 Energies <==================
	-----------------------------------------------------------
	 SCS Same-Spin Scale       =       0.3333333333333333 [-]
	 SCS Opposite-Spin Scale   =       1.2000000000000000 [-]
	 SCS Same-Spin Energy      =      -0.2242989840171759 [Eh]
	 SCS Opposite-Spin Energy  =      -2.5402553604817282 [Eh]
	 SCS Correlation Energy    =      -2.7645543444989040 [Eh]
	 SCS Total Energy          =    -616.1347773042538165 [Eh]
	-----------------------------------------------------------

  Dipole Moment: [D]
     X:    -1.0384      Y:     0.7275      Z:     0.4689     Total:     1.3518

*** Psi4 exiting successfully. Buy a developer a beer!
