                               Psi4 1.4a3.dev225

  ==> Input File <==

--------------------------------------------------------------------------
#psi4
#
memory 32 gb

molecule  {
0 1
  O        0.8655410    -0.2383350    -0.1978900
  C       -1.3532420     0.4851090     0.1659470
  C        0.0923410     0.8600100     0.3004220
  C       -4.1791937    -0.3309956    -0.0130752
  C       -1.8292680    -0.6845410     0.7713590
  C       -2.2449120     1.2876570    -0.5496990
  C       -3.1721270    -1.0365930     0.6617200
  C       -3.5922330     0.9350480    -0.6483300
  C        2.2320470    -0.1282220    -0.1046120
  C       -5.5355430    -0.5984480    -0.1257210
  C        2.9140800     0.9938170     0.3783620
  C        2.9472190    -1.2508620    -0.5439590
  C        4.3132210     0.9773220     0.4183570
  C        4.3370840    -1.2508910    -0.4991240
  C        5.0300920    -0.1353830    -0.0155080
  H        0.3103430     1.7730630    -0.2708990
  H        0.3551050     1.0439550     1.3523320
  H       -1.1374380    -1.3254410     1.3139440
  H       -1.8855300     2.1916430    -1.0389860
  H       -3.5267120    -1.9532640     1.1308580
  H       -4.2733370     1.5694920    -1.2133600
  H       -6.0038750    -0.1617940    -1.0122750
  H       -5.6673980    -1.6833350    -0.1714030
  H       -6.0811880    -0.2353180     0.7521400
  H        2.3826970     1.8764090     0.7176150
  H        2.3879470    -2.1054110    -0.9150460
  H        4.8399070     1.8514100     0.7945710
  H        4.8825510    -2.1268580    -0.8422600
  H        6.1161710    -0.1361850     0.0199920
units angstrom
no_reorient  #important for SAPT in psi4, default
symmetry c1  #important for SAPT in psi4, default
}

set PROPERTIES_ORIGIN ["COM"]
properties('MP2/aug-cc-pvtz', properties = ['dipole'])
--------------------------------------------------------------------------

    Molecular point group: c1
  Charge       = 0
  Multiplicity = 1
  Basis Set: AUG-CC-PVTZ
    Blend: AUG-CC-PVTZ
  Basis Set: (AUG-CC-PVTZ AUX)
    Blend: AUG-CC-PVTZ-JKFIT

    Orbital Energies [Eh]
    ---------------------

    Doubly Occupied:

       1A    -20.583657     2A    -11.300746     3A    -11.292868
       4A    -11.253122     5A    -11.243756     6A    -11.240745
       7A    -11.239178     8A    -11.239075     9A    -11.236719
      10A    -11.235057    11A    -11.232718    12A    -11.232382
      13A    -11.227447    14A    -11.227051    15A    -11.223922
      16A     -1.404570    17A     -1.153186    18A     -1.142212
      19A     -1.079078    20A     -1.019412    21A     -1.012403
      22A     -1.007689    23A     -0.970269    24A     -0.899130
      25A     -0.832253    26A     -0.826273    27A     -0.805368
      28A     -0.778884    29A     -0.720752    30A     -0.682939
      31A     -0.669876    32A     -0.663497    33A     -0.650507
      34A     -0.631958    35A     -0.621675    36A     -0.607993
      37A     -0.591426    38A     -0.586501    39A     -0.579719
      40A     -0.570419    41A     -0.548711    42A     -0.540288
      43A     -0.520309    44A     -0.515937    45A     -0.500214
      46A     -0.483834    47A     -0.477794    48A     -0.464627
      49A     -0.454928    50A     -0.339805    51A     -0.338123
      52A     -0.312326    53A     -0.307385

  @DF-RHF Final Energy:  -613.34195015314992

   => Energetics <=

    Nuclear Repulsion Energy =            869.3751754042452831
    One-Electron Energy =               -2556.7928245581015290
    Two-Electron Energy =                1074.0756990007062086
    Total Energy =                       -613.3419501531500373
  Basis Set: (AUG-CC-PVTZ AUX)
    Blend: AUG-CC-PVTZ-RI
    Molecular point group: c1

    Geometry (in Angstrom), charge = 0, multiplicity = 1:

       Center              X                  Y                   Z               Mass
    ------------   -----------------  -----------------  -----------------  -----------------
         O            0.835248132377    -0.229486499576    -0.196933356927    15.994914619570
         C           -1.383534867623     0.493957500424     0.166903643073    12.000000000000
         C            0.062048132377     0.868858500424     0.301378643073    12.000000000000
         C           -4.209486567623    -0.322147099576    -0.012118556927    12.000000000000
         C           -1.859560867623    -0.675692499576     0.772315643073    12.000000000000
         C           -2.275204867623     1.296505500424    -0.548742356927    12.000000000000
         C           -3.202419867623    -1.027744499576     0.662676643073    12.000000000000
         C           -3.622525867623     0.943896500424    -0.647373356927    12.000000000000
         C            2.201754132377    -0.119373499576    -0.103655356927    12.000000000000
         C           -5.565835867623    -0.589599499576    -0.124764356927    12.000000000000
         C            2.883787132377     1.002665500424     0.379318643073    12.000000000000
         C            2.916926132377    -1.242013499576    -0.543002356927    12.000000000000
         C            4.282928132377     0.986170500424     0.419313643073    12.000000000000
         C            4.306791132377    -1.242042499576    -0.498167356927    12.000000000000
         C            4.999799132377    -0.126534499576    -0.014551356927    12.000000000000
         H            0.280050132377     1.781911500424    -0.269942356927     1.007825032230
         H            0.324812132377     1.052803500424     1.353288643073     1.007825032230
         H           -1.167730867623    -1.316592499576     1.314900643073     1.007825032230
         H           -1.915822867623     2.200491500424    -1.038029356927     1.007825032230
         H           -3.557004867623    -1.944415499576     1.131814643073     1.007825032230
         H           -4.303629867623     1.578340500424    -1.212403356927     1.007825032230
         H           -6.034167867623    -0.152945499576    -1.011318356927     1.007825032230
         H           -5.697690867623    -1.674486499576    -0.170446356927     1.007825032230
         H           -6.111480867623    -0.226469499576     0.753096643073     1.007825032230
         H            2.352404132377     1.885257500424     0.718571643073     1.007825032230
         H            2.357654132377    -2.096562499576    -0.914089356927     1.007825032230
         H            4.809614132377     1.860258500424     0.795527643073     1.007825032230
         H            4.852258132377    -2.118009499576    -0.841303356927     1.007825032230
         H            6.085878132377    -0.127336499576     0.020948643073     1.007825032230

  Basis Set: AUG-CC-PVTZ
    Blend: AUG-CC-PVTZ
  Basis Set: (AUG-CC-PVTZ AUX)
    Blend: AUG-CC-PVTZ-JKFIT
	 Reference Energy          =    -613.3419501531499236 [Eh]
	 Singles Energy            =      -0.0000000000000000 [Eh]
	 Same-Spin Energy          =      -0.6746299550401992 [Eh]
	 Opposite-Spin Energy      =      -2.1200652310320902 [Eh]
	 Correlation Energy        =      -2.7946951860722895 [Eh]
	 Total Energy              =    -616.1366453392222411 [Eh]

	 ================> DF-SCS-MP2 Energies <==================
	-----------------------------------------------------------
	 SCS Same-Spin Scale       =       0.3333333333333333 [-]
	 SCS Opposite-Spin Scale   =       1.2000000000000000 [-]
	 SCS Same-Spin Energy      =      -0.2248766516800664 [Eh]
	 SCS Opposite-Spin Energy  =      -2.5440782772385080 [Eh]
	 SCS Correlation Energy    =      -2.7689549289185744 [Eh]
	 SCS Total Energy          =    -616.1109050820684843 [Eh]
	-----------------------------------------------------------

  Dipole Moment: [D]
     X:    -1.2373      Y:     0.7114      Z:     0.4576     Total:     1.4988

*** Psi4 exiting successfully. Buy a developer a beer!
