                               Psi4 1.4a3.dev225

  ==> Input File <==

--------------------------------------------------------------------------
#psi4
#
memory 32 gb

molecule  {
0 1
  O        0.8655410    -0.2383350    -0.1978900
  C       -1.3532420     0.4851090     0.1659470
  C        0.0923410     0.8600100     0.3004220
  C       -4.0760200    -0.2326370    -0.0482320
  C       -1.8292680    -0.6845410     0.7713590
  C       -2.2449120     1.2876570    -0.5496990
  C       -3.2685578    -1.0618739     0.6538468
  C       -3.5922330     0.9350480    -0.6483300
  C        2.2320470    -0.1282220    -0.1046120
  C       -5.5355430    -0.5984480    -0.1257210
  C        2.9140800     0.9938170     0.3783620
  C        2.9472190    -1.2508620    -0.5439590
  C        4.3132210     0.9773220     0.4183570
  C        4.3370840    -1.2508910    -0.4991240
  C        5.0300920    -0.1353830    -0.0155080
  H        0.3103430     1.7730630    -0.2708990
  H        0.3551050     1.0439550     1.3523320
  H       -1.1374380    -1.3254410     1.3139440
  H       -1.8855300     2.1916430    -1.0389860
  H       -3.5267120    -1.9532640     1.1308580
  H       -4.2733370     1.5694920    -1.2133600
  H       -6.0038750    -0.1617940    -1.0122750
  H       -5.6673980    -1.6833350    -0.1714030
  H       -6.0811880    -0.2353180     0.7521400
  H        2.3826970     1.8764090     0.7176150
  H        2.3879470    -2.1054110    -0.9150460
  H        4.8399070     1.8514100     0.7945710
  H        4.8825510    -2.1268580    -0.8422600
  H        6.1161710    -0.1361850     0.0199920
units angstrom
no_reorient  #important for SAPT in psi4, default
symmetry c1  #important for SAPT in psi4, default
}

set PROPERTIES_ORIGIN ["COM"]
properties('MP2/aug-cc-pvtz', properties = ['dipole'])
--------------------------------------------------------------------------

    Molecular point group: c1
  Charge       = 0
  Multiplicity = 1
  Basis Set: AUG-CC-PVTZ
    Blend: AUG-CC-PVTZ
  Basis Set: (AUG-CC-PVTZ AUX)
    Blend: AUG-CC-PVTZ-JKFIT

    Orbital Energies [Eh]
    ---------------------

    Doubly Occupied:

       1A    -20.584031     2A    -11.301075     3A    -11.293545
       4A    -11.244753     5A    -11.241057     6A    -11.239983
       7A    -11.239491     8A    -11.238899     9A    -11.238480
      10A    -11.233560    11A    -11.233051    12A    -11.232530
      13A    -11.227772    14A    -11.227351    15A    -11.222693
      16A     -1.404966    17A     -1.156780    18A     -1.143701
      19A     -1.071655    20A     -1.018158    21A     -1.011865
      22A     -1.000496    23A     -0.960728    24A     -0.900888
      25A     -0.840524    26A     -0.831580    27A     -0.808977
      28A     -0.779791    29A     -0.721308    30A     -0.683618
      31A     -0.669008    32A     -0.663708    33A     -0.644634
      34A     -0.638643    35A     -0.622614    36A     -0.609295
      37A     -0.587060    38A     -0.580812    39A     -0.576553
      40A     -0.565491    41A     -0.541991    42A     -0.529953
      43A     -0.522421    44A     -0.513119    45A     -0.499202
      46A     -0.487232    47A     -0.480614    48A     -0.470786
      49A     -0.464582    50A     -0.340192    51A     -0.333765
      52A     -0.323122    53A     -0.312325

  @DF-RHF Final Energy:  -613.35941597545229

   => Energetics <=

    Nuclear Repulsion Energy =            869.7923065019181195
    One-Electron Energy =               -2557.6825918040217402
    Two-Electron Energy =                1074.5308693266513274
    Total Energy =                       -613.3594159754522934
  Basis Set: (AUG-CC-PVTZ AUX)
    Blend: AUG-CC-PVTZ-RI
    Molecular point group: c1

    Geometry (in Angstrom), charge = 0, multiplicity = 1:

       Center              X                  Y                   Z               Mass
    ------------   -----------------  -----------------  -----------------  -----------------
         O            0.834839687267    -0.233913115602    -0.194326853334    15.994914619570
         C           -1.383943312733     0.489530884398     0.169510146666    12.000000000000
         C            0.061639687267     0.864431884398     0.303985146666    12.000000000000
         C           -4.106721312733    -0.228215115602    -0.044668853334    12.000000000000
         C           -1.859969312733    -0.680119115602     0.774922146666    12.000000000000
         C           -2.275613312733     1.292078884398    -0.546135853334    12.000000000000
         C           -3.299259112733    -1.057452015602     0.657409946666    12.000000000000
         C           -3.622934312733     0.939469884398    -0.644766853334    12.000000000000
         C            2.201345687267    -0.123800115602    -0.101048853334    12.000000000000
         C           -5.566244312733    -0.594026115602    -0.122157853334    12.000000000000
         C            2.883378687267     0.998238884398     0.381925146666    12.000000000000
         C            2.916517687267    -1.246440115602    -0.540395853334    12.000000000000
         C            4.282519687267     0.981743884398     0.421920146666    12.000000000000
         C            4.306382687267    -1.246469115602    -0.495560853334    12.000000000000
         C            4.999390687267    -0.130961115602    -0.011944853334    12.000000000000
         H            0.279641687267     1.777484884398    -0.267335853334     1.007825032230
         H            0.324403687267     1.048376884398     1.355895146666     1.007825032230
         H           -1.168139312733    -1.321019115602     1.317507146666     1.007825032230
         H           -1.916231312733     2.196064884398    -1.035422853334     1.007825032230
         H           -3.557413312733    -1.948842115602     1.134421146666     1.007825032230
         H           -4.304038312733     1.573913884398    -1.209796853334     1.007825032230
         H           -6.034576312733    -0.157372115602    -1.008711853334     1.007825032230
         H           -5.698099312733    -1.678913115602    -0.167839853334     1.007825032230
         H           -6.111889312733    -0.230896115602     0.755703146666     1.007825032230
         H            2.351995687267     1.880830884398     0.721178146666     1.007825032230
         H            2.357245687267    -2.100989115602    -0.911482853334     1.007825032230
         H            4.809205687267     1.855831884398     0.798134146666     1.007825032230
         H            4.851849687267    -2.122436115602    -0.838696853334     1.007825032230
         H            6.085469687267    -0.131763115602     0.023555146666     1.007825032230

  Basis Set: AUG-CC-PVTZ
    Blend: AUG-CC-PVTZ
  Basis Set: (AUG-CC-PVTZ AUX)
    Blend: AUG-CC-PVTZ-JKFIT
	 Reference Energy          =    -613.3594159754522934 [Eh]
	 Singles Energy            =      -0.0000000000000000 [Eh]
	 Same-Spin Energy          =      -0.6726762072104969 [Eh]
	 Opposite-Spin Energy      =      -2.1174463733035469 [Eh]
	 Correlation Energy        =      -2.7901225805140437 [Eh]
	 Total Energy              =    -616.1495385559663873 [Eh]

	 ================> DF-SCS-MP2 Energies <==================
	-----------------------------------------------------------
	 SCS Same-Spin Scale       =       0.3333333333333333 [-]
	 SCS Opposite-Spin Scale   =       1.2000000000000000 [-]
	 SCS Same-Spin Energy      =      -0.2242254024034990 [Eh]
	 SCS Opposite-Spin Energy  =      -2.5409356479642562 [Eh]
	 SCS Correlation Energy    =      -2.7651610503677553 [Eh]
	 SCS Total Energy          =    -616.1245770258200309 [Eh]
	-----------------------------------------------------------

  Dipole Moment: [D]
     X:    -0.9260      Y:     0.7238      Z:     0.4866     Total:     1.2720

*** Psi4 exiting successfully. Buy a developer a beer!
