                               Psi4 1.4a3.dev225

  ==> Input File <==

--------------------------------------------------------------------------
#psi4
#
memory 32 gb

molecule  {
0 1
  O        0.8655410    -0.2383350    -0.1978900
  C       -1.3532420     0.4851090     0.1659470
  C        0.0923410     0.8600100     0.3004220
  C       -4.0760200    -0.2326370    -0.0482320
  C       -1.8292680    -0.6845410     0.7713590
  C       -2.2449120     1.2876570    -0.5496990
  C       -3.1721270    -1.0365930     0.6617200
  C       -3.5922330     0.9350480    -0.6483300
  C        2.2320470    -0.1282220    -0.1046120
  C       -5.5355430    -0.5984480    -0.1257210
  C        2.9384545     1.0339164     0.3956225
  C        2.9472190    -1.2508620    -0.5439590
  C        4.3132210     0.9773220     0.4183570
  C        4.3370840    -1.2508910    -0.4991240
  C        5.0300920    -0.1353830    -0.0155080
  H        0.3103430     1.7730630    -0.2708990
  H        0.3551050     1.0439550     1.3523320
  H       -1.1374380    -1.3254410     1.3139440
  H       -1.8855300     2.1916430    -1.0389860
  H       -3.5267120    -1.9532640     1.1308580
  H       -4.2733370     1.5694920    -1.2133600
  H       -6.0038750    -0.1617940    -1.0122750
  H       -5.6673980    -1.6833350    -0.1714030
  H       -6.0811880    -0.2353180     0.7521400
  H        2.3826970     1.8764090     0.7176150
  H        2.3879470    -2.1054110    -0.9150460
  H        4.8399070     1.8514100     0.7945710
  H        4.8825510    -2.1268580    -0.8422600
  H        6.1161710    -0.1361850     0.0199920
units angstrom
no_reorient  #important for SAPT in psi4, default
symmetry c1  #important for SAPT in psi4, default
}

set PROPERTIES_ORIGIN ["COM"]
properties('MP2/aug-cc-pvtz', properties = ['dipole'])
--------------------------------------------------------------------------

    Molecular point group: c1
  Charge       = 0
  Multiplicity = 1
  Basis Set: AUG-CC-PVTZ
    Blend: AUG-CC-PVTZ
  Basis Set: (AUG-CC-PVTZ AUX)
    Blend: AUG-CC-PVTZ-JKFIT

    Orbital Energies [Eh]
    ---------------------

    Doubly Occupied:

       1A    -20.585619     2A    -11.306589     3A    -11.294201
       4A    -11.244247     5A    -11.239832     6A    -11.239622
       7A    -11.238608     8A    -11.238032     9A    -11.235424
      10A    -11.234206    11A    -11.232638    12A    -11.232482
      13A    -11.226321    14A    -11.226205    15A    -11.226152
      16A     -1.405569    17A     -1.158941    18A     -1.142016
      19A     -1.067552    20A     -1.021240    21A     -1.013663
      22A     -1.004633    23A     -0.963127    24A     -0.899908
      25A     -0.833222    26A     -0.828963    27A     -0.810176
      28A     -0.783198    29A     -0.720264    30A     -0.684729
      31A     -0.671484    32A     -0.666747    33A     -0.642147
      34A     -0.629705    35A     -0.620854    36A     -0.609205
      37A     -0.589909    38A     -0.583958    39A     -0.577315
      40A     -0.565873    41A     -0.543304    42A     -0.531822
      43A     -0.523228    44A     -0.517395    45A     -0.489554
      46A     -0.486953    47A     -0.485564    48A     -0.475625
      49A     -0.465226    50A     -0.342694    51A     -0.337142
      52A     -0.322705    53A     -0.307466

  @DF-RHF Final Energy:  -613.36823692406665

   => Energetics <=

    Nuclear Repulsion Energy =            869.9918954542381471
    One-Electron Energy =               -2558.0737552561295161
    Two-Electron Energy =                1074.7136228778247187
    Total Energy =                       -613.3682369240666503
  Basis Set: (AUG-CC-PVTZ AUX)
    Blend: AUG-CC-PVTZ-RI
    Molecular point group: c1

    Geometry (in Angstrom), charge = 0, multiplicity = 1:

       Center              X                  Y                   Z               Mass
    ------------   -----------------  -----------------  -----------------  -----------------
         O            0.827522014748    -0.237873468539    -0.195849304632    15.994914619570
         C           -1.391260985252     0.485570531461     0.167987695368    12.000000000000
         C            0.054322014748     0.860471531461     0.302462695368    12.000000000000
         C           -4.114038985252    -0.232175468539    -0.046191304632    12.000000000000
         C           -1.867286985252    -0.684079468539     0.773399695368    12.000000000000
         C           -2.282930985252     1.288118531461    -0.547658304632    12.000000000000
         C           -3.210145985252    -1.036131468539     0.663760695368    12.000000000000
         C           -3.630251985252     0.935509531461    -0.646289304632    12.000000000000
         C            2.194028014748    -0.127760468539    -0.102571304632    12.000000000000
         C           -5.573561985252    -0.597986468539    -0.123680304632    12.000000000000
         C            2.900435514748     1.034377931461     0.397663195368    12.000000000000
         C            2.909200014748    -1.250400468539    -0.541918304632    12.000000000000
         C            4.275202014748     0.977783531461     0.420397695368    12.000000000000
         C            4.299065014748    -1.250429468539    -0.497083304632    12.000000000000
         C            4.992073014748    -0.134921468539    -0.013467304632    12.000000000000
         H            0.272324014748     1.773524531461    -0.268858304632     1.007825032230
         H            0.317086014748     1.044416531461     1.354372695368     1.007825032230
         H           -1.175456985252    -1.324979468539     1.315984695368     1.007825032230
         H           -1.923548985252     2.192104531461    -1.036945304632     1.007825032230
         H           -3.564730985252    -1.952802468539     1.132898695368     1.007825032230
         H           -4.311355985252     1.569953531461    -1.211319304632     1.007825032230
         H           -6.041893985252    -0.161332468539    -1.010234304632     1.007825032230
         H           -5.705416985252    -1.682873468539    -0.169362304632     1.007825032230
         H           -6.119206985252    -0.234856468539     0.754180695368     1.007825032230
         H            2.344678014748     1.876870531461     0.719655695368     1.007825032230
         H            2.349928014748    -2.104949468539    -0.913005304632     1.007825032230
         H            4.801888014748     1.851871531461     0.796611695368     1.007825032230
         H            4.844532014748    -2.126396468539    -0.840219304632     1.007825032230
         H            6.078152014748    -0.135723468539     0.022032695368     1.007825032230

  Basis Set: AUG-CC-PVTZ
    Blend: AUG-CC-PVTZ
  Basis Set: (AUG-CC-PVTZ AUX)
    Blend: AUG-CC-PVTZ-JKFIT
	 Reference Energy          =    -613.3682369240666503 [Eh]
	 Singles Energy            =      -0.0000000000000000 [Eh]
	 Same-Spin Energy          =      -0.6726759040526233 [Eh]
	 Opposite-Spin Energy      =      -2.1167870767252976 [Eh]
	 Correlation Energy        =      -2.7894629807779210 [Eh]
	 Total Energy              =    -616.1576999048445487 [Eh]

	 ================> DF-SCS-MP2 Energies <==================
	-----------------------------------------------------------
	 SCS Same-Spin Scale       =       0.3333333333333333 [-]
	 SCS Opposite-Spin Scale   =       1.2000000000000000 [-]
	 SCS Same-Spin Energy      =      -0.2242253013508744 [Eh]
	 SCS Opposite-Spin Energy  =      -2.5401444920703571 [Eh]
	 SCS Correlation Energy    =      -2.7643697934212317 [Eh]
	 SCS Total Energy          =    -616.1326067174878744 [Eh]
	-----------------------------------------------------------

  Dipole Moment: [D]
     X:    -1.0956      Y:     0.7321      Z:     0.4696     Total:     1.3989

*** Psi4 exiting successfully. Buy a developer a beer!
