                               Psi4 1.4a3.dev225

  ==> Input File <==

--------------------------------------------------------------------------
#psi4
#
memory 32 gb

molecule  {
0 1
  O        0.8655410    -0.2383350    -0.1978900
  C       -1.3532420     0.4851090     0.1659470
  C        0.0923410     0.8600100     0.3004220
  C       -4.0760200    -0.2326370    -0.0482320
  C       -1.8292680    -0.6845410     0.7713590
  C       -2.2449120     1.2876570    -0.5496990
  C       -3.1721270    -1.0365930     0.6617200
  C       -3.5922330     0.9350480    -0.6483300
  C        2.2320470    -0.1282220    -0.1046120
  C       -5.5355430    -0.5984480    -0.1257210
  C        2.9140800     0.9938170     0.3783620
  C        2.9472190    -1.2508620    -0.5439590
  C        4.3132210     0.9773220     0.4183570
  C        4.3370840    -1.2508910    -0.4991240
  C        5.0300920    -0.1353830    -0.0155080
  H        0.3103430     1.7730630    -0.2708990
  H        0.3551050     1.0439550     1.3523320
  H       -1.1374380    -1.3254410     1.3139440
  H       -1.8855300     2.1916430    -1.0389860
  H       -3.5267120    -1.9532640     1.1308580
  H       -4.2733370     1.5694920    -1.2133600
  H       -6.0038750    -0.1617940    -1.0122750
  H       -5.6673980    -1.6833350    -0.1714030
  H       -6.0811880    -0.2353180     0.7521400
  H        2.3826970     1.8764090     0.7176150
  H        2.3879470    -2.1054110    -0.9150460
  H        4.8399070     1.8514100     0.7945710
  H        4.8825510    -2.1268580    -0.8422600
  H        5.9162778    -0.1360374     0.0134582
units angstrom
no_reorient  #important for SAPT in psi4, default
symmetry c1  #important for SAPT in psi4, default
}

set PROPERTIES_ORIGIN ["COM"]
properties('MP2/aug-cc-pvtz', properties = ['dipole'])
--------------------------------------------------------------------------

    Molecular point group: c1
  Charge       = 0
  Multiplicity = 1
  Basis Set: AUG-CC-PVTZ
    Blend: AUG-CC-PVTZ
  Basis Set: (AUG-CC-PVTZ AUX)
    Blend: AUG-CC-PVTZ-JKFIT

    Orbital Energies [Eh]
    ---------------------

    Doubly Occupied:

       1A    -20.583576     2A    -11.300602     3A    -11.292867
       4A    -11.243670     5A    -11.239685     6A    -11.238906
       7A    -11.238018     8A    -11.237363     9A    -11.234772
      10A    -11.232100    11A    -11.231936    12A    -11.231854
      13A    -11.226551    14A    -11.225750    15A    -11.203089
      16A     -1.404506    17A     -1.158717    18A     -1.144778
      19A     -1.067423    20A     -1.018138    21A     -1.015138
      22A     -1.012413    23A     -0.966923    24A     -0.900501
      25A     -0.835563    26A     -0.830961    27A     -0.820246
      28A     -0.782656    29A     -0.725093    30A     -0.692033
      31A     -0.682611    32A     -0.669276    33A     -0.643242
      34A     -0.630677    35A     -0.620442    36A     -0.610314
      37A     -0.585839    38A     -0.583384    39A     -0.576870
      40A     -0.563622    41A     -0.543196    42A     -0.538004
      43A     -0.524735    44A     -0.521475    45A     -0.490758
      46A     -0.486425    47A     -0.484926    48A     -0.478261
      49A     -0.463603    50A     -0.338969    51A     -0.336578
      52A     -0.322060    53A     -0.311883

  @DF-RHF Final Energy:  -613.33672914558019

   => Energetics <=

    Nuclear Repulsion Energy =            871.9402603536890410
    One-Electron Energy =               -2561.8680218168992724
    Two-Electron Energy =                1076.5910323176299244
    Total Energy =                       -613.3367291455801933
  Basis Set: (AUG-CC-PVTZ AUX)
    Blend: AUG-CC-PVTZ-RI
    Molecular point group: c1

    Geometry (in Angstrom), charge = 0, multiplicity = 1:

       Center              X                  Y                   Z               Mass
    ------------   -----------------  -----------------  -----------------  -----------------
         O            0.830015403125    -0.235445234299    -0.194770525680    15.994914619570
         C           -1.388767596875     0.487998765701     0.169066474320    12.000000000000
         C            0.056815403125     0.862899765701     0.303541474320    12.000000000000
         C           -4.111545596875    -0.229747234299    -0.045112525680    12.000000000000
         C           -1.864793596875    -0.681651234299     0.774478474320    12.000000000000
         C           -2.280437596875     1.290546765701    -0.546579525680    12.000000000000
         C           -3.207652596875    -1.033703234299     0.664839474320    12.000000000000
         C           -3.627758596875     0.937937765701    -0.645210525680    12.000000000000
         C            2.196521403125    -0.125332234299    -0.101492525680    12.000000000000
         C           -5.571068596875    -0.595558234299    -0.122601525680    12.000000000000
         C            2.878554403125     0.996706765701     0.381481474320    12.000000000000
         C            2.911693403125    -1.247972234299    -0.540839525680    12.000000000000
         C            4.277695403125     0.980211765701     0.421476474320    12.000000000000
         C            4.301558403125    -1.248001234299    -0.496004525680    12.000000000000
         C            4.994566403125    -0.132493234299    -0.012388525680    12.000000000000
         H            0.274817403125     1.775952765701    -0.267779525680     1.007825032230
         H            0.319579403125     1.046844765701     1.355451474320     1.007825032230
         H           -1.172963596875    -1.322551234299     1.317063474320     1.007825032230
         H           -1.921055596875     2.194532765701    -1.035866525680     1.007825032230
         H           -3.562237596875    -1.950374234299     1.133977474320     1.007825032230
         H           -4.308862596875     1.572381765701    -1.210240525680     1.007825032230
         H           -6.039400596875    -0.158904234299    -1.009155525680     1.007825032230
         H           -5.702923596875    -1.680445234299    -0.168283525680     1.007825032230
         H           -6.116713596875    -0.232428234299     0.755259474320     1.007825032230
         H            2.347171403125     1.879298765701     0.720734474320     1.007825032230
         H            2.352421403125    -2.102521234299    -0.911926525680     1.007825032230
         H            4.804381403125     1.854299765701     0.797690474320     1.007825032230
         H            4.847025403125    -2.123968234299    -0.839140525680     1.007825032230
         H            5.880752203125    -0.133147634299     0.016577674320     1.007825032230

  Basis Set: AUG-CC-PVTZ
    Blend: AUG-CC-PVTZ
  Basis Set: (AUG-CC-PVTZ AUX)
    Blend: AUG-CC-PVTZ-JKFIT
	 Reference Energy          =    -613.3367291455801933 [Eh]
	 Singles Energy            =      -0.0000000000000000 [Eh]
	 Same-Spin Energy          =      -0.6725118651317402 [Eh]
	 Opposite-Spin Energy      =      -2.1160478238006526 [Eh]
	 Correlation Energy        =      -2.7885596889323927 [Eh]
	 Total Energy              =    -616.1252888345126166 [Eh]

	 ================> DF-SCS-MP2 Energies <==================
	-----------------------------------------------------------
	 SCS Same-Spin Scale       =       0.3333333333333333 [-]
	 SCS Opposite-Spin Scale   =       1.2000000000000000 [-]
	 SCS Same-Spin Energy      =      -0.2241706217105801 [Eh]
	 SCS Opposite-Spin Energy  =      -2.5392573885607832 [Eh]
	 SCS Correlation Energy    =      -2.7634280102713631 [Eh]
	 SCS Total Energy          =    -616.1001571558515479 [Eh]
	-----------------------------------------------------------

  Dipole Moment: [D]
     X:    -0.9505      Y:     0.7329      Z:     0.4736     Total:     1.2903

*** Psi4 exiting successfully. Buy a developer a beer!
