                               Psi4 1.4a3.dev225

  ==> Input File <==

--------------------------------------------------------------------------
#psi4
#
memory 32 gb

molecule  {
0 1
  O        0.8655410    -0.2383350    -0.1978900
  C       -1.3532420     0.4851090     0.1659470
  C        0.0923410     0.8600100     0.3004220
  C       -4.0760200    -0.2326370    -0.0482320
  C       -1.8292680    -0.6845410     0.7713590
  C       -2.2449120     1.2876570    -0.5496990
  C       -3.2203424    -1.0492334     0.6577834
  C       -3.5922330     0.9350480    -0.6483300
  C        2.2320470    -0.1282220    -0.1046120
  C       -5.5355430    -0.5984480    -0.1257210
  C        2.9140800     0.9938170     0.3783620
  C        2.9472190    -1.2508620    -0.5439590
  C        4.3132210     0.9773220     0.4183570
  C        4.3370840    -1.2508910    -0.4991240
  C        5.0300920    -0.1353830    -0.0155080
  H        0.3103430     1.7730630    -0.2708990
  H        0.3551050     1.0439550     1.3523320
  H       -1.1374380    -1.3254410     1.3139440
  H       -1.8855300     2.1916430    -1.0389860
  H       -3.5267120    -1.9532640     1.1308580
  H       -4.2733370     1.5694920    -1.2133600
  H       -6.0038750    -0.1617940    -1.0122750
  H       -5.6673980    -1.6833350    -0.1714030
  H       -6.0811880    -0.2353180     0.7521400
  H        2.3826970     1.8764090     0.7176150
  H        2.3879470    -2.1054110    -0.9150460
  H        4.8399070     1.8514100     0.7945710
  H        4.8825510    -2.1268580    -0.8422600
  H        6.1161710    -0.1361850     0.0199920
units angstrom
no_reorient  #important for SAPT in psi4, default
symmetry c1  #important for SAPT in psi4, default
}

set PROPERTIES_ORIGIN ["COM"]
properties('MP2/aug-cc-pvtz', properties = ['dipole'])
--------------------------------------------------------------------------

    Molecular point group: c1
  Charge       = 0
  Multiplicity = 1
  Basis Set: AUG-CC-PVTZ
    Blend: AUG-CC-PVTZ
  Basis Set: (AUG-CC-PVTZ AUX)
    Blend: AUG-CC-PVTZ-JKFIT

    Orbital Energies [Eh]
    ---------------------

    Doubly Occupied:

       1A    -20.583972     2A    -11.301049     3A    -11.293370
       4A    -11.241299     5A    -11.241011     6A    -11.240482
       7A    -11.239445     8A    -11.239199     9A    -11.238069
      10A    -11.233001    11A    -11.232932    12A    -11.232442
      13A    -11.227728    14A    -11.227306    15A    -11.224260
      16A     -1.404919    17A     -1.157572    18A     -1.143683
      19A     -1.069271    20A     -1.017906    21A     -1.011694
      22A     -1.004783    23A     -0.962555    24A     -0.900294
      25A     -0.836775    26A     -0.831655    27A     -0.808936
      28A     -0.780806    29A     -0.721246    30A     -0.683647
      31A     -0.669700    32A     -0.663700    33A     -0.643649
      34A     -0.634642    35A     -0.621661    36A     -0.609471
      37A     -0.586933    38A     -0.582425    39A     -0.576710
      40A     -0.564901    41A     -0.542502    42A     -0.530869
      43A     -0.522663    44A     -0.513558    45A     -0.493911
      46A     -0.488358    47A     -0.482320    48A     -0.476632
      49A     -0.464486    50A     -0.340039    51A     -0.332687
      52A     -0.324786    53A     -0.312336

  @DF-RHF Final Energy:  -613.36823671105981

   => Energetics <=

    Nuclear Repulsion Energy =            870.2507256420086605
    One-Electron Energy =               -2558.6174372104756003
    Two-Electron Energy =                1074.9984748574072455
    Total Energy =                       -613.3682367110598079
  Basis Set: (AUG-CC-PVTZ AUX)
    Blend: AUG-CC-PVTZ-RI
    Molecular point group: c1

    Geometry (in Angstrom), charge = 0, multiplicity = 1:

       Center              X                  Y                   Z               Mass
    ------------   -----------------  -----------------  -----------------  -----------------
         O            0.831919082728    -0.234678802534    -0.194565309343    15.994914619570
         C           -1.386863917272     0.488765197466     0.169271690657    12.000000000000
         C            0.058719082728     0.863666197466     0.303746690657    12.000000000000
         C           -4.109641917272    -0.228980802534    -0.044907309343    12.000000000000
         C           -1.862889917272    -0.680884802534     0.774683690657    12.000000000000
         C           -2.278533917272     1.291313197466    -0.546374309343    12.000000000000
         C           -3.253964317272    -1.045577202534     0.661108090657    12.000000000000
         C           -3.625854917272     0.938704197466    -0.645005309343    12.000000000000
         C            2.198425082728    -0.124565802534    -0.101287309343    12.000000000000
         C           -5.569164917272    -0.594791802534    -0.122396309343    12.000000000000
         C            2.880458082728     0.997473197466     0.381686690657    12.000000000000
         C            2.913597082728    -1.247205802534    -0.540634309343    12.000000000000
         C            4.279599082728     0.980978197466     0.421681690657    12.000000000000
         C            4.303462082728    -1.247234802534    -0.495799309343    12.000000000000
         C            4.996470082728    -0.131726802534    -0.012183309343    12.000000000000
         H            0.276721082728     1.776719197466    -0.267574309343     1.007825032230
         H            0.321483082728     1.047611197466     1.355656690657     1.007825032230
         H           -1.171059917272    -1.321784802534     1.317268690657     1.007825032230
         H           -1.919151917272     2.195299197466    -1.035661309343     1.007825032230
         H           -3.560333917272    -1.949607802534     1.134182690657     1.007825032230
         H           -4.306958917272     1.573148197466    -1.210035309343     1.007825032230
         H           -6.037496917272    -0.158137802534    -1.008950309343     1.007825032230
         H           -5.701019917272    -1.679678802534    -0.168078309343     1.007825032230
         H           -6.114809917272    -0.231661802534     0.755464690657     1.007825032230
         H            2.349075082728     1.880065197466     0.720939690657     1.007825032230
         H            2.354325082728    -2.101754802534    -0.911721309343     1.007825032230
         H            4.806285082728     1.855066197466     0.797895690657     1.007825032230
         H            4.848929082728    -2.123201802534    -0.838935309343     1.007825032230
         H            6.082549082728    -0.132528802534     0.023316690657     1.007825032230

  Basis Set: AUG-CC-PVTZ
    Blend: AUG-CC-PVTZ
  Basis Set: (AUG-CC-PVTZ AUX)
    Blend: AUG-CC-PVTZ-JKFIT
	 Reference Energy          =    -613.3682367110598079 [Eh]
	 Singles Energy            =      -0.0000000000000000 [Eh]
	 Same-Spin Energy          =      -0.6726885032722576 [Eh]
	 Opposite-Spin Energy      =      -2.1168493792824266 [Eh]
	 Correlation Energy        =      -2.7895378825546842 [Eh]
	 Total Energy              =    -616.1577745936144765 [Eh]

	 ================> DF-SCS-MP2 Energies <==================
	-----------------------------------------------------------
	 SCS Same-Spin Scale       =       0.3333333333333333 [-]
	 SCS Opposite-Spin Scale   =       1.2000000000000000 [-]
	 SCS Same-Spin Energy      =      -0.2242295010907525 [Eh]
	 SCS Opposite-Spin Energy  =      -2.5402192551389118 [Eh]
	 SCS Correlation Energy    =      -2.7644487562296645 [Eh]
	 SCS Total Energy          =    -616.1326854672894342 [Eh]
	-----------------------------------------------------------

  Dipole Moment: [D]
     X:    -0.9643      Y:     0.7261      Z:     0.4800     Total:     1.2991

*** Psi4 exiting successfully. Buy a developer a beer!
