                               Psi4 1.4a3.dev225

  ==> Input File <==

--------------------------------------------------------------------------
#psi4
#
memory 32 gb

molecule  {
0 1
  O        0.8655410    -0.2383350    -0.1978900
  C       -1.3532420     0.4851090     0.1659470
  C        0.0923410     0.8600100     0.3004220
  C       -4.0760200    -0.2326370    -0.0482320
  C       -1.8292680    -0.6845410     0.7713590
  C       -2.2449120     1.2876570    -0.5496990
  C       -3.1721270    -1.0365930     0.6617200
  C       -3.5922330     0.9350480    -0.6483300
  C        2.2320470    -0.1282220    -0.1046120
  C       -5.5355430    -0.5984480    -0.1257210
  C        2.9140800     0.9938170     0.3783620
  C        2.9472190    -1.2508620    -0.5439590
  C        4.3132210     0.9773220     0.4183570
  C        4.3370840    -1.2508910    -0.4991240
  C        5.0300920    -0.1353830    -0.0155080
  H        0.3103430     1.7730630    -0.2708990
  H        0.3551050     1.0439550     1.3523320
  H       -1.1374380    -1.3254410     1.3139440
  H       -1.8855300     2.1916430    -1.0389860
  H       -3.5267120    -1.9532640     1.1308580
  H       -4.2733370     1.5694920    -1.2133600
  H       -6.0038750    -0.1617940    -1.0122750
  H       -5.6673980    -1.6833350    -0.1714030
  H       -6.0811880    -0.2353180     0.7521400
  H        2.3826970     1.8764090     0.7176150
  H        2.3879470    -2.1054110    -0.9150460
  H        4.7914824     1.7710446     0.7599811
  H        4.8825510    -2.1268580    -0.8422600
  H        6.1161710    -0.1361850     0.0199920
units angstrom
no_reorient  #important for SAPT in psi4, default
symmetry c1  #important for SAPT in psi4, default
}

set PROPERTIES_ORIGIN ["COM"]
properties('MP2/aug-cc-pvtz', properties = ['dipole'])
--------------------------------------------------------------------------

    Molecular point group: c1
  Charge       = 0
  Multiplicity = 1
  Basis Set: AUG-CC-PVTZ
    Blend: AUG-CC-PVTZ
  Basis Set: (AUG-CC-PVTZ AUX)
    Blend: AUG-CC-PVTZ-JKFIT

    Orbital Energies [Eh]
    ---------------------

    Doubly Occupied:

       1A    -20.584663     2A    -11.301734     3A    -11.293640
       4A    -11.244060     5A    -11.239680     6A    -11.239425
       7A    -11.237793     8A    -11.235218     9A    -11.233347
      10A    -11.232462    11A    -11.232265    12A    -11.229902
      13A    -11.228490    14A    -11.227641    15A    -11.225798
      16A     -1.405524    17A     -1.159172    18A     -1.145026
      19A     -1.067487    20A     -1.021797    21A     -1.013628
      22A     -1.008779    23A     -0.964864    24A     -0.900158
      25A     -0.839261    26A     -0.832671    27A     -0.810910
      28A     -0.782684    29A     -0.726888    30A     -0.684284
      31A     -0.670924    32A     -0.664873    33A     -0.646193
      34A     -0.633720    35A     -0.621329    36A     -0.614587
      37A     -0.592517    38A     -0.583749    39A     -0.576955
      40A     -0.564354    41A     -0.543407    42A     -0.533033
      43A     -0.523225    44A     -0.515082    45A     -0.493459
      46A     -0.486825    47A     -0.485284    48A     -0.480643
      49A     -0.464494    50A     -0.340437    51A     -0.336937
      52A     -0.322334    53A     -0.312180

  @DF-RHF Final Energy:  -613.36580581241321

   => Energetics <=

    Nuclear Repulsion Energy =            871.3009238706954420
    One-Electron Energy =               -2560.6218727038035468
    Two-Electron Energy =                1075.9551430206947771
    Total Energy =                       -613.3658058124133277
  Basis Set: (AUG-CC-PVTZ AUX)
    Blend: AUG-CC-PVTZ-RI
    Molecular point group: c1

    Geometry (in Angstrom), charge = 0, multiplicity = 1:

       Center              X                  Y                   Z               Mass
    ------------   -----------------  -----------------  -----------------  -----------------
         O            0.829244830657    -0.235035637187    -0.194627794723    15.994914619570
         C           -1.389538169343     0.488408362813     0.169209205277    12.000000000000
         C            0.056044830657     0.863309362813     0.303684205277    12.000000000000
         C           -4.112316169343    -0.229337637187    -0.044969794723    12.000000000000
         C           -1.865564169343    -0.681241637187     0.774621205277    12.000000000000
         C           -2.281208169343     1.290956362813    -0.546436794723    12.000000000000
         C           -3.208423169343    -1.033293637187     0.664982205277    12.000000000000
         C           -3.628529169343     0.938347362813    -0.645067794723    12.000000000000
         C            2.195750830657    -0.124922637187    -0.101349794723    12.000000000000
         C           -5.571839169343    -0.595148637187    -0.122458794723    12.000000000000
         C            2.877783830657     0.997116362813     0.381624205277    12.000000000000
         C            2.910922830657    -1.247562637187    -0.540696794723    12.000000000000
         C            4.276924830657     0.980621362813     0.421619205277    12.000000000000
         C            4.300787830657    -1.247591637187    -0.495861794723    12.000000000000
         C            4.993795830657    -0.132083637187    -0.012245794723    12.000000000000
         H            0.274046830657     1.776362362813    -0.267636794723     1.007825032230
         H            0.318808830657     1.047254362813     1.355594205277     1.007825032230
         H           -1.173734169343    -1.322141637187     1.317206205277     1.007825032230
         H           -1.921826169343     2.194942362813    -1.035723794723     1.007825032230
         H           -3.563008169343    -1.949964637187     1.134120205277     1.007825032230
         H           -4.309633169343     1.572791362813    -1.210097794723     1.007825032230
         H           -6.040171169343    -0.158494637187    -1.009012794723     1.007825032230
         H           -5.703694169343    -1.680035637187    -0.168140794723     1.007825032230
         H           -6.117484169343    -0.232018637187     0.755402205277     1.007825032230
         H            2.346400830657     1.879708362813     0.720877205277     1.007825032230
         H            2.351650830657    -2.102111637187    -0.911783794723     1.007825032230
         H            4.755186230657     1.774343962813     0.763243305277     1.007825032230
         H            4.846254830657    -2.123558637187    -0.838997794723     1.007825032230
         H            6.079874830657    -0.132885637187     0.023254205277     1.007825032230

  Basis Set: AUG-CC-PVTZ
    Blend: AUG-CC-PVTZ
  Basis Set: (AUG-CC-PVTZ AUX)
    Blend: AUG-CC-PVTZ-JKFIT
	 Reference Energy          =    -613.3658058124132140 [Eh]
	 Singles Energy            =      -0.0000000000000000 [Eh]
	 Same-Spin Energy          =      -0.6726522743833750 [Eh]
	 Opposite-Spin Energy      =      -2.1161619756587986 [Eh]
	 Correlation Energy        =      -2.7888142500421735 [Eh]
	 Total Energy              =    -616.1546200624553649 [Eh]

	 ================> DF-SCS-MP2 Energies <==================
	-----------------------------------------------------------
	 SCS Same-Spin Scale       =       0.3333333333333333 [-]
	 SCS Opposite-Spin Scale   =       1.2000000000000000 [-]
	 SCS Same-Spin Energy      =      -0.2242174247944583 [Eh]
	 SCS Opposite-Spin Energy  =      -2.5393943707905584 [Eh]
	 SCS Correlation Energy    =      -2.7636117955850166 [Eh]
	 SCS Total Energy          =    -616.1294176079982208 [Eh]
	-----------------------------------------------------------

  Dipole Moment: [D]
     X:    -2.1839      Y:     0.7057      Z:     0.5105     Total:     2.3512

*** Psi4 exiting successfully. Buy a developer a beer!
