                               Psi4 1.4a3.dev225

  ==> Input File <==

--------------------------------------------------------------------------
#psi4
#
memory 32 gb

molecule  {
0 1
  O        0.8655410    -0.2383350    -0.1978900
  C       -1.3532420     0.4851090     0.1659470
  C        0.0923410     0.8600100     0.3004220
  C       -4.0760200    -0.2326370    -0.0482320
  C       -1.8292680    -0.6845410     0.7713590
  C       -2.2449120     1.2876570    -0.5496990
  C       -3.1721270    -1.0365930     0.6617200
  C       -3.5922330     0.9350480    -0.6483300
  C        2.2320470    -0.1282220    -0.1046120
  C       -5.5355430    -0.5984480    -0.1257210
  C        2.9140800     0.9938170     0.3783620
  C        2.9472190    -1.2508620    -0.5439590
  C        4.3132210     0.9773220     0.4183570
  C        4.3370840    -1.2508910    -0.4991240
  C        5.0197990    -0.1194065    -0.0092785
  H        0.3103430     1.7730630    -0.2708990
  H        0.3551050     1.0439550     1.3523320
  H       -1.1374380    -1.3254410     1.3139440
  H       -1.8855300     2.1916430    -1.0389860
  H       -3.5267120    -1.9532640     1.1308580
  H       -4.2733370     1.5694920    -1.2133600
  H       -6.0038750    -0.1617940    -1.0122750
  H       -5.6673980    -1.6833350    -0.1714030
  H       -6.0811880    -0.2353180     0.7521400
  H        2.3826970     1.8764090     0.7176150
  H        2.3879470    -2.1054110    -0.9150460
  H        4.8399070     1.8514100     0.7945710
  H        4.8825510    -2.1268580    -0.8422600
  H        6.1161710    -0.1361850     0.0199920
units angstrom
no_reorient  #important for SAPT in psi4, default
symmetry c1  #important for SAPT in psi4, default
}

set PROPERTIES_ORIGIN ["COM"]
properties('MP2/aug-cc-pvtz', properties = ['dipole'])
--------------------------------------------------------------------------

    Molecular point group: c1
  Charge       = 0
  Multiplicity = 1
  Basis Set: AUG-CC-PVTZ
    Blend: AUG-CC-PVTZ
  Basis Set: (AUG-CC-PVTZ AUX)
    Blend: AUG-CC-PVTZ-JKFIT

    Orbital Energies [Eh]
    ---------------------

    Doubly Occupied:

       1A    -20.583841     2A    -11.300834     3A    -11.293056
       4A    -11.243798     5A    -11.240497     6A    -11.239050
       7A    -11.238370     8A    -11.237498     9A    -11.234915
      10A    -11.232393    11A    -11.232224    12A    -11.232064
      13A    -11.228147    14A    -11.226958    15A    -11.225843
      16A     -1.404770    17A     -1.158889    18A     -1.144707
      19A     -1.067110    20A     -1.018931    21A     -1.013293
      22A     -1.007483    23A     -0.964362    24A     -0.899734
      25A     -0.832667    26A     -0.831623    27A     -0.808471
      28A     -0.782495    29A     -0.721312    30A     -0.684024
      31A     -0.670310    32A     -0.662007    33A     -0.644025
      34A     -0.631081    35A     -0.620476    36A     -0.609889
      37A     -0.587743    38A     -0.583514    39A     -0.576955
      40A     -0.564145    41A     -0.543330    42A     -0.530783
      43A     -0.523273    44A     -0.512259    45A     -0.491383
      46A     -0.486637    47A     -0.485234    48A     -0.478954
      49A     -0.464745    50A     -0.339762    51A     -0.336724
      52A     -0.322174    53A     -0.313277

  @DF-RHF Final Energy:  -613.37123538657420

   => Energetics <=

    Nuclear Repulsion Energy =            870.9619378369278593
    One-Electron Energy =               -2560.0502703035613195
    Two-Electron Energy =                1075.7170970800591476
    Total Energy =                       -613.3712353865741989
  Basis Set: (AUG-CC-PVTZ AUX)
    Blend: AUG-CC-PVTZ-RI
    Molecular point group: c1

    Geometry (in Angstrom), charge = 0, multiplicity = 1:

       Center              X                  Y                   Z               Mass
    ------------   -----------------  -----------------  -----------------  -----------------
         O            0.829621967416    -0.236412245543    -0.195181111717    15.994914619570
         C           -1.389161032584     0.487031754457     0.168655888283    12.000000000000
         C            0.056421967416     0.861932754457     0.303130888283    12.000000000000
         C           -4.111939032584    -0.230714245543    -0.045523111717    12.000000000000
         C           -1.865187032584    -0.682618245543     0.774067888283    12.000000000000
         C           -2.280831032584     1.289579754457    -0.546990111717    12.000000000000
         C           -3.208046032584    -1.034670245543     0.664428888283    12.000000000000
         C           -3.628152032584     0.936970754457    -0.645621111717    12.000000000000
         C            2.196127967416    -0.126299245543    -0.101903111717    12.000000000000
         C           -5.571462032584    -0.596525245543    -0.123012111717    12.000000000000
         C            2.878160967416     0.995739754457     0.381070888283    12.000000000000
         C            2.911299967416    -1.248939245543    -0.541250111717    12.000000000000
         C            4.277301967416     0.979244754457     0.421065888283    12.000000000000
         C            4.301164967416    -1.248968245543    -0.496415111717    12.000000000000
         C            4.983879967416    -0.117483745543    -0.006569611717    12.000000000000
         H            0.274423967416     1.774985754457    -0.268190111717     1.007825032230
         H            0.319185967416     1.045877754457     1.355040888283     1.007825032230
         H           -1.173357032584    -1.323518245543     1.316652888283     1.007825032230
         H           -1.921449032584     2.193565754457    -1.036277111717     1.007825032230
         H           -3.562631032584    -1.951341245543     1.133566888283     1.007825032230
         H           -4.309256032584     1.571414754457    -1.210651111717     1.007825032230
         H           -6.039794032584    -0.159871245543    -1.009566111717     1.007825032230
         H           -5.703317032584    -1.681412245543    -0.168694111717     1.007825032230
         H           -6.117107032584    -0.233395245543     0.754848888283     1.007825032230
         H            2.346777967416     1.878331754457     0.720323888283     1.007825032230
         H            2.352027967416    -2.103488245543    -0.912337111717     1.007825032230
         H            4.803987967416     1.853332754457     0.797279888283     1.007825032230
         H            4.846631967416    -2.124935245543    -0.839551111717     1.007825032230
         H            6.080251967416    -0.134262245543     0.022700888283     1.007825032230

  Basis Set: AUG-CC-PVTZ
    Blend: AUG-CC-PVTZ
  Basis Set: (AUG-CC-PVTZ AUX)
    Blend: AUG-CC-PVTZ-JKFIT
	 Reference Energy          =    -613.3712353865741989 [Eh]
	 Singles Energy            =      -0.0000000000000000 [Eh]
	 Same-Spin Energy          =      -0.6726122807744305 [Eh]
	 Opposite-Spin Energy      =      -2.1164761360303470 [Eh]
	 Correlation Energy        =      -2.7890884168047774 [Eh]
	 Total Energy              =    -616.1603238033790149 [Eh]

	 ================> DF-SCS-MP2 Energies <==================
	-----------------------------------------------------------
	 SCS Same-Spin Scale       =       0.3333333333333333 [-]
	 SCS Opposite-Spin Scale   =       1.2000000000000000 [-]
	 SCS Same-Spin Energy      =      -0.2242040935914768 [Eh]
	 SCS Opposite-Spin Energy  =      -2.5397713632364165 [Eh]
	 SCS Correlation Energy    =      -2.7639754568278931 [Eh]
	 SCS Total Energy          =    -616.1352108434020920 [Eh]
	-----------------------------------------------------------

  Dipole Moment: [D]
     X:    -1.0003      Y:     0.7192      Z:     0.4661     Total:     1.3173

*** Psi4 exiting successfully. Buy a developer a beer!
