                               Psi4 1.4a3.dev225

  ==> Input File <==

--------------------------------------------------------------------------
#psi4
#
memory 32 gb

molecule  {
0 1
  O        0.8655410    -0.2383350    -0.1978900
  C       -1.3532420     0.4851090     0.1659470
  C        0.1058408     0.7730349     0.3570506
  C       -4.0760200    -0.2326370    -0.0482320
  C       -1.8292680    -0.6845410     0.7713590
  C       -2.2449120     1.2876570    -0.5496990
  C       -3.1721270    -1.0365930     0.6617200
  C       -3.5922330     0.9350480    -0.6483300
  C        2.2320470    -0.1282220    -0.1046120
  C       -5.5355430    -0.5984480    -0.1257210
  C        2.9140800     0.9938170     0.3783620
  C        2.9472190    -1.2508620    -0.5439590
  C        4.3132210     0.9773220     0.4183570
  C        4.3370840    -1.2508910    -0.4991240
  C        5.0300920    -0.1353830    -0.0155080
  H        0.3103430     1.7730630    -0.2708990
  H        0.3551050     1.0439550     1.3523320
  H       -1.1374380    -1.3254410     1.3139440
  H       -1.8855300     2.1916430    -1.0389860
  H       -3.5267120    -1.9532640     1.1308580
  H       -4.2733370     1.5694920    -1.2133600
  H       -6.0038750    -0.1617940    -1.0122750
  H       -5.6673980    -1.6833350    -0.1714030
  H       -6.0811880    -0.2353180     0.7521400
  H        2.3826970     1.8764090     0.7176150
  H        2.3879470    -2.1054110    -0.9150460
  H        4.8399070     1.8514100     0.7945710
  H        4.8825510    -2.1268580    -0.8422600
  H        6.1161710    -0.1361850     0.0199920
units angstrom
no_reorient  #important for SAPT in psi4, default
symmetry c1  #important for SAPT in psi4, default
}

set PROPERTIES_ORIGIN ["COM"]
properties('MP2/aug-cc-pvtz', properties = ['dipole'])
--------------------------------------------------------------------------

    Molecular point group: c1
  Charge       = 0
  Multiplicity = 1
  Basis Set: AUG-CC-PVTZ
    Blend: AUG-CC-PVTZ
  Basis Set: (AUG-CC-PVTZ AUX)
    Blend: AUG-CC-PVTZ-JKFIT

    Orbital Energies [Eh]
    ---------------------

    Doubly Occupied:

       1A    -20.588498     2A    -11.303698     3A    -11.294771
       4A    -11.243411     5A    -11.242225     6A    -11.240864
       7A    -11.238640     8A    -11.237270     9A    -11.235014
      10A    -11.233143    11A    -11.232078    12A    -11.230826
      13A    -11.230245    14A    -11.229416    15A    -11.225514
      16A     -1.422711    17A     -1.158661    18A     -1.146075
      19A     -1.066527    20A     -1.019710    21A     -1.013989
      22A     -1.010582    23A     -0.962513    24A     -0.899067
      25A     -0.834948    26A     -0.829890    27A     -0.812894
      28A     -0.781661    29A     -0.729024    30A     -0.687874
      31A     -0.671647    32A     -0.667118    33A     -0.645553
      34A     -0.632153    35A     -0.618831    36A     -0.611778
      37A     -0.588628    38A     -0.582899    39A     -0.576681
      40A     -0.570018    41A     -0.542426    42A     -0.536035
      43A     -0.517127    44A     -0.509974    45A     -0.492708
      46A     -0.487518    47A     -0.485530    48A     -0.477904
      49A     -0.450298    50A     -0.341292    51A     -0.336048
      52A     -0.322404    53A     -0.314996

  @DF-RHF Final Energy:  -613.36145555126302

   => Energetics <=

    Nuclear Repulsion Energy =            871.5965651665632095
    One-Electron Energy =               -2561.1934322685901861
    Two-Electron Energy =                1076.2354115507637289
    Total Energy =                       -613.3614555512631341
  Basis Set: (AUG-CC-PVTZ AUX)
    Blend: AUG-CC-PVTZ-RI
    Molecular point group: c1

    Geometry (in Angstrom), charge = 0, multiplicity = 1:

       Center              X                  Y                   Z               Mass
    ------------   -----------------  -----------------  -----------------  -----------------
         O            0.828180739931    -0.230176044861    -0.198233991923    15.994914619570
         C           -1.390602260069     0.493267955139     0.165603008077    12.000000000000
         C            0.068480539931     0.781193855139     0.356706608077    12.000000000000
         C           -4.113380260069    -0.224478044861    -0.048575991923    12.000000000000
         C           -1.866628260069    -0.676382044861     0.771015008077    12.000000000000
         C           -2.282272260069     1.295815955139    -0.550042991923    12.000000000000
         C           -3.209487260069    -1.028434044861     0.661376008077    12.000000000000
         C           -3.629593260069     0.943206955139    -0.648673991923    12.000000000000
         C            2.194686739931    -0.120063044861    -0.104955991923    12.000000000000
         C           -5.572903260069    -0.590289044861    -0.126064991923    12.000000000000
         C            2.876719739931     1.001975955139     0.378018008077    12.000000000000
         C            2.909858739931    -1.242703044861    -0.544302991923    12.000000000000
         C            4.275860739931     0.985480955139     0.418013008077    12.000000000000
         C            4.299723739931    -1.242732044861    -0.499467991923    12.000000000000
         C            4.992731739931    -0.127224044861    -0.015851991923    12.000000000000
         H            0.272982739931     1.781221955139    -0.271242991923     1.007825032230
         H            0.317744739931     1.052113955139     1.351988008077     1.007825032230
         H           -1.174798260069    -1.317282044861     1.313600008077     1.007825032230
         H           -1.922890260069     2.199801955139    -1.039329991923     1.007825032230
         H           -3.564072260069    -1.945105044861     1.130514008077     1.007825032230
         H           -4.310697260069     1.577650955139    -1.213703991923     1.007825032230
         H           -6.041235260069    -0.153635044861    -1.012618991923     1.007825032230
         H           -5.704758260069    -1.675176044861    -0.171746991923     1.007825032230
         H           -6.118548260069    -0.227159044861     0.751796008077     1.007825032230
         H            2.345336739931     1.884567955139     0.717271008077     1.007825032230
         H            2.350586739931    -2.097252044861    -0.915389991923     1.007825032230
         H            4.802546739931     1.859568955139     0.794227008077     1.007825032230
         H            4.845190739931    -2.118699044861    -0.842603991923     1.007825032230
         H            6.078810739931    -0.128026044861     0.019648008077     1.007825032230

  Basis Set: AUG-CC-PVTZ
    Blend: AUG-CC-PVTZ
  Basis Set: (AUG-CC-PVTZ AUX)
    Blend: AUG-CC-PVTZ-JKFIT
	 Reference Energy          =    -613.3614555512630204 [Eh]
	 Singles Energy            =      -0.0000000000000000 [Eh]
	 Same-Spin Energy          =      -0.6729056443043977 [Eh]
	 Opposite-Spin Energy      =      -2.1165135967632009 [Eh]
	 Correlation Energy        =      -2.7894192410675984 [Eh]
	 Total Energy              =    -616.1508747923305691 [Eh]

	 ================> DF-SCS-MP2 Energies <==================
	-----------------------------------------------------------
	 SCS Same-Spin Scale       =       0.3333333333333333 [-]
	 SCS Opposite-Spin Scale   =       1.2000000000000000 [-]
	 SCS Same-Spin Energy      =      -0.2243018814347992 [Eh]
	 SCS Opposite-Spin Energy  =      -2.5398163161158411 [Eh]
	 SCS Correlation Energy    =      -2.7641181975506401 [Eh]
	 SCS Total Energy          =    -616.1255737488136219 [Eh]
	-----------------------------------------------------------

  Dipole Moment: [D]
     X:    -0.7948      Y:     0.5170      Z:     0.5336     Total:     1.0880

*** Psi4 exiting successfully. Buy a developer a beer!
