                               Psi4 1.4a3.dev225

  ==> Input File <==

--------------------------------------------------------------------------
#psi4
#
memory 32 gb

molecule  {
0 1
  O        0.8655410    -0.2383350    -0.1978900
  C       -1.3532420     0.4851090     0.1659470
  C        0.0923410     0.8600100     0.3004220
  C       -4.0739908    -0.2464047    -0.0259204
  C       -1.8292680    -0.6845410     0.7713590
  C       -2.2449120     1.2876570    -0.5496990
  C       -3.1721270    -1.0365930     0.6617200
  C       -3.5922330     0.9350480    -0.6483300
  C        2.2320470    -0.1282220    -0.1046120
  C       -5.5355430    -0.5984480    -0.1257210
  C        2.9140800     0.9938170     0.3783620
  C        2.9472190    -1.2508620    -0.5439590
  C        4.3132210     0.9773220     0.4183570
  C        4.3370840    -1.2508910    -0.4991240
  C        5.0300920    -0.1353830    -0.0155080
  H        0.3103430     1.7730630    -0.2708990
  H        0.3551050     1.0439550     1.3523320
  H       -1.1374380    -1.3254410     1.3139440
  H       -1.8855300     2.1916430    -1.0389860
  H       -3.5267120    -1.9532640     1.1308580
  H       -4.2733370     1.5694920    -1.2133600
  H       -6.0038750    -0.1617940    -1.0122750
  H       -5.6673980    -1.6833350    -0.1714030
  H       -6.0811880    -0.2353180     0.7521400
  H        2.3826970     1.8764090     0.7176150
  H        2.3879470    -2.1054110    -0.9150460
  H        4.8399070     1.8514100     0.7945710
  H        4.8825510    -2.1268580    -0.8422600
  H        6.1161710    -0.1361850     0.0199920
units angstrom
no_reorient  #important for SAPT in psi4, default
symmetry c1  #important for SAPT in psi4, default
}

set PROPERTIES_ORIGIN ["COM"]
properties('MP2/aug-cc-pvtz', properties = ['dipole'])
--------------------------------------------------------------------------

    Molecular point group: c1
  Charge       = 0
  Multiplicity = 1
  Basis Set: AUG-CC-PVTZ
    Blend: AUG-CC-PVTZ
  Basis Set: (AUG-CC-PVTZ AUX)
    Blend: AUG-CC-PVTZ-JKFIT

    Orbital Energies [Eh]
    ---------------------

    Doubly Occupied:

       1A    -20.583849     2A    -11.300973     3A    -11.293125
       4A    -11.243854     5A    -11.240937     6A    -11.239374
       7A    -11.238953     8A    -11.237460     9A    -11.235020
      10A    -11.234302    11A    -11.232916    12A    -11.229923
      13A    -11.227653    14A    -11.227234    15A    -11.225903
      16A     -1.404801    17A     -1.158862    18A     -1.143712
      19A     -1.067141    20A     -1.017749    21A     -1.013534
      22A     -1.008051    23A     -0.964017    24A     -0.899656
      25A     -0.832932    26A     -0.831681    27A     -0.808355
      28A     -0.782579    29A     -0.721133    30A     -0.683941
      31A     -0.670459    32A     -0.663653    33A     -0.643721
      34A     -0.631041    35A     -0.620372    36A     -0.609418
      37A     -0.586758    38A     -0.583671    39A     -0.577072
      40A     -0.564074    41A     -0.543450    42A     -0.531943
      43A     -0.522261    44A     -0.514405    45A     -0.490914
      46A     -0.488544    47A     -0.484266    48A     -0.477575
      49A     -0.464238    50A     -0.339973    51A     -0.337620
      52A     -0.321234    53A     -0.312260

  @DF-RHF Final Energy:  -613.37081513285466

   => Energetics <=

    Nuclear Repulsion Energy =            870.7551962145903417
    One-Electron Energy =               -2559.6349306819370213
    Two-Electron Energy =                1075.5089193344920204
    Total Energy =                       -613.3708151328546592
  Basis Set: (AUG-CC-PVTZ AUX)
    Blend: AUG-CC-PVTZ-RI
    Molecular point group: c1

    Geometry (in Angstrom), charge = 0, multiplicity = 1:

       Center              X                  Y                   Z               Mass
    ------------   -----------------  -----------------  -----------------  -----------------
         O            0.828875561221    -0.234610517349    -0.196155270477    15.994914619570
         C           -1.389907438779     0.488833482651     0.167681729523    12.000000000000
         C            0.055675561221     0.863734482651     0.302156729523    12.000000000000
         C           -4.110656238779    -0.242680217349    -0.024185670477    12.000000000000
         C           -1.865933438779    -0.680816517349     0.773093729523    12.000000000000
         C           -2.281577438779     1.291381482651    -0.547964270477    12.000000000000
         C           -3.208792438779    -1.032868517349     0.663454729523    12.000000000000
         C           -3.628898438779     0.938772482651    -0.646595270477    12.000000000000
         C            2.195381561221    -0.124497517349    -0.102877270477    12.000000000000
         C           -5.572208438779    -0.594723517349    -0.123986270477    12.000000000000
         C            2.877414561221     0.997541482651     0.380096729523    12.000000000000
         C            2.910553561221    -1.247137517349    -0.542224270477    12.000000000000
         C            4.276555561221     0.981046482651     0.420091729523    12.000000000000
         C            4.300418561221    -1.247166517349    -0.497389270477    12.000000000000
         C            4.993426561221    -0.131658517349    -0.013773270477    12.000000000000
         H            0.273677561221     1.776787482651    -0.269164270477     1.007825032230
         H            0.318439561221     1.047679482651     1.354066729523     1.007825032230
         H           -1.174103438779    -1.321716517349     1.315678729523     1.007825032230
         H           -1.922195438779     2.195367482651    -1.037251270477     1.007825032230
         H           -3.563377438779    -1.949539517349     1.132592729523     1.007825032230
         H           -4.310002438779     1.573216482651    -1.211625270477     1.007825032230
         H           -6.040540438779    -0.158069517349    -1.010540270477     1.007825032230
         H           -5.704063438779    -1.679610517349    -0.169668270477     1.007825032230
         H           -6.117853438779    -0.231593517349     0.753874729523     1.007825032230
         H            2.346031561221     1.880133482651     0.719349729523     1.007825032230
         H            2.351281561221    -2.101686517349    -0.913311270477     1.007825032230
         H            4.803241561221     1.855134482651     0.796305729523     1.007825032230
         H            4.845885561221    -2.123133517349    -0.840525270477     1.007825032230
         H            6.079505561221    -0.132460517349     0.021726729523     1.007825032230

  Basis Set: AUG-CC-PVTZ
    Blend: AUG-CC-PVTZ
  Basis Set: (AUG-CC-PVTZ AUX)
    Blend: AUG-CC-PVTZ-JKFIT
	 Reference Energy          =    -613.3708151328546592 [Eh]
	 Singles Energy            =      -0.0000000000000000 [Eh]
	 Same-Spin Energy          =      -0.6726983033392780 [Eh]
	 Opposite-Spin Energy      =      -2.1165875656649975 [Eh]
	 Correlation Energy        =      -2.7892858690042757 [Eh]
	 Total Energy              =    -616.1601010018589477 [Eh]

	 ================> DF-SCS-MP2 Energies <==================
	-----------------------------------------------------------
	 SCS Same-Spin Scale       =       0.3333333333333333 [-]
	 SCS Opposite-Spin Scale   =       1.2000000000000000 [-]
	 SCS Same-Spin Energy      =      -0.2242327677797593 [Eh]
	 SCS Opposite-Spin Energy  =      -2.5399050787979971 [Eh]
	 SCS Correlation Energy    =      -2.7641378465777566 [Eh]
	 SCS Total Energy          =    -616.1349529794324553 [Eh]
	-----------------------------------------------------------

  Dipole Moment: [D]
     X:    -1.0078      Y:     0.7350      Z:     0.4630     Total:     1.3306

*** Psi4 exiting successfully. Buy a developer a beer!
