                               Psi4 1.4a3.dev225

  ==> Input File <==

--------------------------------------------------------------------------
#psi4
#
memory 32 gb

molecule  {
0 1
  O        0.8655410    -0.2383350    -0.1978900
  C       -1.3532420     0.4851090     0.1659470
  C        0.0923410     0.8600100     0.3004220
  C       -3.9629430    -0.1430867    -0.0756104
  C       -1.8292680    -0.6845410     0.7713590
  C       -2.2449120     1.2876570    -0.5496990
  C       -3.1721270    -1.0365930     0.6617200
  C       -3.5922330     0.9350480    -0.6483300
  C        2.2320470    -0.1282220    -0.1046120
  C       -5.5355430    -0.5984480    -0.1257210
  C        2.9140800     0.9938170     0.3783620
  C        2.9472190    -1.2508620    -0.5439590
  C        4.3132210     0.9773220     0.4183570
  C        4.3370840    -1.2508910    -0.4991240
  C        5.0300920    -0.1353830    -0.0155080
  H        0.3103430     1.7730630    -0.2708990
  H        0.3551050     1.0439550     1.3523320
  H       -1.1374380    -1.3254410     1.3139440
  H       -1.8855300     2.1916430    -1.0389860
  H       -3.5267120    -1.9532640     1.1308580
  H       -4.2733370     1.5694920    -1.2133600
  H       -6.0038750    -0.1617940    -1.0122750
  H       -5.6673980    -1.6833350    -0.1714030
  H       -6.0811880    -0.2353180     0.7521400
  H        2.3826970     1.8764090     0.7176150
  H        2.3879470    -2.1054110    -0.9150460
  H        4.8399070     1.8514100     0.7945710
  H        4.8825510    -2.1268580    -0.8422600
  H        6.1161710    -0.1361850     0.0199920
units angstrom
no_reorient  #important for SAPT in psi4, default
symmetry c1  #important for SAPT in psi4, default
}

set PROPERTIES_ORIGIN ["COM"]
properties('MP2/aug-cc-pvtz', properties = ['dipole'])
--------------------------------------------------------------------------

    Molecular point group: c1
  Charge       = 0
  Multiplicity = 1
  Basis Set: AUG-CC-PVTZ
    Blend: AUG-CC-PVTZ
  Basis Set: (AUG-CC-PVTZ AUX)
    Blend: AUG-CC-PVTZ-JKFIT

    Orbital Energies [Eh]
    ---------------------

    Doubly Occupied:

       1A    -20.584114     2A    -11.301273     3A    -11.293512
       4A    -11.241165     5A    -11.239601     6A    -11.239342
       7A    -11.238109     8A    -11.235650     9A    -11.235275
      10A    -11.233383    11A    -11.233162    12A    -11.227902
      13A    -11.227456    14A    -11.226254    15A    -11.218084
      16A     -1.405131    17A     -1.171005    18A     -1.144980
      19A     -1.065702    20A     -1.021031    21A     -1.017014
      22A     -1.005035    23A     -0.953817    24A     -0.899899
      25A     -0.841611    26A     -0.830755    27A     -0.810575
      28A     -0.783832    29A     -0.721485    30A     -0.687015
      31A     -0.671270    32A     -0.663897    33A     -0.641465
      34A     -0.630583    35A     -0.623068    36A     -0.611030
      37A     -0.594271    38A     -0.586931    39A     -0.566867
      40A     -0.559466    41A     -0.539084    42A     -0.526117
      43A     -0.525430    44A     -0.512019    45A     -0.502887
      46A     -0.495704    47A     -0.482572    48A     -0.466396
      49A     -0.449499    50A     -0.345739    51A     -0.340031
      52A     -0.328682    53A     -0.312576

  @DF-RHF Final Energy:  -613.34701303506733

   => Energetics <=

    Nuclear Repulsion Energy =            872.5127523265790614
    One-Electron Energy =               -2563.1020319588819802
    Two-Electron Energy =                1077.2422665972355844
    Total Energy =                       -613.3470130350672207
  Basis Set: (AUG-CC-PVTZ AUX)
    Blend: AUG-CC-PVTZ-RI
    Molecular point group: c1

    Geometry (in Angstrom), charge = 0, multiplicity = 1:

       Center              X                  Y                   Z               Mass
    ------------   -----------------  -----------------  -----------------  -----------------
         O            0.822148940498    -0.240868912381    -0.193145343367    15.994914619570
         C           -1.396634059502     0.482575087619     0.170691656633    12.000000000000
         C            0.048948940498     0.857476087619     0.305166656633    12.000000000000
         C           -4.006335059502    -0.145620612381    -0.070865743367    12.000000000000
         C           -1.872660059502    -0.687074912381     0.776103656633    12.000000000000
         C           -2.288304059502     1.285123087619    -0.544954343367    12.000000000000
         C           -3.215519059502    -1.039126912381     0.666464656633    12.000000000000
         C           -3.635625059502     0.932514087619    -0.643585343367    12.000000000000
         C            2.188654940498    -0.130755912381    -0.099867343367    12.000000000000
         C           -5.578935059502    -0.600981912381    -0.120976343367    12.000000000000
         C            2.870687940498     0.991283087619     0.383106656633    12.000000000000
         C            2.903826940498    -1.253395912381    -0.539214343367    12.000000000000
         C            4.269828940498     0.974788087619     0.423101656633    12.000000000000
         C            4.293691940498    -1.253424912381    -0.494379343367    12.000000000000
         C            4.986699940498    -0.137916912381    -0.010763343367    12.000000000000
         H            0.266950940498     1.770529087619    -0.266154343367     1.007825032230
         H            0.311712940498     1.041421087619     1.357076656633     1.007825032230
         H           -1.180830059502    -1.327974912381     1.318688656633     1.007825032230
         H           -1.928922059502     2.189109087619    -1.034241343367     1.007825032230
         H           -3.570104059502    -1.955797912381     1.135602656633     1.007825032230
         H           -4.316729059502     1.566958087619    -1.208615343367     1.007825032230
         H           -6.047267059502    -0.164327912381    -1.007530343367     1.007825032230
         H           -5.710790059502    -1.685868912381    -0.166658343367     1.007825032230
         H           -6.124580059502    -0.237851912381     0.756884656633     1.007825032230
         H            2.339304940498     1.873875087619     0.722359656633     1.007825032230
         H            2.344554940498    -2.107944912381    -0.910301343367     1.007825032230
         H            4.796514940498     1.848876087619     0.799315656633     1.007825032230
         H            4.839158940498    -2.129391912381    -0.837515343367     1.007825032230
         H            6.072778940498    -0.138718912381     0.024736656633     1.007825032230

  Basis Set: AUG-CC-PVTZ
    Blend: AUG-CC-PVTZ
  Basis Set: (AUG-CC-PVTZ AUX)
    Blend: AUG-CC-PVTZ-JKFIT
	 Reference Energy          =    -613.3470130350673344 [Eh]
	 Singles Energy            =      -0.0000000000000000 [Eh]
	 Same-Spin Energy          =      -0.6719455557481059 [Eh]
	 Opposite-Spin Energy      =      -2.1163093339241588 [Eh]
	 Correlation Energy        =      -2.7882548896722645 [Eh]
	 Total Energy              =    -616.1352679247396509 [Eh]

	 ================> DF-SCS-MP2 Energies <==================
	-----------------------------------------------------------
	 SCS Same-Spin Scale       =       0.3333333333333333 [-]
	 SCS Opposite-Spin Scale   =       1.2000000000000000 [-]
	 SCS Same-Spin Energy      =      -0.2239818519160353 [Eh]
	 SCS Opposite-Spin Energy  =      -2.5395712007089903 [Eh]
	 SCS Correlation Energy    =      -2.7635530526250256 [Eh]
	 SCS Total Energy          =    -616.1105660876924048 [Eh]
	-----------------------------------------------------------

  Dipole Moment: [D]
     X:    -0.7815      Y:     0.7629      Z:     0.4871     Total:     1.1959

*** Psi4 exiting successfully. Buy a developer a beer!
