                               Psi4 1.4a3.dev225

  ==> Input File <==

--------------------------------------------------------------------------
#psi4
#
memory 32 gb

molecule  {
0 1
  O        0.8655410    -0.2383350    -0.1978900
  C       -1.3532420     0.4851090     0.1659470
  C        0.0923410     0.8600100     0.3004220
  C       -4.0760200    -0.2326370    -0.0482320
  C       -1.8292680    -0.6845410     0.7713590
  C       -2.2449120     1.2876570    -0.5496990
  C       -3.1721270    -1.0365930     0.6617200
  C       -3.5922330     0.9350480    -0.6483300
  C        2.2320470    -0.1282220    -0.1046120
  C       -5.5355430    -0.5984480    -0.1257210
  C        2.8165821     0.8334195     0.3093200
  C        2.9472190    -1.2508620    -0.5439590
  C        4.3132210     0.9773220     0.4183570
  C        4.3370840    -1.2508910    -0.4991240
  C        5.0300920    -0.1353830    -0.0155080
  H        0.3103430     1.7730630    -0.2708990
  H        0.3551050     1.0439550     1.3523320
  H       -1.1374380    -1.3254410     1.3139440
  H       -1.8855300     2.1916430    -1.0389860
  H       -3.5267120    -1.9532640     1.1308580
  H       -4.2733370     1.5694920    -1.2133600
  H       -6.0038750    -0.1617940    -1.0122750
  H       -5.6673980    -1.6833350    -0.1714030
  H       -6.0811880    -0.2353180     0.7521400
  H        2.3826970     1.8764090     0.7176150
  H        2.3879470    -2.1054110    -0.9150460
  H        4.8399070     1.8514100     0.7945710
  H        4.8825510    -2.1268580    -0.8422600
  H        6.1161710    -0.1361850     0.0199920
units angstrom
no_reorient  #important for SAPT in psi4, default
symmetry c1  #important for SAPT in psi4, default
}

set PROPERTIES_ORIGIN ["COM"]
properties('MP2/aug-cc-pvtz', properties = ['dipole'])
--------------------------------------------------------------------------

    Molecular point group: c1
  Charge       = 0
  Multiplicity = 1
  Basis Set: AUG-CC-PVTZ
    Blend: AUG-CC-PVTZ
  Basis Set: (AUG-CC-PVTZ AUX)
    Blend: AUG-CC-PVTZ-JKFIT

    Orbital Energies [Eh]
    ---------------------

    Doubly Occupied:

       1A    -20.575439     2A    -11.288446     3A    -11.270078
       4A    -11.250942     5A    -11.241974     6A    -11.238588
       7A    -11.236803     8A    -11.235352     9A    -11.233153
      10A    -11.232834    11A    -11.232278    12A    -11.230550
      13A    -11.230344    14A    -11.224761    15A    -11.224567
      16A     -1.401808    17A     -1.164121    18A     -1.151461
      19A     -1.065539    20A     -1.033891    21A     -1.011116
      22A     -1.004644    23A     -0.965707    24A     -0.897966
      25A     -0.847387    26A     -0.830091    27A     -0.797944
      28A     -0.777365    29A     -0.723695    30A     -0.679978
      31A     -0.668849    32A     -0.662832    33A     -0.646806
      34A     -0.631775    35A     -0.620196    36A     -0.612062
      37A     -0.581713    38A     -0.577180    39A     -0.574622
      40A     -0.554101    41A     -0.545497    42A     -0.533037
      43A     -0.526589    44A     -0.506572    45A     -0.487313
      46A     -0.485400    47A     -0.480891    48A     -0.466818
      49A     -0.460098    50A     -0.351216    51A     -0.334838
      52A     -0.321669    53A     -0.318670

  @DF-RHF Final Energy:  -613.31037090381164

   => Energetics <=

    Nuclear Repulsion Energy =            874.1742305184180850
    One-Electron Energy =               -2566.4740677534173301
    Two-Electron Energy =                1078.9894663311877139
    Total Energy =                       -613.3103709038116449
  Basis Set: (AUG-CC-PVTZ AUX)
    Blend: AUG-CC-PVTZ-RI
    Molecular point group: c1

    Geometry (in Angstrom), charge = 0, multiplicity = 1:

       Center              X                  Y                   Z               Mass
    ------------   -----------------  -----------------  -----------------  -----------------
         O            0.834904325891    -0.225728548942    -0.190621608227    15.994914619570
         C           -1.383878674109     0.497715451058     0.173215391773    12.000000000000
         C            0.061704325891     0.872616451058     0.307690391773    12.000000000000
         C           -4.106656674109    -0.220030548942    -0.040963608227    12.000000000000
         C           -1.859904674109    -0.671934548942     0.778627391773    12.000000000000
         C           -2.275548674109     1.300263451058    -0.542430608227    12.000000000000
         C           -3.202763674109    -1.023986548942     0.668988391773    12.000000000000
         C           -3.622869674109     0.947654451058    -0.641061608227    12.000000000000
         C            2.201410325891    -0.115615548942    -0.097343608227    12.000000000000
         C           -5.566179674109    -0.585841548942    -0.118452608227    12.000000000000
         C            2.785945425891     0.846025951058     0.316588391773    12.000000000000
         C            2.916582325891    -1.238255548942    -0.536690608227    12.000000000000
         C            4.282584325891     0.989928451058     0.425625391773    12.000000000000
         C            4.306447325891    -1.238284548942    -0.491855608227    12.000000000000
         C            4.999455325891    -0.122776548942    -0.008239608227    12.000000000000
         H            0.279706325891     1.785669451058    -0.263630608227     1.007825032230
         H            0.324468325891     1.056561451058     1.359600391773     1.007825032230
         H           -1.168074674109    -1.312834548942     1.321212391773     1.007825032230
         H           -1.916166674109     2.204249451058    -1.031717608227     1.007825032230
         H           -3.557348674109    -1.940657548942     1.138126391773     1.007825032230
         H           -4.303973674109     1.582098451058    -1.206091608227     1.007825032230
         H           -6.034511674109    -0.149187548942    -1.005006608227     1.007825032230
         H           -5.698034674109    -1.670728548942    -0.164134608227     1.007825032230
         H           -6.111824674109    -0.222711548942     0.759408391773     1.007825032230
         H            2.352060325891     1.889015451058     0.724883391773     1.007825032230
         H            2.357310325891    -2.092804548942    -0.907777608227     1.007825032230
         H            4.809270325891     1.864016451058     0.801839391773     1.007825032230
         H            4.851914325891    -2.114251548942    -0.834991608227     1.007825032230
         H            6.085534325891    -0.123578548942     0.027260391773     1.007825032230

  Basis Set: AUG-CC-PVTZ
    Blend: AUG-CC-PVTZ
  Basis Set: (AUG-CC-PVTZ AUX)
    Blend: AUG-CC-PVTZ-JKFIT
	 Reference Energy          =    -613.3103709038116449 [Eh]
	 Singles Energy            =      -0.0000000000000000 [Eh]
	 Same-Spin Energy          =      -0.6719991196398284 [Eh]
	 Opposite-Spin Energy      =      -2.1178353670060273 [Eh]
	 Correlation Energy        =      -2.7898344866458555 [Eh]
	 Total Energy              =    -616.1002053904575178 [Eh]

	 ================> DF-SCS-MP2 Energies <==================
	-----------------------------------------------------------
	 SCS Same-Spin Scale       =       0.3333333333333333 [-]
	 SCS Opposite-Spin Scale   =       1.2000000000000000 [-]
	 SCS Same-Spin Energy      =      -0.2239997065466094 [Eh]
	 SCS Opposite-Spin Energy  =      -2.5414024404072326 [Eh]
	 SCS Correlation Energy    =      -2.7654021469538419 [Eh]
	 SCS Total Energy          =    -616.0757730507655197 [Eh]
	-----------------------------------------------------------

  Dipole Moment: [D]
     X:    -0.5094      Y:     0.7409      Z:     0.4853     Total:     1.0217

*** Psi4 exiting successfully. Buy a developer a beer!
