                               Psi4 1.4a3.dev225

  ==> Input File <==

--------------------------------------------------------------------------
#psi4
#
memory 32 gb

molecule  {
0 1
  O        0.8655410    -0.2383350    -0.1978900
  C       -1.3532420     0.4851090     0.1659470
  C        0.0923410     0.8600100     0.3004220
  C       -4.0975006    -0.1525153    -0.1823589
  C       -1.8292680    -0.6845410     0.7713590
  C       -2.2449120     1.2876570    -0.5496990
  C       -3.1721270    -1.0365930     0.6617200
  C       -3.5922330     0.9350480    -0.6483300
  C        2.2320470    -0.1282220    -0.1046120
  C       -5.5355430    -0.5984480    -0.1257210
  C        2.9140800     0.9938170     0.3783620
  C        2.9472190    -1.2508620    -0.5439590
  C        4.3132210     0.9773220     0.4183570
  C        4.3370840    -1.2508910    -0.4991240
  C        5.0300920    -0.1353830    -0.0155080
  H        0.3103430     1.7730630    -0.2708990
  H        0.3551050     1.0439550     1.3523320
  H       -1.1374380    -1.3254410     1.3139440
  H       -1.8855300     2.1916430    -1.0389860
  H       -3.5267120    -1.9532640     1.1308580
  H       -4.2733370     1.5694920    -1.2133600
  H       -6.0038750    -0.1617940    -1.0122750
  H       -5.6673980    -1.6833350    -0.1714030
  H       -6.0811880    -0.2353180     0.7521400
  H        2.3826970     1.8764090     0.7176150
  H        2.3879470    -2.1054110    -0.9150460
  H        4.8399070     1.8514100     0.7945710
  H        4.8825510    -2.1268580    -0.8422600
  H        6.1161710    -0.1361850     0.0199920
units angstrom
no_reorient  #important for SAPT in psi4, default
symmetry c1  #important for SAPT in psi4, default
}

set PROPERTIES_ORIGIN ["COM"]
properties('MP2/aug-cc-pvtz', properties = ['dipole'])
--------------------------------------------------------------------------

    Molecular point group: c1
  Charge       = 0
  Multiplicity = 1
  Basis Set: AUG-CC-PVTZ
    Blend: AUG-CC-PVTZ
  Basis Set: (AUG-CC-PVTZ AUX)
    Blend: AUG-CC-PVTZ-JKFIT

    Orbital Energies [Eh]
    ---------------------

    Doubly Occupied:

       1A    -20.584370     2A    -11.301365     3A    -11.293743
       4A    -11.243141     5A    -11.241829     6A    -11.241148
       7A    -11.240948     8A    -11.239568     9A    -11.237944
      10A    -11.233379    11A    -11.233194    12A    -11.227890
      13A    -11.227448    14A    -11.226950    15A    -11.219059
      16A     -1.405363    17A     -1.160266    18A     -1.144235
      19A     -1.071217    20A     -1.018218    21A     -1.011150
      22A     -1.008492    23A     -0.964662    24A     -0.903324
      25A     -0.837978    26A     -0.825545    27A     -0.810570
      28A     -0.777575    29A     -0.721316    30A     -0.685351
      31A     -0.669583    32A     -0.663914    33A     -0.644147
      34A     -0.630581    35A     -0.620176    36A     -0.609224
      37A     -0.588944    38A     -0.585737    39A     -0.577711
      40A     -0.562435    41A     -0.545803    42A     -0.533455
      43A     -0.524728    44A     -0.512731    45A     -0.501591
      46A     -0.487149    47A     -0.480953    48A     -0.466694
      49A     -0.454335    50A     -0.348663    51A     -0.339972
      52A     -0.316238    53A     -0.312576

  @DF-RHF Final Energy:  -613.34593790950396

   => Energetics <=

    Nuclear Repulsion Energy =            870.6019270673472192
    One-Electron Energy =               -2559.2665751868094048
    Two-Electron Energy =                1075.3187102099582262
    Total Energy =                       -613.3459379095038457
  Basis Set: (AUG-CC-PVTZ AUX)
    Blend: AUG-CC-PVTZ-RI
    Molecular point group: c1

    Geometry (in Angstrom), charge = 0, multiplicity = 1:

       Center              X                  Y                   Z               Mass
    ------------   -----------------  -----------------  -----------------  -----------------
         O            0.830299646235    -0.240297783406    -0.186679148880    15.994914619570
         C           -1.388483353765     0.483146216594     0.177157851120    12.000000000000
         C            0.057099646235     0.858047216594     0.311632851120    12.000000000000
         C           -4.132741953765    -0.154478083406    -0.171148048880    12.000000000000
         C           -1.864509353765    -0.686503783406     0.782569851120    12.000000000000
         C           -2.280153353765     1.285694216594    -0.538488148880    12.000000000000
         C           -3.207368353765    -1.038555783406     0.672930851120    12.000000000000
         C           -3.627474353765     0.933085216594    -0.637119148880    12.000000000000
         C            2.196805646235    -0.130184783406    -0.093401148880    12.000000000000
         C           -5.570784353765    -0.600410783406    -0.114510148880    12.000000000000
         C            2.878838646235     0.991854216594     0.389572851120    12.000000000000
         C            2.911977646235    -1.252824783406    -0.532748148880    12.000000000000
         C            4.277979646235     0.975359216594     0.429567851120    12.000000000000
         C            4.301842646235    -1.252853783406    -0.487913148880    12.000000000000
         C            4.994850646235    -0.137345783406    -0.004297148880    12.000000000000
         H            0.275101646235     1.771100216594    -0.259688148880     1.007825032230
         H            0.319863646235     1.041992216594     1.363542851120     1.007825032230
         H           -1.172679353765    -1.327403783406     1.325154851120     1.007825032230
         H           -1.920771353765     2.189680216594    -1.027775148880     1.007825032230
         H           -3.561953353765    -1.955226783406     1.142068851120     1.007825032230
         H           -4.308578353765     1.567529216594    -1.202149148880     1.007825032230
         H           -6.039116353765    -0.163756783406    -1.001064148880     1.007825032230
         H           -5.702639353765    -1.685297783406    -0.160192148880     1.007825032230
         H           -6.116429353765    -0.237280783406     0.763350851120     1.007825032230
         H            2.347455646235     1.874446216594     0.728825851120     1.007825032230
         H            2.352705646235    -2.107373783406    -0.903835148880     1.007825032230
         H            4.804665646235     1.849447216594     0.805781851120     1.007825032230
         H            4.847309646235    -2.128820783406    -0.831049148880     1.007825032230
         H            6.080929646235    -0.138147783406     0.031202851120     1.007825032230

  Basis Set: AUG-CC-PVTZ
    Blend: AUG-CC-PVTZ
  Basis Set: (AUG-CC-PVTZ AUX)
    Blend: AUG-CC-PVTZ-JKFIT
	 Reference Energy          =    -613.3459379095039594 [Eh]
	 Singles Energy            =      -0.0000000000000000 [Eh]
	 Same-Spin Energy          =      -0.6718433550286426 [Eh]
	 Opposite-Spin Energy      =      -2.1175129888499313 [Eh]
	 Correlation Energy        =      -2.7893563438785738 [Eh]
	 Total Energy              =    -616.1352942533825399 [Eh]

	 ================> DF-SCS-MP2 Energies <==================
	-----------------------------------------------------------
	 SCS Same-Spin Scale       =       0.3333333333333333 [-]
	 SCS Opposite-Spin Scale   =       1.2000000000000000 [-]
	 SCS Same-Spin Energy      =      -0.2239477850095475 [Eh]
	 SCS Opposite-Spin Energy  =      -2.5410155866199173 [Eh]
	 SCS Correlation Energy    =      -2.7649633716294648 [Eh]
	 SCS Total Energy          =    -616.1109012811334651 [Eh]
	-----------------------------------------------------------

  Dipole Moment: [D]
     X:    -0.9757      Y:     0.7204      Z:     0.5144     Total:     1.3174

*** Psi4 exiting successfully. Buy a developer a beer!
