                               Psi4 1.4a3.dev225

  ==> Input File <==

--------------------------------------------------------------------------
#psi4
#
memory 32 gb

molecule  {
0 1
  O        0.8655410    -0.2383350    -0.1978900
  C       -1.3532420     0.4851090     0.1659470
  C        0.0923410     0.8600100     0.3004220
  C       -4.0760200    -0.2326370    -0.0482320
  C       -1.8292680    -0.6845410     0.7713590
  C       -2.2449120     1.2876570    -0.5496990
  C       -3.1721270    -1.0365930     0.6617200
  C       -3.6268099     0.8515920    -0.6054402
  C        2.2320470    -0.1282220    -0.1046120
  C       -5.5355430    -0.5984480    -0.1257210
  C        2.9140800     0.9938170     0.3783620
  C        2.9472190    -1.2508620    -0.5439590
  C        4.3132210     0.9773220     0.4183570
  C        4.3370840    -1.2508910    -0.4991240
  C        5.0300920    -0.1353830    -0.0155080
  H        0.3103430     1.7730630    -0.2708990
  H        0.3551050     1.0439550     1.3523320
  H       -1.1374380    -1.3254410     1.3139440
  H       -1.8855300     2.1916430    -1.0389860
  H       -3.5267120    -1.9532640     1.1308580
  H       -4.2733370     1.5694920    -1.2133600
  H       -6.0038750    -0.1617940    -1.0122750
  H       -5.6673980    -1.6833350    -0.1714030
  H       -6.0811880    -0.2353180     0.7521400
  H        2.3826970     1.8764090     0.7176150
  H        2.3879470    -2.1054110    -0.9150460
  H        4.8399070     1.8514100     0.7945710
  H        4.8825510    -2.1268580    -0.8422600
  H        6.1161710    -0.1361850     0.0199920
units angstrom
no_reorient  #important for SAPT in psi4, default
symmetry c1  #important for SAPT in psi4, default
}

set PROPERTIES_ORIGIN ["COM"]
properties('MP2/aug-cc-pvtz', properties = ['dipole'])
--------------------------------------------------------------------------

    Molecular point group: c1
  Charge       = 0
  Multiplicity = 1
  Basis Set: AUG-CC-PVTZ
    Blend: AUG-CC-PVTZ
  Basis Set: (AUG-CC-PVTZ AUX)
    Blend: AUG-CC-PVTZ-JKFIT

    Orbital Energies [Eh]
    ---------------------

    Doubly Occupied:

       1A    -20.584462     2A    -11.301419     3A    -11.293519
       4A    -11.242612     5A    -11.241250     6A    -11.239847
       7A    -11.239669     8A    -11.234711     9A    -11.233484
      10A    -11.233292    11A    -11.231244    12A    -11.229240
      13A    -11.227986    14A    -11.227544    15A    -11.224561
      16A     -1.405411    17A     -1.164959    18A     -1.144900
      19A     -1.074554    20A     -1.018214    21A     -1.009685
      22A     -1.005719    23A     -0.962682    24A     -0.904557
      25A     -0.839015    26A     -0.831230    27A     -0.810162
      28A     -0.777583    29A     -0.721596    30A     -0.683013
      31A     -0.671775    32A     -0.664065    33A     -0.644680
      34A     -0.630953    35A     -0.620153    36A     -0.609643
      37A     -0.587116    38A     -0.578838    39A     -0.576703
      40A     -0.566467    41A     -0.538937    42A     -0.533692
      43A     -0.524504    44A     -0.514241    45A     -0.497519
      46A     -0.488659    47A     -0.482107    48A     -0.471909
      49A     -0.462652    50A     -0.340754    51A     -0.337684
      52A     -0.327592    53A     -0.312677

  @DF-RHF Final Energy:  -613.35871628805842

   => Energetics <=

    Nuclear Repulsion Energy =            871.7724253461115040
    One-Electron Energy =               -2561.6194132594305302
    Two-Electron Energy =                1076.4882716252607224
    Total Energy =                       -613.3587162880583037
  Basis Set: (AUG-CC-PVTZ AUX)
    Blend: AUG-CC-PVTZ-RI
    Molecular point group: c1

    Geometry (in Angstrom), charge = 0, multiplicity = 1:

       Center              X                  Y                   Z               Mass
    ------------   -----------------  -----------------  -----------------  -----------------
         O            0.831092942843    -0.230389211182    -0.197401776455    15.994914619570
         C           -1.387690057157     0.493054788818     0.166435223545    12.000000000000
         C            0.057892942843     0.867955788818     0.300910223545    12.000000000000
         C           -4.110468057157    -0.224691211182    -0.047743776455    12.000000000000
         C           -1.863716057157    -0.676595211182     0.771847223545    12.000000000000
         C           -2.279360057157     1.295602788818    -0.549210776455    12.000000000000
         C           -3.206575057157    -1.028647211182     0.662208223545    12.000000000000
         C           -3.661257957157     0.859537788818    -0.604951976455    12.000000000000
         C            2.197598942843    -0.120276211182    -0.104123776455    12.000000000000
         C           -5.569991057157    -0.590502211182    -0.125232776455    12.000000000000
         C            2.879631942843     1.001762788818     0.378850223545    12.000000000000
         C            2.912770942843    -1.242916211182    -0.543470776455    12.000000000000
         C            4.278772942843     0.985267788818     0.418845223545    12.000000000000
         C            4.302635942843    -1.242945211182    -0.498635776455    12.000000000000
         C            4.995643942843    -0.127437211182    -0.015019776455    12.000000000000
         H            0.275894942843     1.781008788818    -0.270410776455     1.007825032230
         H            0.320656942843     1.051900788818     1.352820223545     1.007825032230
         H           -1.171886057157    -1.317495211182     1.314432223545     1.007825032230
         H           -1.919978057157     2.199588788818    -1.038497776455     1.007825032230
         H           -3.561160057157    -1.945318211182     1.131346223545     1.007825032230
         H           -4.307785057157     1.577437788818    -1.212871776455     1.007825032230
         H           -6.038323057157    -0.153848211182    -1.011786776455     1.007825032230
         H           -5.701846057157    -1.675389211182    -0.170914776455     1.007825032230
         H           -6.115636057157    -0.227372211182     0.752628223545     1.007825032230
         H            2.348248942843     1.884354788818     0.718103223545     1.007825032230
         H            2.353498942843    -2.097465211182    -0.914557776455     1.007825032230
         H            4.805458942843     1.859355788818     0.795059223545     1.007825032230
         H            4.848102942843    -2.118912211182    -0.841771776455     1.007825032230
         H            6.081722942843    -0.128239211182     0.020480223545     1.007825032230

  Basis Set: AUG-CC-PVTZ
    Blend: AUG-CC-PVTZ
  Basis Set: (AUG-CC-PVTZ AUX)
    Blend: AUG-CC-PVTZ-JKFIT
	 Reference Energy          =    -613.3587162880584174 [Eh]
	 Singles Energy            =      -0.0000000000000000 [Eh]
	 Same-Spin Energy          =      -0.6722848158122929 [Eh]
	 Opposite-Spin Energy      =      -2.1167122112425316 [Eh]
	 Correlation Energy        =      -2.7889970270548243 [Eh]
	 Total Energy              =    -616.1477133151132648 [Eh]

	 ================> DF-SCS-MP2 Energies <==================
	-----------------------------------------------------------
	 SCS Same-Spin Scale       =       0.3333333333333333 [-]
	 SCS Opposite-Spin Scale   =       1.2000000000000000 [-]
	 SCS Same-Spin Energy      =      -0.2240949386040976 [Eh]
	 SCS Opposite-Spin Energy  =      -2.5400546534910378 [Eh]
	 SCS Correlation Energy    =      -2.7641495920951353 [Eh]
	 SCS Total Energy          =    -616.1228658801535403 [Eh]
	-----------------------------------------------------------

  Dipole Moment: [D]
     X:    -0.9115      Y:     0.7378      Z:     0.4816     Total:     1.2677

*** Psi4 exiting successfully. Buy a developer a beer!
