                               Psi4 1.4a3.dev225

  ==> Input File <==

--------------------------------------------------------------------------
#psi4
#
memory 32 gb

molecule  {
0 1
  O        0.8655410    -0.2383350    -0.1978900
  C       -1.3532420     0.4851090     0.1659470
  C        0.0923410     0.8600100     0.3004220
  C       -4.0760200    -0.2326370    -0.0482320
  C       -1.8292680    -0.6845410     0.7713590
  C       -2.2449120     1.2876570    -0.5496990
  C       -3.1721270    -1.0365930     0.6617200
  C       -3.5922330     0.9350480    -0.6483300
  C        2.2320470    -0.1282220    -0.1046120
  C       -5.5355430    -0.5984480    -0.1257210
  C        2.9140800     0.9938170     0.3783620
  C        2.9472190    -1.2508620    -0.5439590
  C        4.3132210     0.9773220     0.4183570
  C        4.3370840    -1.2508910    -0.4991240
  C        5.0300920    -0.1353830    -0.0155080
  H        0.3103430     1.7730630    -0.2708990
  H        0.3551050     1.0439550     1.3523320
  H       -1.1374380    -1.3254410     1.3139440
  H       -1.8855300     2.1916430    -1.0389860
  H       -3.5267120    -1.9532640     1.1308580
  H       -4.2733370     1.5694920    -1.2133600
  H       -5.9182261    -0.2416496    -0.8501413
  H       -5.6673980    -1.6833350    -0.1714030
  H       -6.0811880    -0.2353180     0.7521400
  H        2.3826970     1.8764090     0.7176150
  H        2.3879470    -2.1054110    -0.9150460
  H        4.8399070     1.8514100     0.7945710
  H        4.8825510    -2.1268580    -0.8422600
  H        6.1161710    -0.1361850     0.0199920
units angstrom
no_reorient  #important for SAPT in psi4, default
symmetry c1  #important for SAPT in psi4, default
}

set PROPERTIES_ORIGIN ["COM"]
properties('MP2/aug-cc-pvtz', properties = ['dipole'])
--------------------------------------------------------------------------

    Molecular point group: c1
  Charge       = 0
  Multiplicity = 1
  Basis Set: AUG-CC-PVTZ
    Blend: AUG-CC-PVTZ
  Basis Set: (AUG-CC-PVTZ AUX)
    Blend: AUG-CC-PVTZ-JKFIT

    Orbital Energies [Eh]
    ---------------------

    Doubly Occupied:

       1A    -20.587819     2A    -11.302704     3A    -11.298909
       4A    -11.254624     5A    -11.250547     6A    -11.246087
       7A    -11.243387     8A    -11.241837     9A    -11.241487
      10A    -11.239989    11A    -11.239935    12A    -11.234318
      13A    -11.228726    14A    -11.227858    15A    -11.207451
      16A     -1.408748    17A     -1.167784    18A     -1.145431
      19A     -1.078826    20A     -1.021664    21A     -1.020594
      22A     -1.013775    23A     -0.978892    24A     -0.914522
      25A     -0.841385    26A     -0.834220    27A     -0.811981
      28A     -0.791461    29A     -0.723752    30A     -0.692761
      31A     -0.678275    32A     -0.665610    33A     -0.650278
      34A     -0.636596    35A     -0.633072    36A     -0.612581
      37A     -0.594426    38A     -0.590007    39A     -0.587767
      40A     -0.571438    41A     -0.563254    42A     -0.536336
      43A     -0.527820    44A     -0.515915    45A     -0.496949
      46A     -0.495002    47A     -0.491014    48A     -0.482519
      49A     -0.467207    50A     -0.344801    51A     -0.340585
      52A     -0.324307    53A     -0.313490

  @DF-RHF Final Energy:  -613.33790213490215

   => Energetics <=

    Nuclear Repulsion Energy =            871.7407116918275278
    One-Electron Energy =               -2560.9357784205913049
    Two-Electron Energy =                1075.8571645938616257
    Total Energy =                       -613.3379021349021514
  Basis Set: (AUG-CC-PVTZ AUX)
    Blend: AUG-CC-PVTZ-RI
    Molecular point group: c1

    Geometry (in Angstrom), charge = 0, multiplicity = 1:

       Center              X                  Y                   Z               Mass
    ------------   -----------------  -----------------  -----------------  -----------------
         O            0.828562752999    -0.235038230714    -0.195628594824    15.994914619570
         C           -1.390220247001     0.488405769286     0.168208405176    12.000000000000
         C            0.055362752999     0.863306769286     0.302683405176    12.000000000000
         C           -4.112998247001    -0.229340230714    -0.045970594824    12.000000000000
         C           -1.866246247001    -0.681244230714     0.773620405176    12.000000000000
         C           -2.281890247001     1.290953769286    -0.547437594824    12.000000000000
         C           -3.209105247001    -1.033296230714     0.663981405176    12.000000000000
         C           -3.629211247001     0.938344769286    -0.646068594824    12.000000000000
         C            2.195068752999    -0.124925230714    -0.102350594824    12.000000000000
         C           -5.572521247001    -0.595151230714    -0.123459594824    12.000000000000
         C            2.877101752999     0.997113769286     0.380623405176    12.000000000000
         C            2.910240752999    -1.247565230714    -0.541697594824    12.000000000000
         C            4.276242752999     0.980618769286     0.420618405176    12.000000000000
         C            4.300105752999    -1.247594230714    -0.496862594824    12.000000000000
         C            4.993113752999    -0.132086230714    -0.013246594824    12.000000000000
         H            0.273364752999     1.776359769286    -0.268637594824     1.007825032230
         H            0.318126752999     1.047251769286     1.354593405176     1.007825032230
         H           -1.174416247001    -1.322144230714     1.316205405176     1.007825032230
         H           -1.922508247001     2.194939769286    -1.036724594824     1.007825032230
         H           -3.563690247001    -1.949967230714     1.133119405176     1.007825032230
         H           -4.310315247001     1.572788769286    -1.211098594824     1.007825032230
         H           -5.955204347001    -0.238352830714    -0.847879894824     1.007825032230
         H           -5.704376247001    -1.680038230714    -0.169141594824     1.007825032230
         H           -6.118166247001    -0.232021230714     0.754401405176     1.007825032230
         H            2.345718752999     1.879705769286     0.719876405176     1.007825032230
         H            2.350968752999    -2.102114230714    -0.912784594824     1.007825032230
         H            4.802928752999     1.854706769286     0.796832405176     1.007825032230
         H            4.845572752999    -2.123561230714    -0.839998594824     1.007825032230
         H            6.079192752999    -0.132888230714     0.022253405176     1.007825032230

  Basis Set: AUG-CC-PVTZ
    Blend: AUG-CC-PVTZ
  Basis Set: (AUG-CC-PVTZ AUX)
    Blend: AUG-CC-PVTZ-JKFIT
	 Reference Energy          =    -613.3379021349021514 [Eh]
	 Singles Energy            =      -0.0000000000000000 [Eh]
	 Same-Spin Energy          =      -0.6735141903798516 [Eh]
	 Opposite-Spin Energy      =      -2.1166111566318300 [Eh]
	 Correlation Energy        =      -2.7901253470116814 [Eh]
	 Total Energy              =    -616.1280274819138185 [Eh]

	 ================> DF-SCS-MP2 Energies <==================
	-----------------------------------------------------------
	 SCS Same-Spin Scale       =       0.3333333333333333 [-]
	 SCS Opposite-Spin Scale   =       1.2000000000000000 [-]
	 SCS Same-Spin Energy      =      -0.2245047301266172 [Eh]
	 SCS Opposite-Spin Energy  =      -2.5399333879581958 [Eh]
	 SCS Correlation Energy    =      -2.7644381180848128 [Eh]
	 SCS Total Energy          =    -616.1023402529870054 [Eh]
	-----------------------------------------------------------

  Dipole Moment: [D]
     X:     2.0111      Y:     0.1268      Z:     0.2828     Total:     2.0349

*** Psi4 exiting successfully. Buy a developer a beer!
