                               Psi4 1.4a3.dev225

  ==> Input File <==

--------------------------------------------------------------------------
#psi4
#
memory 32 gb

molecule  {
0 1
  O        0.8655410    -0.2383350    -0.1978900
  C       -1.3532420     0.4851090     0.1659470
  C        0.0923410     0.8600100     0.3004220
  C       -4.0760200    -0.2326370    -0.0482320
  C       -1.8292680    -0.6845410     0.7713590
  C       -2.2449120     1.2876570    -0.5496990
  C       -3.1721270    -1.0365930     0.6617200
  C       -3.5922330     0.9350480    -0.6483300
  C        2.2320470    -0.1282220    -0.1046120
  C       -5.5355430    -0.5984480    -0.1257210
  C        2.9140800     0.9938170     0.3783620
  C        2.9472190    -1.2508620    -0.5439590
  C        4.3132210     0.9773220     0.4183570
  C        4.3370840    -1.2508910    -0.4991240
  C        5.0300920    -0.1353830    -0.0155080
  H        0.3103430     1.7730630    -0.2708990
  H        0.3551050     1.0439550     1.3523320
  H       -1.1374380    -1.3254410     1.3139440
  H       -1.8855300     2.1916430    -1.0389860
  H       -3.5267120    -1.9532640     1.1308580
  H       -4.2733370     1.5694920    -1.2133600
  H       -6.0038750    -0.1617940    -1.0122750
  H       -5.6673980    -1.6833350    -0.1714030
  H       -6.0811880    -0.2353180     0.7521400
  H        2.3826970     1.8764090     0.7176150
  H        2.4136815    -2.0660896    -0.8979707
  H        4.8399070     1.8514100     0.7945710
  H        4.8825510    -2.1268580    -0.8422600
  H        6.1161710    -0.1361850     0.0199920
units angstrom
no_reorient  #important for SAPT in psi4, default
symmetry c1  #important for SAPT in psi4, default
}

set PROPERTIES_ORIGIN ["COM"]
properties('MP2/aug-cc-pvtz', properties = ['dipole'])
--------------------------------------------------------------------------

    Molecular point group: c1
  Charge       = 0
  Multiplicity = 1
  Basis Set: AUG-CC-PVTZ
    Blend: AUG-CC-PVTZ
  Basis Set: (AUG-CC-PVTZ AUX)
    Blend: AUG-CC-PVTZ-JKFIT

    Orbital Energies [Eh]
    ---------------------

    Doubly Occupied:

       1A    -20.583921     2A    -11.300594     3A    -11.293197
       4A    -11.243849     5A    -11.240829     6A    -11.239117
       7A    -11.239036     8A    -11.237561     9A    -11.234977
      10A    -11.232626    11A    -11.232273    12A    -11.232115
      13A    -11.226960    14A    -11.225879    15A    -11.221898
      16A     -1.404897    17A     -1.158866    18A     -1.143771
      19A     -1.067041    20A     -1.019212    21A     -1.013407
      22A     -1.008168    23A     -0.964280    24A     -0.899514
      25A     -0.834706    26A     -0.832232    27A     -0.809176
      28A     -0.782501    29A     -0.722474    30A     -0.683936
      31A     -0.671327    32A     -0.666768    33A     -0.643677
      34A     -0.631158    35A     -0.620719    36A     -0.610020
      37A     -0.590037    38A     -0.583569    39A     -0.577020
      40A     -0.564477    41A     -0.543322    42A     -0.533032
      43A     -0.522869    44A     -0.514088    45A     -0.491954
      46A     -0.486602    47A     -0.485053    48A     -0.479196
      49A     -0.464130    50A     -0.339747    51A     -0.336764
      52A     -0.322256    53A     -0.312116

  @DF-RHF Final Energy:  -613.37081159822856

   => Energetics <=

    Nuclear Repulsion Energy =            870.9994908529918121
    One-Electron Energy =               -2560.1027812077159069
    Two-Electron Energy =                1075.7324787564955386
    Total Energy =                       -613.3708115982285562
  Basis Set: (AUG-CC-PVTZ AUX)
    Blend: AUG-CC-PVTZ-RI
    Molecular point group: c1

    Geometry (in Angstrom), charge = 0, multiplicity = 1:

       Center              X                  Y                   Z               Mass
    ------------   -----------------  -----------------  -----------------  -----------------
         O            0.828867558003    -0.235644524791    -0.194890633230    15.994914619570
         C           -1.389915441997     0.487799475209     0.168946366770    12.000000000000
         C            0.055667558003     0.862700475209     0.303421366770    12.000000000000
         C           -4.112693441997    -0.229946524791    -0.045232633230    12.000000000000
         C           -1.865941441997    -0.681850524791     0.774358366770    12.000000000000
         C           -2.281585441997     1.290347475209    -0.546699633230    12.000000000000
         C           -3.208800441997    -1.033902524791     0.664719366770    12.000000000000
         C           -3.628906441997     0.937738475209    -0.645330633230    12.000000000000
         C            2.195373558003    -0.125531524791    -0.101612633230    12.000000000000
         C           -5.572216441997    -0.595757524791    -0.122721633230    12.000000000000
         C            2.877406558003     0.996507475209     0.381361366770    12.000000000000
         C            2.910545558003    -1.248171524791    -0.540959633230    12.000000000000
         C            4.276547558003     0.980012475209     0.421356366770    12.000000000000
         C            4.300410558003    -1.248200524791    -0.496124633230    12.000000000000
         C            4.993418558003    -0.132692524791    -0.012508633230    12.000000000000
         H            0.273669558003     1.775753475209    -0.267899633230     1.007825032230
         H            0.318431558003     1.046645475209     1.355331366770     1.007825032230
         H           -1.174111441997    -1.322750524791     1.316943366770     1.007825032230
         H           -1.922203441997     2.194333475209    -1.035986633230     1.007825032230
         H           -3.563385441997    -1.950573524791     1.133857366770     1.007825032230
         H           -4.310010441997     1.572182475209    -1.210360633230     1.007825032230
         H           -6.040548441997    -0.159103524791    -1.009275633230     1.007825032230
         H           -5.704071441997    -1.680644524791    -0.168403633230     1.007825032230
         H           -6.117861441997    -0.232627524791     0.755139366770     1.007825032230
         H            2.346023558003     1.879099475209     0.720614366770     1.007825032230
         H            2.377008058003    -2.063399124791    -0.894971333230     1.007825032230
         H            4.803233558003     1.854100475209     0.797570366770     1.007825032230
         H            4.845877558003    -2.124167524791    -0.839260633230     1.007825032230
         H            6.079497558003    -0.133494524791     0.022991366770     1.007825032230

  Basis Set: AUG-CC-PVTZ
    Blend: AUG-CC-PVTZ
  Basis Set: (AUG-CC-PVTZ AUX)
    Blend: AUG-CC-PVTZ-JKFIT
	 Reference Energy          =    -613.3708115982285562 [Eh]
	 Singles Energy            =      -0.0000000000000000 [Eh]
	 Same-Spin Energy          =      -0.6725444972764065 [Eh]
	 Opposite-Spin Energy      =      -2.1161985438622328 [Eh]
	 Correlation Energy        =      -2.7887430411386394 [Eh]
	 Total Energy              =    -616.1595546393672294 [Eh]

	 ================> DF-SCS-MP2 Energies <==================
	-----------------------------------------------------------
	 SCS Same-Spin Scale       =       0.3333333333333333 [-]
	 SCS Opposite-Spin Scale   =       1.2000000000000000 [-]
	 SCS Same-Spin Energy      =      -0.2241814990921355 [Eh]
	 SCS Opposite-Spin Energy  =      -2.5394382526346795 [Eh]
	 SCS Correlation Energy    =      -2.7636197517268148 [Eh]
	 SCS Total Energy          =    -616.1344313499553209 [Eh]
	-----------------------------------------------------------

  Dipole Moment: [D]
     X:    -1.0069      Y:     0.7270      Z:     0.4695     Total:     1.3278

*** Psi4 exiting successfully. Buy a developer a beer!
