                               Psi4 1.4a3.dev225

  ==> Input File <==

--------------------------------------------------------------------------
#psi4
#
memory 32 gb

molecule  {
0 1
  O        0.8655410    -0.2383350    -0.1978900
  C       -1.3532420     0.4851090     0.1659470
  C        0.0923410     0.8600100     0.3004220
  C       -4.0760200    -0.2326370    -0.0482320
  C       -1.8292680    -0.6845410     0.7713590
  C       -2.2449120     1.2876570    -0.5496990
  C       -3.1721270    -1.0365930     0.6617200
  C       -3.6613868     0.7681360    -0.5625504
  C        2.2320470    -0.1282220    -0.1046120
  C       -5.5355430    -0.5984480    -0.1257210
  C        2.9140800     0.9938170     0.3783620
  C        2.9472190    -1.2508620    -0.5439590
  C        4.3132210     0.9773220     0.4183570
  C        4.3370840    -1.2508910    -0.4991240
  C        5.0300920    -0.1353830    -0.0155080
  H        0.3103430     1.7730630    -0.2708990
  H        0.3551050     1.0439550     1.3523320
  H       -1.1374380    -1.3254410     1.3139440
  H       -1.8855300     2.1916430    -1.0389860
  H       -3.5267120    -1.9532640     1.1308580
  H       -4.2733370     1.5694920    -1.2133600
  H       -6.0038750    -0.1617940    -1.0122750
  H       -5.6673980    -1.6833350    -0.1714030
  H       -6.0811880    -0.2353180     0.7521400
  H        2.3826970     1.8764090     0.7176150
  H        2.3879470    -2.1054110    -0.9150460
  H        4.8399070     1.8514100     0.7945710
  H        4.8825510    -2.1268580    -0.8422600
  H        6.1161710    -0.1361850     0.0199920
units angstrom
no_reorient  #important for SAPT in psi4, default
symmetry c1  #important for SAPT in psi4, default
}

set PROPERTIES_ORIGIN ["COM"]
properties('MP2/aug-cc-pvtz', properties = ['dipole'])
--------------------------------------------------------------------------

    Molecular point group: c1
  Charge       = 0
  Multiplicity = 1
  Basis Set: AUG-CC-PVTZ
    Blend: AUG-CC-PVTZ
  Basis Set: (AUG-CC-PVTZ AUX)
    Blend: AUG-CC-PVTZ-JKFIT

    Orbital Energies [Eh]
    ---------------------

    Doubly Occupied:

       1A    -20.584998     2A    -11.301806     3A    -11.293825
       4A    -11.246769     5A    -11.241529     6A    -11.241109
       7A    -11.239938     8A    -11.236069     9A    -11.233845
      10A    -11.233623    11A    -11.228287    12A    -11.227821
      13A    -11.226648    14A    -11.223762    15A    -11.214425
      16A     -1.405939    17A     -1.175679    18A     -1.145912
      19A     -1.083348    20A     -1.018905    21A     -1.011119
      22A     -0.999410    23A     -0.961172    24A     -0.910440
      25A     -0.845849    26A     -0.831240    27A     -0.810443
      28A     -0.770069    29A     -0.721927    30A     -0.683600
      31A     -0.673153    32A     -0.664434    33A     -0.645376
      34A     -0.630811    35A     -0.620186    36A     -0.610283
      37A     -0.587556    38A     -0.582371    39A     -0.573870
      40A     -0.567100    41A     -0.538197    42A     -0.533007
      43A     -0.525790    44A     -0.514434    45A     -0.502511
      46A     -0.492152    47A     -0.482723    48A     -0.467825
      49A     -0.444517    50A     -0.355253    51A     -0.340280
      52A     -0.322119    53A     -0.312972

  @DF-RHF Final Energy:  -613.31083972142176

   => Energetics <=

    Nuclear Repulsion Energy =            872.9843688265531227
    One-Electron Energy =               -2563.9175574729915752
    Two-Electron Energy =                1077.6223489250164675
    Total Energy =                       -613.3108397214218712
  Basis Set: (AUG-CC-PVTZ AUX)
    Blend: AUG-CC-PVTZ-RI
    Molecular point group: c1

    Geometry (in Angstrom), charge = 0, multiplicity = 1:

       Center              X                  Y                   Z               Mass
    ------------   -----------------  -----------------  -----------------  -----------------
         O            0.833187407497    -0.225333938957    -0.199999787559    15.994914619570
         C           -1.385595592503     0.498110061043     0.163837212441    12.000000000000
         C            0.059987407497     0.873011061043     0.298312212441    12.000000000000
         C           -4.108373592503    -0.219635938957    -0.050341787559    12.000000000000
         C           -1.861621592503    -0.671539938957     0.769249212441    12.000000000000
         C           -2.277265592503     1.300658061043    -0.551808787559    12.000000000000
         C           -3.204480592503    -1.023591938957     0.659610212441    12.000000000000
         C           -3.693740392503     0.781137061043    -0.564660187559    12.000000000000
         C            2.199693407497    -0.115220938957    -0.106721787559    12.000000000000
         C           -5.567896592503    -0.585446938957    -0.127830787559    12.000000000000
         C            2.881726407497     1.006818061043     0.376252212441    12.000000000000
         C            2.914865407497    -1.237860938957    -0.546068787559    12.000000000000
         C            4.280867407497     0.990323061043     0.416247212441    12.000000000000
         C            4.304730407497    -1.237889938957    -0.501233787559    12.000000000000
         C            4.997738407497    -0.122381938957    -0.017617787559    12.000000000000
         H            0.277989407497     1.786064061043    -0.273008787559     1.007825032230
         H            0.322751407497     1.056956061043     1.350222212441     1.007825032230
         H           -1.169791592503    -1.312439938957     1.311834212441     1.007825032230
         H           -1.917883592503     2.204644061043    -1.041095787559     1.007825032230
         H           -3.559065592503    -1.940262938957     1.128748212441     1.007825032230
         H           -4.305690592503     1.582493061043    -1.215469787559     1.007825032230
         H           -6.036228592503    -0.148792938957    -1.014384787559     1.007825032230
         H           -5.699751592503    -1.670333938957    -0.173512787559     1.007825032230
         H           -6.113541592503    -0.222316938957     0.750030212441     1.007825032230
         H            2.350343407497     1.889410061043     0.715505212441     1.007825032230
         H            2.355593407497    -2.092409938957    -0.917155787559     1.007825032230
         H            4.807553407497     1.864411061043     0.792461212441     1.007825032230
         H            4.850197407497    -2.113856938957    -0.844369787559     1.007825032230
         H            6.083817407497    -0.123183938957     0.017882212441     1.007825032230

  Basis Set: AUG-CC-PVTZ
    Blend: AUG-CC-PVTZ
  Basis Set: (AUG-CC-PVTZ AUX)
    Blend: AUG-CC-PVTZ-JKFIT
	 Reference Energy          =    -613.3108397214217575 [Eh]
	 Singles Energy            =      -0.0000000000000000 [Eh]
	 Same-Spin Energy          =      -0.6717398498486052 [Eh]
	 Opposite-Spin Energy      =      -2.1178211930442004 [Eh]
	 Correlation Energy        =      -2.7895610428928057 [Eh]
	 Total Energy              =    -616.1004007643145997 [Eh]

	 ================> DF-SCS-MP2 Energies <==================
	-----------------------------------------------------------
	 SCS Same-Spin Scale       =       0.3333333333333333 [-]
	 SCS Opposite-Spin Scale   =       1.2000000000000000 [-]
	 SCS Same-Spin Energy      =      -0.2239132832828684 [Eh]
	 SCS Opposite-Spin Energy  =      -2.5413854316530404 [Eh]
	 SCS Correlation Energy    =      -2.7652987149359087 [Eh]
	 SCS Total Energy          =    -616.0761384363576099 [Eh]
	-----------------------------------------------------------

  Dipole Moment: [D]
     X:    -0.7996      Y:     0.7280      Z:     0.5056     Total:     1.1938

*** Psi4 exiting successfully. Buy a developer a beer!
