                               Psi4 1.4a3.dev225

  ==> Input File <==

--------------------------------------------------------------------------
#psi4
#
memory 32 gb

molecule  {
0 1
  O        0.8655410    -0.2383350    -0.1978900
  C       -1.3532420     0.4851090     0.1659470
  C        0.0923410     0.8600100     0.3004220
  C       -4.0760200    -0.2326370    -0.0482320
  C       -1.8292680    -0.6845410     0.7713590
  C       -2.2449120     1.2876570    -0.5496990
  C       -3.1721270    -1.0365930     0.6617200
  C       -3.5922330     0.9350480    -0.6483300
  C        2.2320470    -0.1282220    -0.1046120
  C       -5.5355430    -0.5984480    -0.1257210
  C        2.9140800     0.9938170     0.3783620
  C        2.9472190    -1.2508620    -0.5439590
  C        4.3132210     0.9773220     0.4183570
  C        4.5369800    -1.2508952    -0.4926756
  C        5.0300920    -0.1353830    -0.0155080
  H        0.3103430     1.7730630    -0.2708990
  H        0.3551050     1.0439550     1.3523320
  H       -1.1374380    -1.3254410     1.3139440
  H       -1.8855300     2.1916430    -1.0389860
  H       -3.5267120    -1.9532640     1.1308580
  H       -4.2733370     1.5694920    -1.2133600
  H       -6.0038750    -0.1617940    -1.0122750
  H       -5.6673980    -1.6833350    -0.1714030
  H       -6.0811880    -0.2353180     0.7521400
  H        2.3826970     1.8764090     0.7176150
  H        2.3879470    -2.1054110    -0.9150460
  H        4.8399070     1.8514100     0.7945710
  H        4.8825510    -2.1268580    -0.8422600
  H        6.1161710    -0.1361850     0.0199920
units angstrom
no_reorient  #important for SAPT in psi4, default
symmetry c1  #important for SAPT in psi4, default
}

set PROPERTIES_ORIGIN ["COM"]
properties('MP2/aug-cc-pvtz', properties = ['dipole'])
--------------------------------------------------------------------------

    Molecular point group: c1
  Charge       = 0
  Multiplicity = 1
  Basis Set: AUG-CC-PVTZ
    Blend: AUG-CC-PVTZ
  Basis Set: (AUG-CC-PVTZ AUX)
    Blend: AUG-CC-PVTZ-JKFIT

    Orbital Energies [Eh]
    ---------------------

    Doubly Occupied:

       1A    -20.580448     2A    -11.297406     3A    -11.292712
       4A    -11.243838     5A    -11.243398     6A    -11.241678
       7A    -11.240287     8A    -11.238839     9A    -11.238667
      10A    -11.237110    11A    -11.234438    12A    -11.231833
      13A    -11.231633    14A    -11.225539    15A    -11.222981
      16A     -1.402339    17A     -1.157836    18A     -1.139598
      19A     -1.067585    20A     -1.023893    21A     -1.012533
      22A     -1.002498    23A     -0.959915    24A     -0.897212
      25A     -0.844552    26A     -0.831728    27A     -0.802641
      28A     -0.783170    29A     -0.722955    30A     -0.682173
      31A     -0.669821    32A     -0.667943    33A     -0.653958
      34A     -0.634915    35A     -0.619353    36A     -0.612992
      37A     -0.585935    38A     -0.583001    39A     -0.576412
      40A     -0.560228    41A     -0.542373    42A     -0.539857
      43A     -0.520992    44A     -0.500215    45A     -0.488335
      46A     -0.485493    47A     -0.481225    48A     -0.467923
      49A     -0.465576    50A     -0.339789    51A     -0.336032
      52A     -0.322003    53A     -0.307872

  @DF-RHF Final Energy:  -613.32862541251370

   => Energetics <=

    Nuclear Repulsion Energy =            868.3320635429264485
    One-Electron Energy =               -2554.7340216467696337
    Two-Electron Energy =                1073.0733326913295969
    Total Energy =                       -613.3286254125137020
  Basis Set: (AUG-CC-PVTZ AUX)
    Blend: AUG-CC-PVTZ-RI
    Molecular point group: c1

    Geometry (in Angstrom), charge = 0, multiplicity = 1:

       Center              X                  Y                   Z               Mass
    ------------   -----------------  -----------------  -----------------  -----------------
         O            0.816889957569    -0.235444228997    -0.195194371388    15.994914619570
         C           -1.401893042431     0.487999771003     0.168642628612    12.000000000000
         C            0.043689957569     0.862900771003     0.303117628612    12.000000000000
         C           -4.124671042431    -0.229746228997    -0.045536371388    12.000000000000
         C           -1.877919042431    -0.681650228997     0.774054628612    12.000000000000
         C           -2.293563042431     1.290547771003    -0.547003371388    12.000000000000
         C           -3.220778042431    -1.033702228997     0.664415628612    12.000000000000
         C           -3.640884042431     0.937938771003    -0.645634371388    12.000000000000
         C            2.183395957569    -0.125331228997    -0.101916371388    12.000000000000
         C           -5.584194042431    -0.595557228997    -0.123025371388    12.000000000000
         C            2.865428957569     0.996707771003     0.381057628612    12.000000000000
         C            2.898567957569    -1.247971228997    -0.541263371388    12.000000000000
         C            4.264569957569     0.980212771003     0.421052628612    12.000000000000
         C            4.488328957569    -1.248004428997    -0.489979971388    12.000000000000
         C            4.981440957569    -0.132492228997    -0.012812371388    12.000000000000
         H            0.261691957569     1.775953771003    -0.268203371388     1.007825032230
         H            0.306453957569     1.046845771003     1.355027628612     1.007825032230
         H           -1.186089042431    -1.322550228997     1.316639628612     1.007825032230
         H           -1.934181042431     2.194533771003    -1.036290371388     1.007825032230
         H           -3.575363042431    -1.950373228997     1.133553628612     1.007825032230
         H           -4.321988042431     1.572382771003    -1.210664371388     1.007825032230
         H           -6.052526042431    -0.158903228997    -1.009579371388     1.007825032230
         H           -5.716049042431    -1.680444228997    -0.168707371388     1.007825032230
         H           -6.129839042431    -0.232427228997     0.754835628612     1.007825032230
         H            2.334045957569     1.879299771003     0.720310628612     1.007825032230
         H            2.339295957569    -2.102520228997    -0.912350371388     1.007825032230
         H            4.791255957569     1.854300771003     0.797266628612     1.007825032230
         H            4.833899957569    -2.123967228997    -0.839564371388     1.007825032230
         H            6.067519957569    -0.133294228997     0.022687628612     1.007825032230

  Basis Set: AUG-CC-PVTZ
    Blend: AUG-CC-PVTZ
  Basis Set: (AUG-CC-PVTZ AUX)
    Blend: AUG-CC-PVTZ-JKFIT
	 Reference Energy          =    -613.3286254125137020 [Eh]
	 Singles Energy            =      -0.0000000000000000 [Eh]
	 Same-Spin Energy          =      -0.6728389970490375 [Eh]
	 Opposite-Spin Energy      =      -2.1196398537317478 [Eh]
	 Correlation Energy        =      -2.7924788507807854 [Eh]
	 Total Energy              =    -616.1211042632944554 [Eh]

	 ================> DF-SCS-MP2 Energies <==================
	-----------------------------------------------------------
	 SCS Same-Spin Scale       =       0.3333333333333333 [-]
	 SCS Opposite-Spin Scale   =       1.2000000000000000 [-]
	 SCS Same-Spin Energy      =      -0.2242796656830125 [Eh]
	 SCS Opposite-Spin Energy  =      -2.5435678244780973 [Eh]
	 SCS Correlation Energy    =      -2.7678474901611096 [Eh]
	 SCS Total Energy          =    -616.0964729026748046 [Eh]
	-----------------------------------------------------------

  Dipole Moment: [D]
     X:    -0.8973      Y:     0.7710      Z:     0.4923     Total:     1.2814

*** Psi4 exiting successfully. Buy a developer a beer!
