                               Psi4 1.4a3.dev225

  ==> Input File <==

--------------------------------------------------------------------------
#psi4
#
memory 32 gb

molecule  {
0 1
  O        0.8655410    -0.2383350    -0.1978900
  C       -1.3532420     0.4851090     0.1659470
  C        0.0923410     0.8600100     0.3004220
  C       -4.0760200    -0.2326370    -0.0482320
  C       -1.8292680    -0.6845410     0.7713590
  C       -2.2449120     1.2876570    -0.5496990
  C       -3.1721270    -1.0365930     0.6617200
  C       -3.5922330     0.9350480    -0.6483300
  C        2.2320470    -0.1282220    -0.1046120
  C       -5.5355430    -0.5984480    -0.1257210
  C        2.9140800     0.9938170     0.3783620
  C        2.9472190    -1.2508620    -0.5439590
  C        4.3132210     0.9773220     0.4183570
  C        4.3370840    -1.2508910    -0.4991240
  C        5.0300920    -0.1353830    -0.0155080
  H        0.3103430     1.7730630    -0.2708990
  H        0.3551050     1.0439550     1.3523320
  H       -1.1374380    -1.3254410     1.3139440
  H       -1.8855300     2.1916430    -1.0389860
  H       -3.5267120    -1.9532640     1.1308580
  H       -4.2733370     1.5694920    -1.2133600
  H       -6.0038750    -0.1617940    -1.0122750
  H       -5.6673980    -1.6833350    -0.1714030
  H       -6.0811880    -0.2353180     0.7521400
  H        2.3728986     1.8926835     0.7238706
  H        2.3879470    -2.1054110    -0.9150460
  H        4.8399070     1.8514100     0.7945710
  H        4.8825510    -2.1268580    -0.8422600
  H        6.1161710    -0.1361850     0.0199920
units angstrom
no_reorient  #important for SAPT in psi4, default
symmetry c1  #important for SAPT in psi4, default
}

set PROPERTIES_ORIGIN ["COM"]
properties('MP2/aug-cc-pvtz', properties = ['dipole'])
--------------------------------------------------------------------------

    Molecular point group: c1
  Charge       = 0
  Multiplicity = 1
  Basis Set: AUG-CC-PVTZ
    Blend: AUG-CC-PVTZ
  Basis Set: (AUG-CC-PVTZ AUX)
    Blend: AUG-CC-PVTZ-JKFIT

    Orbital Energies [Eh]
    ---------------------

    Doubly Occupied:

       1A    -20.583912     2A    -11.301222     3A    -11.293084
       4A    -11.243805     5A    -11.241155     6A    -11.239473
       7A    -11.239057     8A    -11.237509     9A    -11.235228
      10A    -11.234921    11A    -11.232232    12A    -11.232070
      13A    -11.227834    14A    -11.227399    15A    -11.225847
      16A     -1.404860    17A     -1.158804    18A     -1.143741
      19A     -1.066994    20A     -1.017388    21A     -1.013357
      22A     -1.008122    23A     -0.963996    24A     -0.899397
      25A     -0.832944    26A     -0.830955    27A     -0.808629
      28A     -0.782285    29A     -0.720628    30A     -0.683795
      31A     -0.670403    32A     -0.662696    33A     -0.643626
      34A     -0.630794    35A     -0.620496    36A     -0.608675
      37A     -0.586094    38A     -0.583521    39A     -0.576949
      40A     -0.563680    41A     -0.543324    42A     -0.531834
      43A     -0.522862    44A     -0.513791    45A     -0.491190
      46A     -0.486594    47A     -0.485048    48A     -0.478362
      49A     -0.464249    50A     -0.340037    51A     -0.336721
      52A     -0.322207    53A     -0.312430

  @DF-RHF Final Energy:  -613.37090765726737

   => Energetics <=

    Nuclear Repulsion Energy =            870.6516768256047953
    One-Electron Energy =               -2559.4327115256169236
    Two-Electron Energy =                1075.4101270427449890
    Total Energy =                       -613.3709076572672529
  Basis Set: (AUG-CC-PVTZ AUX)
    Blend: AUG-CC-PVTZ-RI
    Molecular point group: c1

    Geometry (in Angstrom), charge = 0, multiplicity = 1:

       Center              X                  Y                   Z               Mass
    ------------   -----------------  -----------------  -----------------  -----------------
         O            0.829048325993    -0.235527277344    -0.194835589724    15.994914619570
         C           -1.389734674007     0.487916722656     0.169001410276    12.000000000000
         C            0.055848325993     0.862817722656     0.303476410276    12.000000000000
         C           -4.112512674007    -0.229829277344    -0.045177589724    12.000000000000
         C           -1.865760674007    -0.681733277344     0.774413410276    12.000000000000
         C           -2.281404674007     1.290464722656    -0.546644589724    12.000000000000
         C           -3.208619674007    -1.033785277344     0.664774410276    12.000000000000
         C           -3.628725674007     0.937855722656    -0.645275589724    12.000000000000
         C            2.195554325993    -0.125414277344    -0.101557589724    12.000000000000
         C           -5.572035674007    -0.595640277344    -0.122666589724    12.000000000000
         C            2.877587325993     0.996624722656     0.381416410276    12.000000000000
         C            2.910726325993    -1.248054277344    -0.540904589724    12.000000000000
         C            4.276728325993     0.980129722656     0.421411410276    12.000000000000
         C            4.300591325993    -1.248083277344    -0.496069589724    12.000000000000
         C            4.993599325993    -0.132575277344    -0.012453589724    12.000000000000
         H            0.273850325993     1.775870722656    -0.267844589724     1.007825032230
         H            0.318612325993     1.046762722656     1.355386410276     1.007825032230
         H           -1.173930674007    -1.322633277344     1.316998410276     1.007825032230
         H           -1.922022674007     2.194450722656    -1.035931589724     1.007825032230
         H           -3.563204674007    -1.950456277344     1.133912410276     1.007825032230
         H           -4.309829674007     1.572299722656    -1.210305589724     1.007825032230
         H           -6.040367674007    -0.158986277344    -1.009220589724     1.007825032230
         H           -5.703890674007    -1.680527277344    -0.168348589724     1.007825032230
         H           -6.117680674007    -0.232510277344     0.755194410276     1.007825032230
         H            2.336405925993     1.895491222656     0.726925010276     1.007825032230
         H            2.351454325993    -2.102603277344    -0.911991589724     1.007825032230
         H            4.803414325993     1.854217722656     0.797625410276     1.007825032230
         H            4.846058325993    -2.124050277344    -0.839205589724     1.007825032230
         H            6.079678325993    -0.133377277344     0.023046410276     1.007825032230

  Basis Set: AUG-CC-PVTZ
    Blend: AUG-CC-PVTZ
  Basis Set: (AUG-CC-PVTZ AUX)
    Blend: AUG-CC-PVTZ-JKFIT
	 Reference Energy          =    -613.3709076572673666 [Eh]
	 Singles Energy            =      -0.0000000000000000 [Eh]
	 Same-Spin Energy          =      -0.6727140610080381 [Eh]
	 Opposite-Spin Energy      =      -2.1166893061787300 [Eh]
	 Correlation Energy        =      -2.7894033671867682 [Eh]
	 Total Energy              =    -616.1603110244541313 [Eh]

	 ================> DF-SCS-MP2 Energies <==================
	-----------------------------------------------------------
	 SCS Same-Spin Scale       =       0.3333333333333333 [-]
	 SCS Opposite-Spin Scale   =       1.2000000000000000 [-]
	 SCS Same-Spin Energy      =      -0.2242380203360127 [Eh]
	 SCS Opposite-Spin Energy  =      -2.5400271674144759 [Eh]
	 SCS Correlation Energy    =      -2.7642651877504885 [Eh]
	 SCS Total Energy          =    -616.1351728450179053 [Eh]
	-----------------------------------------------------------

  Dipole Moment: [D]
     X:    -0.9973      Y:     0.7283      Z:     0.4702     Total:     1.3214

*** Psi4 exiting successfully. Buy a developer a beer!
