                               Psi4 1.4a3.dev225

  ==> Input File <==

--------------------------------------------------------------------------
#psi4
#
memory 32 gb

molecule  {
0 1
  O        0.8655410    -0.2383350    -0.1978900
  C       -1.3532420     0.4851090     0.1659470
  C        0.0923410     0.8600100     0.3004220
  C       -4.0784938    -0.2189808    -0.0705672
  C       -1.8292680    -0.6845410     0.7713590
  C       -2.2449120     1.2876570    -0.5496990
  C       -3.1721270    -1.0365930     0.6617200
  C       -3.5922330     0.9350480    -0.6483300
  C        2.2320470    -0.1282220    -0.1046120
  C       -5.5355430    -0.5984480    -0.1257210
  C        2.9140800     0.9938170     0.3783620
  C        2.9472190    -1.2508620    -0.5439590
  C        4.3132210     0.9773220     0.4183570
  C        4.3370840    -1.2508910    -0.4991240
  C        5.0300920    -0.1353830    -0.0155080
  H        0.3103430     1.7730630    -0.2708990
  H        0.3551050     1.0439550     1.3523320
  H       -1.1374380    -1.3254410     1.3139440
  H       -1.8855300     2.1916430    -1.0389860
  H       -3.5267120    -1.9532640     1.1308580
  H       -4.2733370     1.5694920    -1.2133600
  H       -6.0038750    -0.1617940    -1.0122750
  H       -5.6673980    -1.6833350    -0.1714030
  H       -6.0811880    -0.2353180     0.7521400
  H        2.3826970     1.8764090     0.7176150
  H        2.3879470    -2.1054110    -0.9150460
  H        4.8399070     1.8514100     0.7945710
  H        4.8825510    -2.1268580    -0.8422600
  H        6.1161710    -0.1361850     0.0199920
units angstrom
no_reorient  #important for SAPT in psi4, default
symmetry c1  #important for SAPT in psi4, default
}

set PROPERTIES_ORIGIN ["COM"]
properties('MP2/aug-cc-pvtz', properties = ['dipole'])
--------------------------------------------------------------------------

    Molecular point group: c1
  Charge       = 0
  Multiplicity = 1
  Basis Set: AUG-CC-PVTZ
    Blend: AUG-CC-PVTZ
  Basis Set: (AUG-CC-PVTZ AUX)
    Blend: AUG-CC-PVTZ-JKFIT

    Orbital Energies [Eh]
    ---------------------

    Doubly Occupied:

       1A    -20.583954     2A    -11.301063     3A    -11.293239
       4A    -11.243713     5A    -11.240983     6A    -11.239417
       7A    -11.239299     8A    -11.237650     9A    -11.235153
      10A    -11.233896    11A    -11.232976    12A    -11.230105
      13A    -11.227705    14A    -11.227281    15A    -11.225890
      16A     -1.404924    17A     -1.158878    18A     -1.143763
      19A     -1.067145    20A     -1.017749    21A     -1.013170
      22A     -1.008517    23A     -0.964113    24A     -0.899610
      25A     -0.833788    26A     -0.830370    27A     -0.809413
      28A     -0.782046    29A     -0.721176    30A     -0.684017
      31A     -0.670537    32A     -0.663710    33A     -0.643798
      34A     -0.630998    35A     -0.620633    36A     -0.609350
      37A     -0.586827    38A     -0.583641    39A     -0.576973
      40A     -0.563811    41A     -0.543352    42A     -0.531826
      43A     -0.523416    44A     -0.513713    45A     -0.493120
      46A     -0.486029    47A     -0.482899    48A     -0.479405
      49A     -0.464145    50A     -0.339963    51A     -0.336900
      52A     -0.322451    53A     -0.312366

  @DF-RHF Final Energy:  -613.37090886712872

   => Energetics <=

    Nuclear Repulsion Energy =            870.7306542674159573
    One-Electron Energy =               -2559.5813970896665523
    Two-Electron Energy =                1075.4798339551218760
    Total Energy =                       -613.3709088671287191
  Basis Set: (AUG-CC-PVTZ AUX)
    Blend: AUG-CC-PVTZ-RI
    Molecular point group: c1

    Geometry (in Angstrom), charge = 0, multiplicity = 1:

       Center              X                  Y                   Z               Mass
    ------------   -----------------  -----------------  -----------------  -----------------
         O            0.829148326401    -0.236271695454    -0.193450830676    15.994914619570
         C           -1.389634673599     0.487172304546     0.170386169324    12.000000000000
         C            0.055948326401     0.862073304546     0.304861169324    12.000000000000
         C           -4.114886473599    -0.216917495454    -0.066128030676    12.000000000000
         C           -1.865660673599    -0.682477695454     0.775798169324    12.000000000000
         C           -2.281304673599     1.289720304546    -0.545259830676    12.000000000000
         C           -3.208519673599    -1.034529695454     0.666159169324    12.000000000000
         C           -3.628625673599     0.937111304546    -0.643890830676    12.000000000000
         C            2.195654326401    -0.126158695454    -0.100172830676    12.000000000000
         C           -5.571935673599    -0.596384695454    -0.121281830676    12.000000000000
         C            2.877687326401     0.995880304546     0.382801169324    12.000000000000
         C            2.910826326401    -1.248798695454    -0.539519830676    12.000000000000
         C            4.276828326401     0.979385304546     0.422796169324    12.000000000000
         C            4.300691326401    -1.248827695454    -0.494684830676    12.000000000000
         C            4.993699326401    -0.133319695454    -0.011068830676    12.000000000000
         H            0.273950326401     1.775126304546    -0.266459830676     1.007825032230
         H            0.318712326401     1.046018304546     1.356771169324     1.007825032230
         H           -1.173830673599    -1.323377695454     1.318383169324     1.007825032230
         H           -1.921922673599     2.193706304546    -1.034546830676     1.007825032230
         H           -3.563104673599    -1.951200695454     1.135297169324     1.007825032230
         H           -4.309729673599     1.571555304546    -1.208920830676     1.007825032230
         H           -6.040267673599    -0.159730695454    -1.007835830676     1.007825032230
         H           -5.703790673599    -1.681271695454    -0.166963830676     1.007825032230
         H           -6.117580673599    -0.233254695454     0.756579169324     1.007825032230
         H            2.346304326401     1.878472304546     0.722054169324     1.007825032230
         H            2.351554326401    -2.103347695454    -0.910606830676     1.007825032230
         H            4.803514326401     1.853473304546     0.799010169324     1.007825032230
         H            4.846158326401    -2.124794695454    -0.837820830676     1.007825032230
         H            6.079778326401    -0.134121695454     0.024431169324     1.007825032230

  Basis Set: AUG-CC-PVTZ
    Blend: AUG-CC-PVTZ
  Basis Set: (AUG-CC-PVTZ AUX)
    Blend: AUG-CC-PVTZ-JKFIT
	 Reference Energy          =    -613.3709088671287191 [Eh]
	 Singles Energy            =      -0.0000000000000000 [Eh]
	 Same-Spin Energy          =      -0.6725697229685837 [Eh]
	 Opposite-Spin Energy      =      -2.1165201892146719 [Eh]
	 Correlation Energy        =      -2.7890899121832557 [Eh]
	 Total Energy              =    -616.1599987793119908 [Eh]

	 ================> DF-SCS-MP2 Energies <==================
	-----------------------------------------------------------
	 SCS Same-Spin Scale       =       0.3333333333333333 [-]
	 SCS Opposite-Spin Scale   =       1.2000000000000000 [-]
	 SCS Same-Spin Energy      =      -0.2241899076561946 [Eh]
	 SCS Opposite-Spin Energy  =      -2.5398242270576064 [Eh]
	 SCS Correlation Energy    =      -2.7640141347138010 [Eh]
	 SCS Total Energy          =    -616.1349230018424805 [Eh]
	-----------------------------------------------------------

  Dipole Moment: [D]
     X:    -0.9979      Y:     0.7285      Z:     0.4797     Total:     1.3254

*** Psi4 exiting successfully. Buy a developer a beer!
