                               Psi4 1.4a3.dev225

  ==> Input File <==

--------------------------------------------------------------------------
#psi4
#
memory 32 gb

molecule  {
0 1
  O        0.8655410    -0.2383350    -0.1978900
  C       -1.3532420     0.4851090     0.1659470
  C        0.0923410     0.8600100     0.3004220
  C       -4.0760200    -0.2326370    -0.0482320
  C       -1.8292680    -0.6845410     0.7713590
  C       -2.2449120     1.2876570    -0.5496990
  C       -3.1721270    -1.0365930     0.6617200
  C       -3.5991484     0.9183568    -0.6397520
  C        2.2320470    -0.1282220    -0.1046120
  C       -5.5355430    -0.5984480    -0.1257210
  C        2.9140800     0.9938170     0.3783620
  C        2.9472190    -1.2508620    -0.5439590
  C        4.3132210     0.9773220     0.4183570
  C        4.3370840    -1.2508910    -0.4991240
  C        5.0300920    -0.1353830    -0.0155080
  H        0.3103430     1.7730630    -0.2708990
  H        0.3551050     1.0439550     1.3523320
  H       -1.1374380    -1.3254410     1.3139440
  H       -1.8855300     2.1916430    -1.0389860
  H       -3.5267120    -1.9532640     1.1308580
  H       -4.2733370     1.5694920    -1.2133600
  H       -6.0038750    -0.1617940    -1.0122750
  H       -5.6673980    -1.6833350    -0.1714030
  H       -6.0811880    -0.2353180     0.7521400
  H        2.3826970     1.8764090     0.7176150
  H        2.3879470    -2.1054110    -0.9150460
  H        4.8399070     1.8514100     0.7945710
  H        4.8825510    -2.1268580    -0.8422600
  H        6.1161710    -0.1361850     0.0199920
units angstrom
no_reorient  #important for SAPT in psi4, default
symmetry c1  #important for SAPT in psi4, default
}

set PROPERTIES_ORIGIN ["COM"]
properties('MP2/aug-cc-pvtz', properties = ['dipole'])
--------------------------------------------------------------------------

    Molecular point group: c1
  Charge       = 0
  Multiplicity = 1
  Basis Set: AUG-CC-PVTZ
    Blend: AUG-CC-PVTZ
  Basis Set: (AUG-CC-PVTZ AUX)
    Blend: AUG-CC-PVTZ-JKFIT

    Orbital Energies [Eh]
    ---------------------

    Doubly Occupied:

       1A    -20.584011     2A    -11.301097     3A    -11.293246
       4A    -11.241441     5A    -11.241017     6A    -11.239522
       7A    -11.239449     8A    -11.238288     9A    -11.234819
      10A    -11.233014    11A    -11.232387    12A    -11.231920
      13A    -11.227739    14A    -11.227313    15A    -11.225597
      16A     -1.404969    17A     -1.159778    18A     -1.143965
      19A     -1.068385    20A     -1.017794    21A     -1.011840
      22A     -1.008537    23A     -0.963806    24A     -0.900414
      25A     -0.834005    26A     -0.831340    27A     -0.809266
      28A     -0.781709    29A     -0.721248    30A     -0.683648
      31A     -0.670691    32A     -0.663757    33A     -0.643945
      34A     -0.630901    35A     -0.620423    36A     -0.609436
      37A     -0.586832    38A     -0.582135    39A     -0.577253
      40A     -0.564473    41A     -0.542398    42A     -0.532193
      43A     -0.523228    44A     -0.514079    45A     -0.492095
      46A     -0.486702    47A     -0.484481    48A     -0.478824
      49A     -0.464228    50A     -0.340012    51A     -0.335377
      52A     -0.324582    53A     -0.312394

  @DF-RHF Final Energy:  -613.37126522262452

   => Energetics <=

    Nuclear Repulsion Energy =            870.9381605505778907
    One-Electron Energy =               -2559.9948480042294250
    Two-Electron Energy =                1075.6854222310271325
    Total Energy =                       -613.3712652226245154
  Basis Set: (AUG-CC-PVTZ AUX)
    Blend: AUG-CC-PVTZ-RI
    Molecular point group: c1

    Geometry (in Angstrom), charge = 0, multiplicity = 1:

       Center              X                  Y                   Z               Mass
    ------------   -----------------  -----------------  -----------------  -----------------
         O            0.829417372330    -0.234433428963    -0.195323369995    15.994914619570
         C           -1.389365627670     0.489010571037     0.168513630005    12.000000000000
         C            0.056217372330     0.863911571037     0.302988630005    12.000000000000
         C           -4.112143627670    -0.228735428963    -0.045665369995    12.000000000000
         C           -1.865391627670    -0.680639428963     0.773925630005    12.000000000000
         C           -2.281035627670     1.291558571037    -0.547132369995    12.000000000000
         C           -3.208250627670    -1.032691428963     0.664286630005    12.000000000000
         C           -3.635272027670     0.922258371037    -0.637185369995    12.000000000000
         C            2.195923372330    -0.124320428963    -0.102045369995    12.000000000000
         C           -5.571666627670    -0.594546428963    -0.123154369995    12.000000000000
         C            2.877956372330     0.997718571037     0.380928630005    12.000000000000
         C            2.911095372330    -1.246960428963    -0.541392369995    12.000000000000
         C            4.277097372330     0.981223571037     0.420923630005    12.000000000000
         C            4.300960372330    -1.246989428963    -0.496557369995    12.000000000000
         C            4.993968372330    -0.131481428963    -0.012941369995    12.000000000000
         H            0.274219372330     1.776964571037    -0.268332369995     1.007825032230
         H            0.318981372330     1.047856571037     1.354898630005     1.007825032230
         H           -1.173561627670    -1.321539428963     1.316510630005     1.007825032230
         H           -1.921653627670     2.195544571037    -1.036419369995     1.007825032230
         H           -3.562835627670    -1.949362428963     1.133424630005     1.007825032230
         H           -4.309460627670     1.573393571037    -1.210793369995     1.007825032230
         H           -6.039998627670    -0.157892428963    -1.009708369995     1.007825032230
         H           -5.703521627670    -1.679433428963    -0.168836369995     1.007825032230
         H           -6.117311627670    -0.231416428963     0.754706630005     1.007825032230
         H            2.346573372330     1.880310571037     0.720181630005     1.007825032230
         H            2.351823372330    -2.101509428963    -0.912479369995     1.007825032230
         H            4.803783372330     1.855311571037     0.797137630005     1.007825032230
         H            4.846427372330    -2.122956428963    -0.839693369995     1.007825032230
         H            6.080047372330    -0.132283428963     0.022558630005     1.007825032230

  Basis Set: AUG-CC-PVTZ
    Blend: AUG-CC-PVTZ
  Basis Set: (AUG-CC-PVTZ AUX)
    Blend: AUG-CC-PVTZ-JKFIT
	 Reference Energy          =    -613.3712652226245154 [Eh]
	 Singles Energy            =      -0.0000000000000000 [Eh]
	 Same-Spin Energy          =      -0.6726051573234879 [Eh]
	 Opposite-Spin Energy      =      -2.1164765624027724 [Eh]
	 Correlation Energy        =      -2.7890817197262603 [Eh]
	 Total Energy              =    -616.1603469423507704 [Eh]

	 ================> DF-SCS-MP2 Energies <==================
	-----------------------------------------------------------
	 SCS Same-Spin Scale       =       0.3333333333333333 [-]
	 SCS Opposite-Spin Scale   =       1.2000000000000000 [-]
	 SCS Same-Spin Energy      =      -0.2242017191078293 [Eh]
	 SCS Opposite-Spin Energy  =      -2.5397718748833267 [Eh]
	 SCS Correlation Energy    =      -2.7639735939911558 [Eh]
	 SCS Total Energy          =    -616.1352388166156970 [Eh]
	-----------------------------------------------------------

  Dipole Moment: [D]
     X:    -0.9866      Y:     0.7335      Z:     0.4727     Total:     1.3172

*** Psi4 exiting successfully. Buy a developer a beer!
