                               Psi4 1.4a3.dev225

  ==> Input File <==

--------------------------------------------------------------------------
#psi4
#
memory 32 gb

molecule  {
0 1
  O        0.8655410    -0.2383350    -0.1978900
  C       -1.3532420     0.4851090     0.1659470
  C        0.0923410     0.8600100     0.3004220
  C       -4.0760200    -0.2326370    -0.0482320
  C       -1.8292680    -0.6845410     0.7713590
  C       -2.2449120     1.2876570    -0.5496990
  C       -3.1721270    -1.0365930     0.6617200
  C       -3.5922330     0.9350480    -0.6483300
  C        2.2320470    -0.1282220    -0.1046120
  C       -5.5355430    -0.5984480    -0.1257210
  C        2.9140800     0.9938170     0.3783620
  C        2.9472190    -1.2508620    -0.5439590
  C        4.3132210     0.9773220     0.4183570
  C        4.3370840    -1.2508910    -0.4991240
  C        5.0300920    -0.1353830    -0.0155080
  H        0.3103430     1.7730630    -0.2708990
  H        0.3551050     1.0439550     1.3523320
  H       -1.1374380    -1.3254410     1.3139440
  H       -1.8855300     2.1916430    -1.0389860
  H       -3.5267120    -1.9532640     1.1308580
  H       -4.2733370     1.5694920    -1.2133600
  H       -6.0038750    -0.1617940    -1.0122750
  H       -5.6673980    -1.6833350    -0.1714030
  H       -6.0712269    -0.2419472     0.7361141
  H        2.3826970     1.8764090     0.7176150
  H        2.3879470    -2.1054110    -0.9150460
  H        4.8399070     1.8514100     0.7945710
  H        4.8825510    -2.1268580    -0.8422600
  H        6.1161710    -0.1361850     0.0199920
units angstrom
no_reorient  #important for SAPT in psi4, default
symmetry c1  #important for SAPT in psi4, default
}

set PROPERTIES_ORIGIN ["COM"]
properties('MP2/aug-cc-pvtz', properties = ['dipole'])
--------------------------------------------------------------------------

    Molecular point group: c1
  Charge       = 0
  Multiplicity = 1
  Basis Set: AUG-CC-PVTZ
    Blend: AUG-CC-PVTZ
  Basis Set: (AUG-CC-PVTZ AUX)
    Blend: AUG-CC-PVTZ-JKFIT

    Orbital Energies [Eh]
    ---------------------

    Doubly Occupied:

       1A    -20.583863     2A    -11.300992     3A    -11.293132
       4A    -11.243705     5A    -11.240939     6A    -11.239374
       7A    -11.239032     8A    -11.237490     9A    -11.234906
      10A    -11.232922    11A    -11.232165    12A    -11.232017
      13A    -11.227655    14A    -11.227236    15A    -11.223448
      16A     -1.404824    17A     -1.158795    18A     -1.143707
      19A     -1.067210    20A     -1.017747    21A     -1.013352
      22A     -1.008447    23A     -0.964743    24A     -0.900252
      25A     -0.832941    26A     -0.831402    27A     -0.808947
      28A     -0.782526    29A     -0.721126    30A     -0.684052
      31A     -0.670479    32A     -0.663653    33A     -0.643850
      34A     -0.630986    35A     -0.620456    36A     -0.609373
      37A     -0.586805    38A     -0.583488    39A     -0.580356
      40A     -0.563923    41A     -0.543195    42A     -0.531876
      43A     -0.522795    44A     -0.514005    45A     -0.491492
      46A     -0.486529    47A     -0.485171    48A     -0.478860
      49A     -0.464225    50A     -0.339921    51A     -0.336693
      52A     -0.322329    53A     -0.312292

  @DF-RHF Final Energy:  -613.37161552433918

   => Energetics <=

    Nuclear Repulsion Energy =            870.8342433806484451
    One-Electron Energy =               -2559.7883215819915677
    Two-Electron Energy =                1075.5824626770040595
    Total Energy =                       -613.3716155243391768
  Basis Set: (AUG-CC-PVTZ AUX)
    Blend: AUG-CC-PVTZ-RI
    Molecular point group: c1

    Geometry (in Angstrom), charge = 0, multiplicity = 1:

       Center              X                  Y                   Z               Mass
    ------------   -----------------  -----------------  -----------------  -----------------
         O            0.828947802672    -0.235410758405    -0.194722236128    15.994914619570
         C           -1.389835197328     0.488033241595     0.169114763872    12.000000000000
         C            0.055747802672     0.862934241595     0.303589763872    12.000000000000
         C           -4.112613197328    -0.229712758405    -0.045064236128    12.000000000000
         C           -1.865861197328    -0.681616758405     0.774526763872    12.000000000000
         C           -2.281505197328     1.290581241595    -0.546531236128    12.000000000000
         C           -3.208720197328    -1.033668758405     0.664887763872    12.000000000000
         C           -3.628826197328     0.937972241595    -0.645162236128    12.000000000000
         C            2.195453802672    -0.125297758405    -0.101444236128    12.000000000000
         C           -5.572136197328    -0.595523758405    -0.122553236128    12.000000000000
         C            2.877486802672     0.996741241595     0.381529763872    12.000000000000
         C            2.910625802672    -1.247937758405    -0.540791236128    12.000000000000
         C            4.276627802672     0.980246241595     0.421524763872    12.000000000000
         C            4.300490802672    -1.247966758405    -0.495956236128    12.000000000000
         C            4.993498802672    -0.132458758405    -0.012340236128    12.000000000000
         H            0.273749802672     1.775987241595    -0.267731236128     1.007825032230
         H            0.318511802672     1.046879241595     1.355499763872     1.007825032230
         H           -1.174031197328    -1.322516758405     1.317111763872     1.007825032230
         H           -1.922123197328     2.194567241595    -1.035818236128     1.007825032230
         H           -3.563305197328    -1.950339758405     1.134025763872     1.007825032230
         H           -4.309930197328     1.572416241595    -1.210192236128     1.007825032230
         H           -6.040468197328    -0.158869758405    -1.009107236128     1.007825032230
         H           -5.703991197328    -1.680410758405    -0.168235236128     1.007825032230
         H           -6.107820097328    -0.239022958405     0.739281863872     1.007825032230
         H            2.346103802672     1.879333241595     0.720782763872     1.007825032230
         H            2.351353802672    -2.102486758405    -0.911878236128     1.007825032230
         H            4.803313802672     1.854334241595     0.797738763872     1.007825032230
         H            4.845957802672    -2.123933758405    -0.839092236128     1.007825032230
         H            6.079577802672    -0.133260758405     0.023159763872     1.007825032230

  Basis Set: AUG-CC-PVTZ
    Blend: AUG-CC-PVTZ
  Basis Set: (AUG-CC-PVTZ AUX)
    Blend: AUG-CC-PVTZ-JKFIT
	 Reference Energy          =    -613.3716155243391768 [Eh]
	 Singles Energy            =      -0.0000000000000000 [Eh]
	 Same-Spin Energy          =      -0.6726559033273904 [Eh]
	 Opposite-Spin Energy      =      -2.1164075376826377 [Eh]
	 Correlation Energy        =      -2.7890634410100281 [Eh]
	 Total Energy              =    -616.1606789653492342 [Eh]

	 ================> DF-SCS-MP2 Energies <==================
	-----------------------------------------------------------
	 SCS Same-Spin Scale       =       0.3333333333333333 [-]
	 SCS Opposite-Spin Scale   =       1.2000000000000000 [-]
	 SCS Same-Spin Energy      =      -0.2242186344424635 [Eh]
	 SCS Opposite-Spin Energy  =      -2.5396890452191649 [Eh]
	 SCS Correlation Energy    =      -2.7639076796616284 [Eh]
	 SCS Total Energy          =    -616.1355232040008332 [Eh]
	-----------------------------------------------------------

  Dipole Moment: [D]
     X:    -1.0127      Y:     0.7326      Z:     0.4766     Total:     1.3377

*** Psi4 exiting successfully. Buy a developer a beer!
