                               Psi4 1.4a3.dev225

  ==> Input File <==

--------------------------------------------------------------------------
#psi4
#
memory 32 gb

molecule  {
0 1
  O        0.8655410    -0.2383350    -0.1978900
  C       -1.3532420     0.4851090     0.1659470
  C        0.0923410     0.8600100     0.3004220
  C       -4.0760200    -0.2326370    -0.0482320
  C       -1.8292680    -0.6845410     0.7713590
  C       -2.2449120     1.2876570    -0.5496990
  C       -3.1721270    -1.0365930     0.6617200
  C       -3.5922330     0.9350480    -0.6483300
  C        2.2320470    -0.1282220    -0.1046120
  C       -5.5355430    -0.5984480    -0.1257210
  C        2.9140800     0.9938170     0.3783620
  C        2.9472190    -1.2508620    -0.5439590
  C        4.3132210     0.9773220     0.4183570
  C        4.3370840    -1.2508910    -0.4991240
  C        5.1330219    -0.2951476    -0.0778033
  H        0.3103430     1.7730630    -0.2708990
  H        0.3551050     1.0439550     1.3523320
  H       -1.1374380    -1.3254410     1.3139440
  H       -1.8855300     2.1916430    -1.0389860
  H       -3.5267120    -1.9532640     1.1308580
  H       -4.2733370     1.5694920    -1.2133600
  H       -6.0038750    -0.1617940    -1.0122750
  H       -5.6673980    -1.6833350    -0.1714030
  H       -6.0811880    -0.2353180     0.7521400
  H        2.3826970     1.8764090     0.7176150
  H        2.3879470    -2.1054110    -0.9150460
  H        4.8399070     1.8514100     0.7945710
  H        4.8825510    -2.1268580    -0.8422600
  H        6.1161710    -0.1361850     0.0199920
units angstrom
no_reorient  #important for SAPT in psi4, default
symmetry c1  #important for SAPT in psi4, default
}

set PROPERTIES_ORIGIN ["COM"]
properties('MP2/aug-cc-pvtz', properties = ['dipole'])
--------------------------------------------------------------------------

    Molecular point group: c1
  Charge       = 0
  Multiplicity = 1
  Basis Set: AUG-CC-PVTZ
    Blend: AUG-CC-PVTZ
  Basis Set: (AUG-CC-PVTZ AUX)
    Blend: AUG-CC-PVTZ-JKFIT

    Orbital Energies [Eh]
    ---------------------

    Doubly Occupied:

       1A    -20.585095     2A    -11.303601     3A    -11.294368
       4A    -11.259190     5A    -11.244231     6A    -11.239672
       7A    -11.238064     8A    -11.237187     9A    -11.235409
      10A    -11.232630    11A    -11.232456    12A    -11.230834
      13A    -11.228981    14A    -11.226121    15A    -11.223044
      16A     -1.406157    17A     -1.158857    18A     -1.137659
      19A     -1.067195    20A     -1.026331    21A     -1.013479
      22A     -1.002738    23A     -0.961635    24A     -0.898208
      25A     -0.837912    26A     -0.830663    27A     -0.809310
      28A     -0.782018    29A     -0.719407    30A     -0.688102
      31A     -0.682693    32A     -0.670422    33A     -0.642799
      34A     -0.630579    35A     -0.621635    36A     -0.605408
      37A     -0.583954    38A     -0.579137    39A     -0.577162
      40A     -0.567618    41A     -0.549660    42A     -0.543454
      43A     -0.522462    44A     -0.514301    45A     -0.487464
      46A     -0.486023    47A     -0.484161    48A     -0.461604
      49A     -0.454085    50A     -0.351358    51A     -0.337077
      52A     -0.322845    53A     -0.300562

  @DF-RHF Final Energy:  -613.32957459026102

   => Energetics <=

    Nuclear Repulsion Energy =            868.7844001377131917
    One-Electron Energy =               -2555.5739085517552667
    Two-Electron Energy =                1073.4599338237810571
    Total Energy =                       -613.3295745902610179
  Basis Set: (AUG-CC-PVTZ AUX)
    Blend: AUG-CC-PVTZ-RI
    Molecular point group: c1

    Geometry (in Angstrom), charge = 0, multiplicity = 1:

       Center              X                  Y                   Z               Mass
    ------------   -----------------  -----------------  -----------------  -----------------
         O            0.822763591965    -0.225766886291    -0.191030283518    15.994914619570
         C           -1.396019408035     0.497677113709     0.172806716482    12.000000000000
         C            0.049563591965     0.872578113709     0.307281716482    12.000000000000
         C           -4.118797408035    -0.220068886291    -0.041372283518    12.000000000000
         C           -1.872045408035    -0.671972886291     0.778218716482    12.000000000000
         C           -2.287689408035     1.300225113709    -0.542839283518    12.000000000000
         C           -3.214904408035    -1.024024886291     0.668579716482    12.000000000000
         C           -3.635010408035     0.947616113709    -0.641470283518    12.000000000000
         C            2.189269591965    -0.115653886291    -0.097752283518    12.000000000000
         C           -5.578320408035    -0.585879886291    -0.118861283518    12.000000000000
         C            2.871302591965     1.006385113709     0.385221716482    12.000000000000
         C            2.904441591965    -1.238293886291    -0.537099283518    12.000000000000
         C            4.270443591965     0.989890113709     0.425216716482    12.000000000000
         C            4.294306591965    -1.238322886291    -0.492264283518    12.000000000000
         C            5.090244491965    -0.282579486291    -0.070943583518    12.000000000000
         H            0.267565591965     1.785631113709    -0.264039283518     1.007825032230
         H            0.312327591965     1.056523113709     1.359191716482     1.007825032230
         H           -1.180215408035    -1.312872886291     1.320803716482     1.007825032230
         H           -1.928307408035     2.204211113709    -1.032126283518     1.007825032230
         H           -3.569489408035    -1.940695886291     1.137717716482     1.007825032230
         H           -4.316114408035     1.582060113709    -1.206500283518     1.007825032230
         H           -6.046652408035    -0.149225886291    -1.005415283518     1.007825032230
         H           -5.710175408035    -1.670766886291    -0.164543283518     1.007825032230
         H           -6.123965408035    -0.222749886291     0.758999716482     1.007825032230
         H            2.339919591965     1.888977113709     0.724474716482     1.007825032230
         H            2.345169591965    -2.092842886291    -0.908186283518     1.007825032230
         H            4.797129591965     1.863978113709     0.801430716482     1.007825032230
         H            4.839773591965    -2.114289886291    -0.835400283518     1.007825032230
         H            6.073393591965    -0.123616886291     0.026851716482     1.007825032230

  Basis Set: AUG-CC-PVTZ
    Blend: AUG-CC-PVTZ
  Basis Set: (AUG-CC-PVTZ AUX)
    Blend: AUG-CC-PVTZ-JKFIT
	 Reference Energy          =    -613.3295745902610179 [Eh]
	 Singles Energy            =      -0.0000000000000000 [Eh]
	 Same-Spin Energy          =      -0.6725020714116697 [Eh]
	 Opposite-Spin Energy      =      -2.1190068948992913 [Eh]
	 Correlation Energy        =      -2.7915089663109609 [Eh]
	 Total Energy              =    -616.1210835565719890 [Eh]

	 ================> DF-SCS-MP2 Energies <==================
	-----------------------------------------------------------
	 SCS Same-Spin Scale       =       0.3333333333333333 [-]
	 SCS Opposite-Spin Scale   =       1.2000000000000000 [-]
	 SCS Same-Spin Energy      =      -0.2241673571372232 [Eh]
	 SCS Opposite-Spin Energy  =      -2.5428082738791495 [Eh]
	 SCS Correlation Energy    =      -2.7669756310163729 [Eh]
	 SCS Total Energy          =    -616.0965502212774254 [Eh]
	-----------------------------------------------------------

  Dipole Moment: [D]
     X:    -1.0468      Y:     0.8416      Z:     0.5177     Total:     1.4395

*** Psi4 exiting successfully. Buy a developer a beer!
