                               Psi4 1.4a3.dev225

  ==> Input File <==

--------------------------------------------------------------------------
#psi4
#
memory 32 gb

molecule  {
0 1
  O        0.8655410    -0.2383350    -0.1978900
  C       -1.3532420     0.4851090     0.1659470
  C        0.0923410     0.8600100     0.3004220
  C       -4.0760200    -0.2326370    -0.0482320
  C       -1.8292680    -0.6845410     0.7713590
  C       -2.2449120     1.2876570    -0.5496990
  C       -3.1721270    -1.0365930     0.6617200
  C       -3.5922330     0.9350480    -0.6483300
  C        2.2320470    -0.1282220    -0.1046120
  C       -5.5355430    -0.5984480    -0.1257210
  C        2.9140800     0.9938170     0.3783620
  C        2.9472190    -1.2508620    -0.5439590
  C        4.3132210     0.9773220     0.4183570
  C        4.3370840    -1.2508910    -0.4991240
  C        5.0300920    -0.1353830    -0.0155080
  H        0.3103430     1.7730630    -0.2708990
  H        0.3551050     1.0439550     1.3523320
  H       -1.1374380    -1.3254410     1.3139440
  H       -1.8855300     2.1916430    -1.0389860
  H       -3.5267120    -1.9532640     1.1308580
  H       -4.2733370     1.5694920    -1.2133600
  H       -6.0038750    -0.1617940    -1.0122750
  H       -5.6673980    -1.6833350    -0.1714030
  H       -6.0811880    -0.2353180     0.7521400
  H        2.3826970     1.8764090     0.7176150
  H        2.3879470    -2.1054110    -0.9150460
  H        4.9367562     2.0121408     0.8637508
  H        4.8825510    -2.1268580    -0.8422600
  H        6.1161710    -0.1361850     0.0199920
units angstrom
no_reorient  #important for SAPT in psi4, default
symmetry c1  #important for SAPT in psi4, default
}

set PROPERTIES_ORIGIN ["COM"]
properties('MP2/aug-cc-pvtz', properties = ['dipole'])
--------------------------------------------------------------------------

    Molecular point group: c1
  Charge       = 0
  Multiplicity = 1
  Basis Set: AUG-CC-PVTZ
    Blend: AUG-CC-PVTZ
  Basis Set: (AUG-CC-PVTZ AUX)
    Blend: AUG-CC-PVTZ-JKFIT

    Orbital Energies [Eh]
    ---------------------

    Doubly Occupied:

       1A    -20.585002     2A    -11.302657     3A    -11.293759
       4A    -11.262705     5A    -11.244121     6A    -11.241136
       7A    -11.239452     8A    -11.237871     9A    -11.235345
      10A    -11.235291    11A    -11.232531    12A    -11.232384
      13A    -11.229658    14A    -11.228783    15A    -11.226079
      16A     -1.405893    17A     -1.159230    18A     -1.144404
      19A     -1.067281    20A     -1.015313    21A     -1.013767
      22A     -1.009292    23A     -0.964079    24A     -0.899663
      25A     -0.832945    26A     -0.826340    27A     -0.806958
      28A     -0.782839    29A     -0.715209    30A     -0.684553
      31A     -0.671185    32A     -0.664242    33A     -0.643279
      34A     -0.629390    35A     -0.620718    36A     -0.605149
      37A     -0.583851    38A     -0.577279    39A     -0.569186
      40A     -0.564789    41A     -0.543770    42A     -0.530514
      43A     -0.523678    44A     -0.513857    45A     -0.488316
      46A     -0.486824    47A     -0.485574    48A     -0.471799
      49A     -0.465369    50A     -0.341426    51A     -0.337043
      52A     -0.322593    53A     -0.313727

  @DF-RHF Final Energy:  -613.34945854859859

   => Energetics <=

    Nuclear Repulsion Energy =            869.8030209274154458
    One-Electron Energy =               -2557.6887708285448753
    Two-Electron Energy =                1074.5362913525307249
    Total Energy =                       -613.3494585485987045
  Basis Set: (AUG-CC-PVTZ AUX)
    Blend: AUG-CC-PVTZ-RI
    Molecular point group: c1

    Geometry (in Angstrom), charge = 0, multiplicity = 1:

       Center              X                  Y                   Z               Mass
    ------------   -----------------  -----------------  -----------------  -----------------
         O            0.828505773250    -0.236262175849    -0.195155706607    15.994914619570
         C           -1.390277226750     0.487181824151     0.168681293393    12.000000000000
         C            0.055305773250     0.862082824151     0.303156293393    12.000000000000
         C           -4.113055226750    -0.230564175849    -0.045497706607    12.000000000000
         C           -1.866303226750    -0.682468175849     0.774093293393    12.000000000000
         C           -2.281947226750     1.289729824151    -0.546964706607    12.000000000000
         C           -3.209162226750    -1.034520175849     0.664454293393    12.000000000000
         C           -3.629268226750     0.937120824151    -0.645595706607    12.000000000000
         C            2.195011773250    -0.126149175849    -0.101877706607    12.000000000000
         C           -5.572578226750    -0.596375175849    -0.122986706607    12.000000000000
         C            2.877044773250     0.995889824151     0.381096293393    12.000000000000
         C            2.910183773250    -1.248789175849    -0.541224706607    12.000000000000
         C            4.276185773250     0.979394824151     0.421091293393    12.000000000000
         C            4.300048773250    -1.248818175849    -0.496389706607    12.000000000000
         C            4.993056773250    -0.133310175849    -0.012773706607    12.000000000000
         H            0.273307773250     1.775135824151    -0.268164706607     1.007825032230
         H            0.318069773250     1.046027824151     1.355066293393     1.007825032230
         H           -1.174473226750    -1.323368175849     1.316678293393     1.007825032230
         H           -1.922565226750     2.193715824151    -1.036251706607     1.007825032230
         H           -3.563747226750    -1.951191175849     1.133592293393     1.007825032230
         H           -4.310372226750     1.571564824151    -1.210625706607     1.007825032230
         H           -6.040910226750    -0.159721175849    -1.009540706607     1.007825032230
         H           -5.704433226750    -1.681262175849    -0.168668706607     1.007825032230
         H           -6.118223226750    -0.233245175849     0.754874293393     1.007825032230
         H            2.345661773250     1.878481824151     0.720349293393     1.007825032230
         H            2.350911773250    -2.103338175849    -0.912311706607     1.007825032230
         H            4.899720973250     2.014213624151     0.866485093393     1.007825032230
         H            4.845515773250    -2.124785175849    -0.839525706607     1.007825032230
         H            6.079135773250    -0.134112175849     0.022726293393     1.007825032230

  Basis Set: AUG-CC-PVTZ
    Blend: AUG-CC-PVTZ
  Basis Set: (AUG-CC-PVTZ AUX)
    Blend: AUG-CC-PVTZ-JKFIT
	 Reference Energy          =    -613.3494585485985908 [Eh]
	 Singles Energy            =      -0.0000000000000000 [Eh]
	 Same-Spin Energy          =      -0.6731158968631348 [Eh]
	 Opposite-Spin Energy      =      -2.1187223426384376 [Eh]
	 Correlation Energy        =      -2.7918382395015726 [Eh]
	 Total Energy              =    -616.1412967881001350 [Eh]

	 ================> DF-SCS-MP2 Energies <==================
	-----------------------------------------------------------
	 SCS Same-Spin Scale       =       0.3333333333333333 [-]
	 SCS Opposite-Spin Scale   =       1.2000000000000000 [-]
	 SCS Same-Spin Energy      =      -0.2243719656210449 [Eh]
	 SCS Opposite-Spin Energy  =      -2.5424668111661251 [Eh]
	 SCS Correlation Energy    =      -2.7668387767871701 [Eh]
	 SCS Total Energy          =    -616.1162973253857444 [Eh]
	-----------------------------------------------------------

  Dipole Moment: [D]
     X:    -1.0843      Y:     0.6414      Z:     0.4321     Total:     1.3319

*** Psi4 exiting successfully. Buy a developer a beer!
