                               Psi4 1.4a3.dev225

  ==> Input File <==

--------------------------------------------------------------------------
#psi4
#
memory 32 gb

molecule  {
0 1
  O        0.8655410    -0.2383350    -0.1978900
  C       -1.3532420     0.4851090     0.1659470
  C        0.0829446     0.9028388     0.2718446
  C       -4.0760200    -0.2326370    -0.0482320
  C       -1.8292680    -0.6845410     0.7713590
  C       -2.2449120     1.2876570    -0.5496990
  C       -3.1721270    -1.0365930     0.6617200
  C       -3.5922330     0.9350480    -0.6483300
  C        2.2320470    -0.1282220    -0.1046120
  C       -5.5355430    -0.5984480    -0.1257210
  C        2.9140800     0.9938170     0.3783620
  C        2.9472190    -1.2508620    -0.5439590
  C        4.3132210     0.9773220     0.4183570
  C        4.3370840    -1.2508910    -0.4991240
  C        5.0300920    -0.1353830    -0.0155080
  H        0.3103430     1.7730630    -0.2708990
  H        0.3551050     1.0439550     1.3523320
  H       -1.1374380    -1.3254410     1.3139440
  H       -1.8855300     2.1916430    -1.0389860
  H       -3.5267120    -1.9532640     1.1308580
  H       -4.2733370     1.5694920    -1.2133600
  H       -6.0038750    -0.1617940    -1.0122750
  H       -5.6673980    -1.6833350    -0.1714030
  H       -6.0811880    -0.2353180     0.7521400
  H        2.3826970     1.8764090     0.7176150
  H        2.3879470    -2.1054110    -0.9150460
  H        4.8399070     1.8514100     0.7945710
  H        4.8825510    -2.1268580    -0.8422600
  H        6.1161710    -0.1361850     0.0199920
units angstrom
no_reorient  #important for SAPT in psi4, default
symmetry c1  #important for SAPT in psi4, default
}

set PROPERTIES_ORIGIN ["COM"]
properties('MP2/aug-cc-pvtz', properties = ['dipole'])
--------------------------------------------------------------------------

    Molecular point group: c1
  Charge       = 0
  Multiplicity = 1
  Basis Set: AUG-CC-PVTZ
    Blend: AUG-CC-PVTZ
  Basis Set: (AUG-CC-PVTZ AUX)
    Blend: AUG-CC-PVTZ-JKFIT

    Orbital Energies [Eh]
    ---------------------

    Doubly Occupied:

       1A    -20.581680     2A    -11.299610     3A    -11.293683
       4A    -11.244214     5A    -11.240258     6A    -11.240192
       7A    -11.238613     8A    -11.237601     9A    -11.236137
      10A    -11.232912    11A    -11.232461    12A    -11.231849
      13A    -11.226402    14A    -11.226175    15A    -11.226153
      16A     -1.396146    17A     -1.159245    18A     -1.142468
      19A     -1.067733    20A     -1.016754    21A     -1.013771
      22A     -1.006783    23A     -0.965261    24A     -0.900570
      25A     -0.833453    26A     -0.830808    27A     -0.807233
      28A     -0.783722    29A     -0.718668    30A     -0.683049
      31A     -0.672066    32A     -0.659432    33A     -0.642445
      34A     -0.631296    35A     -0.621455    36A     -0.608206
      37A     -0.585837    38A     -0.584060    39A     -0.577267
      40A     -0.561010    41A     -0.544179    42A     -0.531331
      43A     -0.527208    44A     -0.513272    45A     -0.491168
      46A     -0.486065    47A     -0.485717    48A     -0.479343
      49A     -0.464615    50A     -0.339212    51A     -0.337250
      52A     -0.322267    53A     -0.310877

  @DF-RHF Final Energy:  -613.36802951267987

   => Energetics <=

    Nuclear Repulsion Energy =            870.2951708294281161
    One-Electron Energy =               -2558.7480371877468315
    Two-Electron Energy =                1075.0848368456388471
    Total Energy =                       -613.3680295126798683
  Basis Set: (AUG-CC-PVTZ AUX)
    Blend: AUG-CC-PVTZ-RI
    Molecular point group: c1

    Geometry (in Angstrom), charge = 0, multiplicity = 1:

       Center              X                  Y                   Z               Mass
    ------------   -----------------  -----------------  -----------------  -----------------
         O            0.829567656677    -0.238038799492    -0.193072715019    15.994914619570
         C           -1.389215343323     0.485405200508     0.170764284981    12.000000000000
         C            0.046971256677     0.903135000508     0.276661884981    12.000000000000
         C           -4.111993343323    -0.232340799492    -0.043414715019    12.000000000000
         C           -1.865241343323    -0.684244799492     0.776176284981    12.000000000000
         C           -2.280885343323     1.287953200508    -0.544881715019    12.000000000000
         C           -3.208100343323    -1.036296799492     0.666537284981    12.000000000000
         C           -3.628206343323     0.935344200508    -0.643512715019    12.000000000000
         C            2.196073656677    -0.127925799492    -0.099794715019    12.000000000000
         C           -5.571516343323    -0.598151799492    -0.120903715019    12.000000000000
         C            2.878106656677     0.994113200508     0.383179284981    12.000000000000
         C            2.911245656677    -1.250565799492    -0.539141715019    12.000000000000
         C            4.277247656677     0.977618200508     0.423174284981    12.000000000000
         C            4.301110656677    -1.250594799492    -0.494306715019    12.000000000000
         C            4.994118656677    -0.135086799492    -0.010690715019    12.000000000000
         H            0.274369656677     1.773359200508    -0.266081715019     1.007825032230
         H            0.319131656677     1.044251200508     1.357149284981     1.007825032230
         H           -1.173411343323    -1.325144799492     1.318761284981     1.007825032230
         H           -1.921503343323     2.191939200508    -1.034168715019     1.007825032230
         H           -3.562685343323    -1.952967799492     1.135675284981     1.007825032230
         H           -4.309310343323     1.569788200508    -1.208542715019     1.007825032230
         H           -6.039848343323    -0.161497799492    -1.007457715019     1.007825032230
         H           -5.703371343323    -1.683038799492    -0.166585715019     1.007825032230
         H           -6.117161343323    -0.235021799492     0.756957284981     1.007825032230
         H            2.346723656677     1.876705200508     0.722432284981     1.007825032230
         H            2.351973656677    -2.105114799492    -0.910228715019     1.007825032230
         H            4.803933656677     1.851706200508     0.799388284981     1.007825032230
         H            4.846577656677    -2.126561799492    -0.837442715019     1.007825032230
         H            6.080197656677    -0.135888799492     0.024809284981     1.007825032230

  Basis Set: AUG-CC-PVTZ
    Blend: AUG-CC-PVTZ
  Basis Set: (AUG-CC-PVTZ AUX)
    Blend: AUG-CC-PVTZ-JKFIT
	 Reference Energy          =    -613.3680295126798683 [Eh]
	 Singles Energy            =      -0.0000000000000000 [Eh]
	 Same-Spin Energy          =      -0.6727427178347771 [Eh]
	 Opposite-Spin Energy      =      -2.1170504947609858 [Eh]
	 Correlation Energy        =      -2.7897932125957627 [Eh]
	 Total Energy              =    -616.1578227252756506 [Eh]

	 ================> DF-SCS-MP2 Energies <==================
	-----------------------------------------------------------
	 SCS Same-Spin Scale       =       0.3333333333333333 [-]
	 SCS Opposite-Spin Scale   =       1.2000000000000000 [-]
	 SCS Same-Spin Energy      =      -0.2242475726115924 [Eh]
	 SCS Opposite-Spin Energy  =      -2.5404605937131830 [Eh]
	 SCS Correlation Energy    =      -2.7647081663247755 [Eh]
	 SCS Total Energy          =    -616.1327376790046628 [Eh]
	-----------------------------------------------------------

  Dipole Moment: [D]
     X:    -1.1155      Y:     0.8169      Z:     0.4441     Total:     1.4522

*** Psi4 exiting successfully. Buy a developer a beer!
