                               Psi4 1.4a3.dev225

  ==> Input File <==

--------------------------------------------------------------------------
#psi4
#
memory 32 gb

molecule  {
0 1
  O        0.8655410    -0.2383350    -0.1978900
  C       -1.3532420     0.4851090     0.1659470
  C        0.0923410     0.8600100     0.3004220
  C       -4.0760200    -0.2326370    -0.0482320
  C       -1.8292680    -0.6845410     0.7713590
  C       -2.2449120     1.2876570    -0.5496990
  C       -2.9792655    -0.9860313     0.6774664
  C       -3.5922330     0.9350480    -0.6483300
  C        2.2320470    -0.1282220    -0.1046120
  C       -5.5355430    -0.5984480    -0.1257210
  C        2.9140800     0.9938170     0.3783620
  C        2.9472190    -1.2508620    -0.5439590
  C        4.3132210     0.9773220     0.4183570
  C        4.3370840    -1.2508910    -0.4991240
  C        5.0300920    -0.1353830    -0.0155080
  H        0.3103430     1.7730630    -0.2708990
  H        0.3551050     1.0439550     1.3523320
  H       -1.1374380    -1.3254410     1.3139440
  H       -1.8855300     2.1916430    -1.0389860
  H       -3.5267120    -1.9532640     1.1308580
  H       -4.2733370     1.5694920    -1.2133600
  H       -6.0038750    -0.1617940    -1.0122750
  H       -5.6673980    -1.6833350    -0.1714030
  H       -6.0811880    -0.2353180     0.7521400
  H        2.3826970     1.8764090     0.7176150
  H        2.3879470    -2.1054110    -0.9150460
  H        4.8399070     1.8514100     0.7945710
  H        4.8825510    -2.1268580    -0.8422600
  H        6.1161710    -0.1361850     0.0199920
units angstrom
no_reorient  #important for SAPT in psi4, default
symmetry c1  #important for SAPT in psi4, default
}

set PROPERTIES_ORIGIN ["COM"]
properties('MP2/aug-cc-pvtz', properties = ['dipole'])
--------------------------------------------------------------------------

    Molecular point group: c1
  Charge       = 0
  Multiplicity = 1
  Basis Set: AUG-CC-PVTZ
    Blend: AUG-CC-PVTZ
  Basis Set: (AUG-CC-PVTZ AUX)
    Blend: AUG-CC-PVTZ-JKFIT

    Orbital Energies [Eh]
    ---------------------

    Doubly Occupied:

       1A    -20.583738     2A    -11.301005     3A    -11.292619
       4A    -11.253403     5A    -11.240854     6A    -11.239293
       7A    -11.239137     8A    -11.235423     9A    -11.232829
      10A    -11.231768    11A    -11.229615    12A    -11.227758
      13A    -11.227590    14A    -11.227155    15A    -11.206613
      16A     -1.404765    17A     -1.172121    18A     -1.144381
      19A     -1.060549    20A     -1.043553    21A     -1.017063
      22A     -1.007909    23A     -0.967388    24A     -0.895047
      25A     -0.832938    26A     -0.813411    27A     -0.808460
      28A     -0.791319    29A     -0.720620    30A     -0.686817
      31A     -0.673670    32A     -0.663695    33A     -0.645367
      34A     -0.627345    35A     -0.618676    36A     -0.604697
      37A     -0.588290    38A     -0.585015    39A     -0.578501
      40A     -0.557782    41A     -0.548495    42A     -0.533488
      43A     -0.523837    44A     -0.515935    45A     -0.499563
      46A     -0.497813    47A     -0.482194    48A     -0.466865
      49A     -0.439113    50A     -0.366498    51A     -0.339764
      52A     -0.312308    53A     -0.308658

  @DF-RHF Final Energy:  -613.30839712411262

   => Energetics <=

    Nuclear Repulsion Energy =            873.2027112259728483
    One-Electron Energy =               -2564.3967950946653218
    Two-Electron Energy =                1077.8856867445797434
    Total Energy =                       -613.3083971241126164
  Basis Set: (AUG-CC-PVTZ AUX)
    Blend: AUG-CC-PVTZ-RI
    Molecular point group: c1

    Geometry (in Angstrom), charge = 0, multiplicity = 1:

       Center              X                  Y                   Z               Mass
    ------------   -----------------  -----------------  -----------------  -----------------
         O            0.817316066087    -0.238507212962    -0.195757589385    15.994914619570
         C           -1.401466933913     0.484936787038     0.168079410615    12.000000000000
         C            0.044116066087     0.859837787038     0.302554410615    12.000000000000
         C           -4.124244933913    -0.232809212962    -0.046099589385    12.000000000000
         C           -1.877492933913    -0.684713212962     0.773491410615    12.000000000000
         C           -2.293136933913     1.287484787038    -0.547566589385    12.000000000000
         C           -3.027490433913    -0.986203512962     0.679598810615    12.000000000000
         C           -3.640457933913     0.934875787038    -0.646197589385    12.000000000000
         C            2.183822066087    -0.128394212962    -0.102479589385    12.000000000000
         C           -5.583767933913    -0.598620212962    -0.123588589385    12.000000000000
         C            2.865855066087     0.993644787038     0.380494410615    12.000000000000
         C            2.898994066087    -1.251034212962    -0.541826589385    12.000000000000
         C            4.264996066087     0.977149787038     0.420489410615    12.000000000000
         C            4.288859066087    -1.251063212962    -0.496991589385    12.000000000000
         C            4.981867066087    -0.135555212962    -0.013375589385    12.000000000000
         H            0.262118066087     1.772890787038    -0.268766589385     1.007825032230
         H            0.306880066087     1.043782787038     1.354464410615     1.007825032230
         H           -1.185662933913    -1.325613212962     1.316076410615     1.007825032230
         H           -1.933754933913     2.191470787038    -1.036853589385     1.007825032230
         H           -3.574936933913    -1.953436212962     1.132990410615     1.007825032230
         H           -4.321561933913     1.569319787038    -1.211227589385     1.007825032230
         H           -6.052099933913    -0.161966212962    -1.010142589385     1.007825032230
         H           -5.715622933913    -1.683507212962    -0.169270589385     1.007825032230
         H           -6.129412933913    -0.235490212962     0.754272410615     1.007825032230
         H            2.334472066087     1.876236787038     0.719747410615     1.007825032230
         H            2.339722066087    -2.105583212962    -0.912913589385     1.007825032230
         H            4.791682066087     1.851237787038     0.796703410615     1.007825032230
         H            4.834326066087    -2.127030212962    -0.840127589385     1.007825032230
         H            6.067946066087    -0.136357212962     0.022124410615     1.007825032230

  Basis Set: AUG-CC-PVTZ
    Blend: AUG-CC-PVTZ
  Basis Set: (AUG-CC-PVTZ AUX)
    Blend: AUG-CC-PVTZ-JKFIT
	 Reference Energy          =    -613.3083971241126164 [Eh]
	 Singles Energy            =      -0.0000000000000000 [Eh]
	 Same-Spin Energy          =      -0.6719893466457397 [Eh]
	 Opposite-Spin Energy      =      -2.1178955842846050 [Eh]
	 Correlation Energy        =      -2.7898849309303446 [Eh]
	 Total Energy              =    -616.0982820550430006 [Eh]

	 ================> DF-SCS-MP2 Energies <==================
	-----------------------------------------------------------
	 SCS Same-Spin Scale       =       0.3333333333333333 [-]
	 SCS Opposite-Spin Scale   =       1.2000000000000000 [-]
	 SCS Same-Spin Energy      =      -0.2239964488819132 [Eh]
	 SCS Opposite-Spin Energy  =      -2.5414747011415257 [Eh]
	 SCS Correlation Energy    =      -2.7654711500234388 [Eh]
	 SCS Total Energy          =    -616.0738682741360890 [Eh]
	-----------------------------------------------------------

  Dipole Moment: [D]
     X:    -1.1117      Y:     0.8021      Z:     0.4178     Total:     1.4331

*** Psi4 exiting successfully. Buy a developer a beer!
