                               Psi4 1.4a3.dev225

  ==> Input File <==

--------------------------------------------------------------------------
#psi4
#
memory 32 gb

molecule  {
0 1
  O        0.8655410    -0.2383350    -0.1978900
  C       -1.3532420     0.4851090     0.1659470
  C        0.0923410     0.8600100     0.3004220
  C       -4.0760200    -0.2326370    -0.0482320
  C       -1.8292680    -0.6845410     0.7713590
  C       -2.2449120     1.2876570    -0.5496990
  C       -3.1797647    -0.9960837     0.6359650
  C       -3.5922330     0.9350480    -0.6483300
  C        2.2320470    -0.1282220    -0.1046120
  C       -5.5355430    -0.5984480    -0.1257210
  C        2.9140800     0.9938170     0.3783620
  C        2.9472190    -1.2508620    -0.5439590
  C        4.3132210     0.9773220     0.4183570
  C        4.3370840    -1.2508910    -0.4991240
  C        5.0300920    -0.1353830    -0.0155080
  H        0.3103430     1.7730630    -0.2708990
  H        0.3551050     1.0439550     1.3523320
  H       -1.1374380    -1.3254410     1.3139440
  H       -1.8855300     2.1916430    -1.0389860
  H       -3.5267120    -1.9532640     1.1308580
  H       -4.2733370     1.5694920    -1.2133600
  H       -6.0038750    -0.1617940    -1.0122750
  H       -5.6673980    -1.6833350    -0.1714030
  H       -6.0811880    -0.2353180     0.7521400
  H        2.3826970     1.8764090     0.7176150
  H        2.3879470    -2.1054110    -0.9150460
  H        4.8399070     1.8514100     0.7945710
  H        4.8825510    -2.1268580    -0.8422600
  H        6.1161710    -0.1361850     0.0199920
units angstrom
no_reorient  #important for SAPT in psi4, default
symmetry c1  #important for SAPT in psi4, default
}

set PROPERTIES_ORIGIN ["COM"]
properties('MP2/aug-cc-pvtz', properties = ['dipole'])
--------------------------------------------------------------------------

    Molecular point group: c1
  Charge       = 0
  Multiplicity = 1
  Basis Set: AUG-CC-PVTZ
    Blend: AUG-CC-PVTZ
  Basis Set: (AUG-CC-PVTZ AUX)
    Blend: AUG-CC-PVTZ-JKFIT

    Orbital Energies [Eh]
    ---------------------

    Doubly Occupied:

       1A    -20.584184     2A    -11.301179     3A    -11.293124
       4A    -11.241088     5A    -11.239529     6A    -11.239197
       7A    -11.238861     8A    -11.236827     9A    -11.234680
      10A    -11.233092    11A    -11.232848    12A    -11.231209
      13A    -11.227835    14A    -11.227393    15A    -11.226095
      16A     -1.405102    17A     -1.162631    18A     -1.144383
      19A     -1.069622    20A     -1.017949    21A     -1.012539
      22A     -1.008375    23A     -0.964402    24A     -0.901748
      25A     -0.833479    26A     -0.832141    27A     -0.808653
      28A     -0.782100    29A     -0.721237    30A     -0.683607
      31A     -0.671675    32A     -0.663867    33A     -0.644442
      34A     -0.627769    35A     -0.621668    36A     -0.608591
      37A     -0.586925    38A     -0.580110    39A     -0.577967
      40A     -0.564897    41A     -0.541764    42A     -0.533190
      43A     -0.523049    44A     -0.514771    45A     -0.492314
      46A     -0.489800    47A     -0.484327    48A     -0.474897
      49A     -0.464400    50A     -0.340152    51A     -0.336989
      52A     -0.325060    53A     -0.312478

  @DF-RHF Final Energy:  -613.36870922735841

   => Energetics <=

    Nuclear Repulsion Energy =            871.5187963898930548
    One-Electron Energy =               -2561.1425893721125249
    Two-Electron Energy =                1076.2550837548612890
    Total Energy =                       -613.3687092273582948
  Basis Set: (AUG-CC-PVTZ AUX)
    Blend: AUG-CC-PVTZ-RI
    Molecular point group: c1

    Geometry (in Angstrom), charge = 0, multiplicity = 1:

       Center              X                  Y                   Z               Mass
    ------------   -----------------  -----------------  -----------------  -----------------
         O            0.829461125004    -0.237898297863    -0.193243679364    15.994914619570
         C           -1.389321874996     0.485545702137     0.170593320636    12.000000000000
         C            0.056261125004     0.860446702137     0.305068320636    12.000000000000
         C           -4.112099874996    -0.232200297863    -0.043585679364    12.000000000000
         C           -1.865347874996    -0.684104297863     0.776005320636    12.000000000000
         C           -2.280991874996     1.288093702137    -0.545052679364    12.000000000000
         C           -3.215844574996    -0.995646997863     0.640611320636    12.000000000000
         C           -3.628312874996     0.935484702137    -0.643683679364    12.000000000000
         C            2.195967125004    -0.127785297863    -0.099965679364    12.000000000000
         C           -5.571622874996    -0.598011297863    -0.121074679364    12.000000000000
         C            2.878000125004     0.994253702137     0.383008320636    12.000000000000
         C            2.911139125004    -1.250425297863    -0.539312679364    12.000000000000
         C            4.277141125004     0.977758702137     0.423003320636    12.000000000000
         C            4.301004125004    -1.250454297863    -0.494477679364    12.000000000000
         C            4.994012125004    -0.134946297863    -0.010861679364    12.000000000000
         H            0.274263125004     1.773499702137    -0.266252679364     1.007825032230
         H            0.319025125004     1.044391702137     1.356978320636     1.007825032230
         H           -1.173517874996    -1.325004297863     1.318590320636     1.007825032230
         H           -1.921609874996     2.192079702137    -1.034339679364     1.007825032230
         H           -3.562791874996    -1.952827297863     1.135504320636     1.007825032230
         H           -4.309416874996     1.569928702137    -1.208713679364     1.007825032230
         H           -6.039954874996    -0.161357297863    -1.007628679364     1.007825032230
         H           -5.703477874996    -1.682898297863    -0.166756679364     1.007825032230
         H           -6.117267874996    -0.234881297863     0.756786320636     1.007825032230
         H            2.346617125004     1.876845702137     0.722261320636     1.007825032230
         H            2.351867125004    -2.104974297863    -0.910399679364     1.007825032230
         H            4.803827125004     1.851846702137     0.799217320636     1.007825032230
         H            4.846471125004    -2.126421297863    -0.837613679364     1.007825032230
         H            6.080091125004    -0.135748297863     0.024638320636     1.007825032230

  Basis Set: AUG-CC-PVTZ
    Blend: AUG-CC-PVTZ
  Basis Set: (AUG-CC-PVTZ AUX)
    Blend: AUG-CC-PVTZ-JKFIT
	 Reference Energy          =    -613.3687092273584085 [Eh]
	 Singles Energy            =      -0.0000000000000000 [Eh]
	 Same-Spin Energy          =      -0.6728094088590949 [Eh]
	 Opposite-Spin Energy      =      -2.1165885059007166 [Eh]
	 Correlation Energy        =      -2.7893979147598116 [Eh]
	 Total Energy              =    -616.1581071421181832 [Eh]

	 ================> DF-SCS-MP2 Energies <==================
	-----------------------------------------------------------
	 SCS Same-Spin Scale       =       0.3333333333333333 [-]
	 SCS Opposite-Spin Scale   =       1.2000000000000000 [-]
	 SCS Same-Spin Energy      =      -0.2242698029530316 [Eh]
	 SCS Opposite-Spin Energy  =      -2.5399062070808598 [Eh]
	 SCS Correlation Energy    =      -2.7641760100338915 [Eh]
	 SCS Total Energy          =    -616.1328852373923155 [Eh]
	-----------------------------------------------------------

  Dipole Moment: [D]
     X:    -0.9780      Y:     0.7560      Z:     0.4610     Total:     1.3193

*** Psi4 exiting successfully. Buy a developer a beer!
