                               Psi4 1.4a3.dev225

  ==> Input File <==

--------------------------------------------------------------------------
#psi4
#
memory 32 gb

molecule  {
0 1
  O        0.8655410    -0.2383350    -0.1978900
  C       -1.3532420     0.4851090     0.1659470
  C        0.0923410     0.8600100     0.3004220
  C       -4.0760200    -0.2326370    -0.0482320
  C       -1.8292680    -0.6845410     0.7713590
  C       -2.2449120     1.2876570    -0.5496990
  C       -3.1239116    -1.0239526     0.6656566
  C       -3.5922330     0.9350480    -0.6483300
  C        2.2320470    -0.1282220    -0.1046120
  C       -5.5355430    -0.5984480    -0.1257210
  C        2.9140800     0.9938170     0.3783620
  C        2.9472190    -1.2508620    -0.5439590
  C        4.3132210     0.9773220     0.4183570
  C        4.3370840    -1.2508910    -0.4991240
  C        5.0300920    -0.1353830    -0.0155080
  H        0.3103430     1.7730630    -0.2708990
  H        0.3551050     1.0439550     1.3523320
  H       -1.1374380    -1.3254410     1.3139440
  H       -1.8855300     2.1916430    -1.0389860
  H       -3.5267120    -1.9532640     1.1308580
  H       -4.2733370     1.5694920    -1.2133600
  H       -6.0038750    -0.1617940    -1.0122750
  H       -5.6673980    -1.6833350    -0.1714030
  H       -6.0811880    -0.2353180     0.7521400
  H        2.3826970     1.8764090     0.7176150
  H        2.3879470    -2.1054110    -0.9150460
  H        4.8399070     1.8514100     0.7945710
  H        4.8825510    -2.1268580    -0.8422600
  H        6.1161710    -0.1361850     0.0199920
units angstrom
no_reorient  #important for SAPT in psi4, default
symmetry c1  #important for SAPT in psi4, default
}

set PROPERTIES_ORIGIN ["COM"]
properties('MP2/aug-cc-pvtz', properties = ['dipole'])
--------------------------------------------------------------------------

    Molecular point group: c1
  Charge       = 0
  Multiplicity = 1
  Basis Set: AUG-CC-PVTZ
    Blend: AUG-CC-PVTZ
  Basis Set: (AUG-CC-PVTZ AUX)
    Blend: AUG-CC-PVTZ-JKFIT

    Orbital Energies [Eh]
    ---------------------

    Doubly Occupied:

       1A    -20.583821     2A    -11.300986     3A    -11.292980
       4A    -11.246392     5A    -11.240909     6A    -11.239345
       7A    -11.238917     8A    -11.236846     9A    -11.232889
      10A    -11.231904    11A    -11.231559    12A    -11.228589
      13A    -11.227629    14A    -11.227462    15A    -11.227207
      16A     -1.404798    17A     -1.160707    18A     -1.143828
      19A     -1.064924    20A     -1.019588    21A     -1.017211
      22A     -1.008878    23A     -0.965243    24A     -0.898565
      25A     -0.832223    26A     -0.827740    27A     -0.808943
      28A     -0.784487    29A     -0.721036    30A     -0.684440
      31A     -0.671417    32A     -0.663656    33A     -0.644099
      34A     -0.628815    35A     -0.619541    36A     -0.608730
      37A     -0.586673    38A     -0.584275    39A     -0.577327
      40A     -0.562696    41A     -0.544487    42A     -0.532583
      43A     -0.523047    44A     -0.514523    45A     -0.493450
      46A     -0.488087    47A     -0.482004    48A     -0.476688
      49A     -0.463447    50A     -0.342939    51A     -0.339856
      52A     -0.318621    53A     -0.312282

  @DF-RHF Final Energy:  -613.36856450415587

   => Energetics <=

    Nuclear Repulsion Energy =            871.2803323261074411
    One-Electron Energy =               -2560.6792226905508869
    Two-Electron Energy =                1076.0303258602878032
    Total Energy =                       -613.3685645041557564
  Basis Set: (AUG-CC-PVTZ AUX)
    Blend: AUG-CC-PVTZ-RI
    Molecular point group: c1

    Geometry (in Angstrom), charge = 0, multiplicity = 1:

       Center              X                  Y                   Z               Mass
    ------------   -----------------  -----------------  -----------------  -----------------
         O            0.826077873648    -0.236210164282    -0.195042221360    15.994914619570
         C           -1.392705126352     0.487233835718     0.168794778640    12.000000000000
         C            0.052877873648     0.862134835718     0.303269778640    12.000000000000
         C           -4.115483126352    -0.230512164282    -0.045384221360    12.000000000000
         C           -1.868731126352    -0.682416164282     0.774206778640    12.000000000000
         C           -2.284375126352     1.289781835718    -0.546851221360    12.000000000000
         C           -3.163374726352    -1.021827764282     0.668504378640    12.000000000000
         C           -3.631696126352     0.937172835718    -0.645482221360    12.000000000000
         C            2.192583873648    -0.126097164282    -0.101764221360    12.000000000000
         C           -5.575006126352    -0.596323164282    -0.122873221360    12.000000000000
         C            2.874616873648     0.995941835718     0.381209778640    12.000000000000
         C            2.907755873648    -1.248737164282    -0.541111221360    12.000000000000
         C            4.273757873648     0.979446835718     0.421204778640    12.000000000000
         C            4.297620873648    -1.248766164282    -0.496276221360    12.000000000000
         C            4.990628873648    -0.133258164282    -0.012660221360    12.000000000000
         H            0.270879873648     1.775187835718    -0.268051221360     1.007825032230
         H            0.315641873648     1.046079835718     1.355179778640     1.007825032230
         H           -1.176901126352    -1.323316164282     1.316791778640     1.007825032230
         H           -1.924993126352     2.193767835718    -1.036138221360     1.007825032230
         H           -3.566175126352    -1.951139164282     1.133705778640     1.007825032230
         H           -4.312800126352     1.571616835718    -1.210512221360     1.007825032230
         H           -6.043338126352    -0.159669164282    -1.009427221360     1.007825032230
         H           -5.706861126352    -1.681210164282    -0.168555221360     1.007825032230
         H           -6.120651126352    -0.233193164282     0.754987778640     1.007825032230
         H            2.343233873648     1.878533835718     0.720462778640     1.007825032230
         H            2.348483873648    -2.103286164282    -0.912198221360     1.007825032230
         H            4.800443873648     1.853534835718     0.797418778640     1.007825032230
         H            4.843087873648    -2.124733164282    -0.839412221360     1.007825032230
         H            6.076707873648    -0.134060164282     0.022839778640     1.007825032230

  Basis Set: AUG-CC-PVTZ
    Blend: AUG-CC-PVTZ
  Basis Set: (AUG-CC-PVTZ AUX)
    Blend: AUG-CC-PVTZ-JKFIT
	 Reference Energy          =    -613.3685645041558701 [Eh]
	 Singles Energy            =      -0.0000000000000000 [Eh]
	 Same-Spin Energy          =      -0.6725446832813973 [Eh]
	 Opposite-Spin Energy      =      -2.1164707632536435 [Eh]
	 Correlation Energy        =      -2.7890154465350410 [Eh]
	 Total Energy              =    -616.1575799506908879 [Eh]

	 ================> DF-SCS-MP2 Energies <==================
	-----------------------------------------------------------
	 SCS Same-Spin Scale       =       0.3333333333333333 [-]
	 SCS Opposite-Spin Scale   =       1.2000000000000000 [-]
	 SCS Same-Spin Energy      =      -0.2241815610937991 [Eh]
	 SCS Opposite-Spin Energy  =      -2.5397649159043723 [Eh]
	 SCS Correlation Energy    =      -2.7639464769981714 [Eh]
	 SCS Total Energy          =    -616.1325109811540415 [Eh]
	-----------------------------------------------------------

  Dipole Moment: [D]
     X:    -1.0394      Y:     0.7413      Z:     0.4609     Total:     1.3573

*** Psi4 exiting successfully. Buy a developer a beer!
