                               Psi4 1.4a3.dev225

  ==> Input File <==

--------------------------------------------------------------------------
#psi4
#
memory 32 gb

molecule  {
0 1
  O        0.8655410    -0.2383350    -0.1978900
  C       -1.3532420     0.4851090     0.1659470
  C        0.0923410     0.8600100     0.3004220
  C       -4.0760200    -0.2326370    -0.0482320
  C       -1.8292680    -0.6845410     0.7713590
  C       -2.2449120     1.2876570    -0.5496990
  C       -3.2365693    -0.9792757     0.6111046
  C       -3.5922330     0.9350480    -0.6483300
  C        2.2320470    -0.1282220    -0.1046120
  C       -5.5355430    -0.5984480    -0.1257210
  C        2.9140800     0.9938170     0.3783620
  C        2.9472190    -1.2508620    -0.5439590
  C        4.3132210     0.9773220     0.4183570
  C        4.3370840    -1.2508910    -0.4991240
  C        5.0300920    -0.1353830    -0.0155080
  H        0.3103430     1.7730630    -0.2708990
  H        0.3551050     1.0439550     1.3523320
  H       -1.1374380    -1.3254410     1.3139440
  H       -1.8855300     2.1916430    -1.0389860
  H       -3.5267120    -1.9532640     1.1308580
  H       -4.2733370     1.5694920    -1.2133600
  H       -6.0038750    -0.1617940    -1.0122750
  H       -5.6673980    -1.6833350    -0.1714030
  H       -6.0811880    -0.2353180     0.7521400
  H        2.3826970     1.8764090     0.7176150
  H        2.3879470    -2.1054110    -0.9150460
  H        4.8399070     1.8514100     0.7945710
  H        4.8825510    -2.1268580    -0.8422600
  H        6.1161710    -0.1361850     0.0199920
units angstrom
no_reorient  #important for SAPT in psi4, default
symmetry c1  #important for SAPT in psi4, default
}

set PROPERTIES_ORIGIN ["COM"]
properties('MP2/aug-cc-pvtz', properties = ['dipole'])
--------------------------------------------------------------------------

    Molecular point group: c1
  Charge       = 0
  Multiplicity = 1
  Basis Set: AUG-CC-PVTZ
    Blend: AUG-CC-PVTZ
  Basis Set: (AUG-CC-PVTZ AUX)
    Blend: AUG-CC-PVTZ-JKFIT

    Orbital Energies [Eh]
    ---------------------

    Doubly Occupied:

       1A    -20.584430     2A    -11.301306     3A    -11.293249
       4A    -11.241218     5A    -11.240316     6A    -11.239662
       7A    -11.238986     8A    -11.237154     9A    -11.234167
      10A    -11.233236    11A    -11.231417    12A    -11.229431
      13A    -11.227981    14A    -11.227526    15A    -11.224536
      16A     -1.405302    17A     -1.164905    18A     -1.144875
      19A     -1.074477    20A     -1.018310    21A     -1.011667
      22A     -1.003007    23A     -0.963032    24A     -0.904596
      25A     -0.838909    26A     -0.832042    27A     -0.808488
      28A     -0.778630    29A     -0.721403    30A     -0.682952
      31A     -0.671888    32A     -0.664009    33A     -0.644575
      34A     -0.628127    35A     -0.623382    36A     -0.608767
      37A     -0.587154    38A     -0.578815    39A     -0.576933
      40A     -0.566764    41A     -0.540102    42A     -0.532469
      43A     -0.523090    44A     -0.514988    45A     -0.496314
      46A     -0.490140    47A     -0.483768    48A     -0.468587
      49A     -0.464248    50A     -0.341211    51A     -0.338811
      52A     -0.324536    53A     -0.312574

  @DF-RHF Final Energy:  -613.35800242772177

   => Energetics <=

    Nuclear Repulsion Energy =            871.6259729177244253
    One-Electron Energy =               -2561.3310260936000304
    Two-Electron Energy =                1076.3470507481538334
    Total Energy =                       -613.3580024277216580
  Basis Set: (AUG-CC-PVTZ AUX)
    Blend: AUG-CC-PVTZ-RI
    Molecular point group: c1

    Geometry (in Angstrom), charge = 0, multiplicity = 1:

       Center              X                  Y                   Z               Mass
    ------------   -----------------  -----------------  -----------------  -----------------
         O            0.832902012617    -0.238916427363    -0.191737782968    15.994914619570
         C           -1.385880987383     0.484527572637     0.172099217032    12.000000000000
         C            0.059702012617     0.859428572637     0.306574217032    12.000000000000
         C           -4.108658987383    -0.233218427363    -0.042079782968    12.000000000000
         C           -1.861906987383    -0.685122427363     0.777511217032    12.000000000000
         C           -2.277550987383     1.287075572637    -0.543546782968    12.000000000000
         C           -3.269208287383    -0.979857127363     0.617256817032    12.000000000000
         C           -3.624871987383     0.934466572637    -0.642177782968    12.000000000000
         C            2.199408012617    -0.128803427363    -0.098459782968    12.000000000000
         C           -5.568181987383    -0.599029427363    -0.119568782968    12.000000000000
         C            2.881441012617     0.993235572637     0.384514217032    12.000000000000
         C            2.914580012617    -1.251443427363    -0.537806782968    12.000000000000
         C            4.280582012617     0.976740572637     0.424509217032    12.000000000000
         C            4.304445012617    -1.251472427363    -0.492971782968    12.000000000000
         C            4.997453012617    -0.135964427363    -0.009355782968    12.000000000000
         H            0.277704012617     1.772481572637    -0.264746782968     1.007825032230
         H            0.322466012617     1.043373572637     1.358484217032     1.007825032230
         H           -1.170076987383    -1.326022427363     1.320096217032     1.007825032230
         H           -1.918168987383     2.191061572637    -1.032833782968     1.007825032230
         H           -3.559350987383    -1.953845427363     1.137010217032     1.007825032230
         H           -4.305975987383     1.568910572637    -1.207207782968     1.007825032230
         H           -6.036513987383    -0.162375427363    -1.006122782968     1.007825032230
         H           -5.700036987383    -1.683916427363    -0.165250782968     1.007825032230
         H           -6.113826987383    -0.235899427363     0.758292217032     1.007825032230
         H            2.350058012617     1.875827572637     0.723767217032     1.007825032230
         H            2.355308012617    -2.105992427363    -0.908893782968     1.007825032230
         H            4.807268012617     1.850828572637     0.800723217032     1.007825032230
         H            4.849912012617    -2.127439427363    -0.836107782968     1.007825032230
         H            6.083532012617    -0.136766427363     0.026144217032     1.007825032230

  Basis Set: AUG-CC-PVTZ
    Blend: AUG-CC-PVTZ
  Basis Set: (AUG-CC-PVTZ AUX)
    Blend: AUG-CC-PVTZ-JKFIT
	 Reference Energy          =    -613.3580024277217717 [Eh]
	 Singles Energy            =      -0.0000000000000000 [Eh]
	 Same-Spin Energy          =      -0.6727642578540761 [Eh]
	 Opposite-Spin Energy      =      -2.1170497077420167 [Eh]
	 Correlation Energy        =      -2.7898139655960930 [Eh]
	 Total Energy              =    -616.1478163933178394 [Eh]

	 ================> DF-SCS-MP2 Energies <==================
	-----------------------------------------------------------
	 SCS Same-Spin Scale       =       0.3333333333333333 [-]
	 SCS Opposite-Spin Scale   =       1.2000000000000000 [-]
	 SCS Same-Spin Energy      =      -0.2242547526180254 [Eh]
	 SCS Opposite-Spin Energy  =      -2.5404596492904199 [Eh]
	 SCS Correlation Energy    =      -2.7647144019084453 [Eh]
	 SCS Total Energy          =    -616.1227168296302352 [Eh]
	-----------------------------------------------------------

  Dipole Moment: [D]
     X:    -0.9155      Y:     0.7662      Z:     0.4651     Total:     1.2813

*** Psi4 exiting successfully. Buy a developer a beer!
