                               Psi4 1.4a3.dev225

  ==> Input File <==

--------------------------------------------------------------------------
#psi4
#
memory 32 gb

molecule  {
0 1
  O        0.8655410    -0.2383350    -0.1978900
  C       -1.3532420     0.4851090     0.1659470
  C        0.0923410     0.8600100     0.3004220
  C       -4.0455429    -0.3873081    -0.0525829
  C       -1.8292680    -0.6845410     0.7713590
  C       -2.2449120     1.2876570    -0.5496990
  C       -3.1721270    -1.0365930     0.6617200
  C       -3.5922330     0.9350480    -0.6483300
  C        2.2320470    -0.1282220    -0.1046120
  C       -5.5355430    -0.5984480    -0.1257210
  C        2.9140800     0.9938170     0.3783620
  C        2.9472190    -1.2508620    -0.5439590
  C        4.3132210     0.9773220     0.4183570
  C        4.3370840    -1.2508910    -0.4991240
  C        5.0300920    -0.1353830    -0.0155080
  H        0.3103430     1.7730630    -0.2708990
  H        0.3551050     1.0439550     1.3523320
  H       -1.1374380    -1.3254410     1.3139440
  H       -1.8855300     2.1916430    -1.0389860
  H       -3.5267120    -1.9532640     1.1308580
  H       -4.2733370     1.5694920    -1.2133600
  H       -6.0038750    -0.1617940    -1.0122750
  H       -5.6673980    -1.6833350    -0.1714030
  H       -6.0811880    -0.2353180     0.7521400
  H        2.3826970     1.8764090     0.7176150
  H        2.3879470    -2.1054110    -0.9150460
  H        4.8399070     1.8514100     0.7945710
  H        4.8825510    -2.1268580    -0.8422600
  H        6.1161710    -0.1361850     0.0199920
units angstrom
no_reorient  #important for SAPT in psi4, default
symmetry c1  #important for SAPT in psi4, default
}

set PROPERTIES_ORIGIN ["COM"]
properties('MP2/aug-cc-pvtz', properties = ['dipole'])
--------------------------------------------------------------------------

    Molecular point group: c1
  Charge       = 0
  Multiplicity = 1
  Basis Set: AUG-CC-PVTZ
    Blend: AUG-CC-PVTZ
  Basis Set: (AUG-CC-PVTZ AUX)
    Blend: AUG-CC-PVTZ-JKFIT

    Orbital Energies [Eh]
    ---------------------

    Doubly Occupied:

       1A    -20.584113     2A    -11.301074     3A    -11.293503
       4A    -11.243385     5A    -11.242675     6A    -11.241053
       7A    -11.239737     8A    -11.239487     9A    -11.236676
      10A    -11.235282    11A    -11.233054    12A    -11.227778
      13A    -11.227348    14A    -11.226535    15A    -11.220675
      16A     -1.405014    17A     -1.159533    18A     -1.143966
      19A     -1.070331    20A     -1.018290    21A     -1.013200
      22A     -1.006350    23A     -0.964034    24A     -0.902713
      25A     -0.837072    26A     -0.828612    27A     -0.805494
      28A     -0.780842    29A     -0.721294    30A     -0.684856
      31A     -0.669528    32A     -0.663839    33A     -0.643869
      34A     -0.630709    35A     -0.618982    36A     -0.609899
      37A     -0.588339    38A     -0.585531    39A     -0.577522
      40A     -0.562729    41A     -0.545197    42A     -0.535148
      43A     -0.519279    44A     -0.515695    45A     -0.499214
      46A     -0.488014    47A     -0.481176    48A     -0.465925
      49A     -0.457531    50A     -0.348358    51A     -0.339862
      52A     -0.314330    53A     -0.311606

  @DF-RHF Final Energy:  -613.34766322826442

   => Energetics <=

    Nuclear Repulsion Energy =            870.6888598995898292
    One-Electron Energy =               -2559.4605334230222979
    Two-Electron Energy =                1075.4240102951680456
    Total Energy =                       -613.3476632282645369
  Basis Set: (AUG-CC-PVTZ AUX)
    Blend: AUG-CC-PVTZ-RI
    Molecular point group: c1

    Geometry (in Angstrom), charge = 0, multiplicity = 1:

       Center              X                  Y                   Z               Mass
    ------------   -----------------  -----------------  -----------------  -----------------
         O            0.827152355235    -0.226075420478    -0.194540213492    15.994914619570
         C           -1.391630644765     0.497368579522     0.169296786508    12.000000000000
         C            0.053952355235     0.872269579522     0.303771786508    12.000000000000
         C           -4.083931544765    -0.375048520478    -0.049233113492    12.000000000000
         C           -1.867656644765    -0.672281420478     0.774708786508    12.000000000000
         C           -2.283300644765     1.299916579522    -0.546349213492    12.000000000000
         C           -3.210515644765    -1.024333420478     0.665069786508    12.000000000000
         C           -3.630621644765     0.947307579522    -0.644980213492    12.000000000000
         C            2.193658355235    -0.115962420478    -0.101262213492    12.000000000000
         C           -5.573931644765    -0.586188420478    -0.122371213492    12.000000000000
         C            2.875691355235     1.006076579522     0.381711786508    12.000000000000
         C            2.908830355235    -1.238602420478    -0.540609213492    12.000000000000
         C            4.274832355235     0.989581579522     0.421706786508    12.000000000000
         C            4.298695355235    -1.238631420478    -0.495774213492    12.000000000000
         C            4.991703355235    -0.123123420478    -0.012158213492    12.000000000000
         H            0.271954355235     1.785322579522    -0.267549213492     1.007825032230
         H            0.316716355235     1.056214579522     1.355681786508     1.007825032230
         H           -1.175826644765    -1.313181420478     1.317293786508     1.007825032230
         H           -1.923918644765     2.203902579522    -1.035636213492     1.007825032230
         H           -3.565100644765    -1.941004420478     1.134207786508     1.007825032230
         H           -4.311725644765     1.581751579522    -1.210010213492     1.007825032230
         H           -6.042263644765    -0.149534420478    -1.008925213492     1.007825032230
         H           -5.705786644765    -1.671075420478    -0.168053213492     1.007825032230
         H           -6.119576644765    -0.223058420478     0.755489786508     1.007825032230
         H            2.344308355235     1.888668579522     0.720964786508     1.007825032230
         H            2.349558355235    -2.093151420478    -0.911696213492     1.007825032230
         H            4.801518355235     1.863669579522     0.797920786508     1.007825032230
         H            4.844162355235    -2.114598420478    -0.838910213492     1.007825032230
         H            6.077782355235    -0.123925420478     0.023341786508     1.007825032230

  Basis Set: AUG-CC-PVTZ
    Blend: AUG-CC-PVTZ
  Basis Set: (AUG-CC-PVTZ AUX)
    Blend: AUG-CC-PVTZ-JKFIT
	 Reference Energy          =    -613.3476632282644232 [Eh]
	 Singles Energy            =      -0.0000000000000000 [Eh]
	 Same-Spin Energy          =      -0.6726915062712966 [Eh]
	 Opposite-Spin Energy      =      -2.1180890227020663 [Eh]
	 Correlation Energy        =      -2.7907805289733627 [Eh]
	 Total Energy              =    -616.1384437572378374 [Eh]

	 ================> DF-SCS-MP2 Energies <==================
	-----------------------------------------------------------
	 SCS Same-Spin Scale       =       0.3333333333333333 [-]
	 SCS Opposite-Spin Scale   =       1.2000000000000000 [-]
	 SCS Same-Spin Energy      =      -0.2242305020904322 [Eh]
	 SCS Opposite-Spin Energy  =      -2.5417068272424794 [Eh]
	 SCS Correlation Energy    =      -2.7659373293329117 [Eh]
	 SCS Total Energy          =    -616.1136005575973513 [Eh]
	-----------------------------------------------------------

  Dipole Moment: [D]
     X:    -0.9742      Y:     0.7899      Z:     0.4873     Total:     1.3455

*** Psi4 exiting successfully. Buy a developer a beer!
