                               Psi4 1.4a3.dev225

  ==> Input File <==

--------------------------------------------------------------------------
#psi4
#
memory 32 gb

molecule  {
0 1
  O        0.8655410    -0.2383350    -0.1978900
  C       -1.3532420     0.4851090     0.1659470
  C        0.0923410     0.8600100     0.3004220
  C       -4.0760200    -0.2326370    -0.0482320
  C       -1.8292680    -0.6845410     0.7713590
  C       -2.2449120     1.2876570    -0.5496990
  C       -3.1721270    -1.0365930     0.6617200
  C       -3.5922330     0.9350480    -0.6483300
  C        2.2320470    -0.1282220    -0.1046120
  C       -5.5355430    -0.5984480    -0.1257210
  C        2.9140800     0.9938170     0.3783620
  C        2.9472190    -1.2508620    -0.5439590
  C        4.3132210     0.9773220     0.4183570
  C        4.4370320    -1.2508931    -0.4958998
  C        5.0300920    -0.1353830    -0.0155080
  H        0.3103430     1.7730630    -0.2708990
  H        0.3551050     1.0439550     1.3523320
  H       -1.1374380    -1.3254410     1.3139440
  H       -1.8855300     2.1916430    -1.0389860
  H       -3.5267120    -1.9532640     1.1308580
  H       -4.2733370     1.5694920    -1.2133600
  H       -6.0038750    -0.1617940    -1.0122750
  H       -5.6673980    -1.6833350    -0.1714030
  H       -6.0811880    -0.2353180     0.7521400
  H        2.3826970     1.8764090     0.7176150
  H        2.3879470    -2.1054110    -0.9150460
  H        4.8399070     1.8514100     0.7945710
  H        4.8825510    -2.1268580    -0.8422600
  H        6.1161710    -0.1361850     0.0199920
units angstrom
no_reorient  #important for SAPT in psi4, default
symmetry c1  #important for SAPT in psi4, default
}

set PROPERTIES_ORIGIN ["COM"]
properties('MP2/aug-cc-pvtz', properties = ['dipole'])
--------------------------------------------------------------------------

    Molecular point group: c1
  Charge       = 0
  Multiplicity = 1
  Basis Set: AUG-CC-PVTZ
    Blend: AUG-CC-PVTZ
  Basis Set: (AUG-CC-PVTZ AUX)
    Blend: AUG-CC-PVTZ-JKFIT

    Orbital Energies [Eh]
    ---------------------

    Doubly Occupied:

       1A    -20.582095     2A    -11.299219     3A    -11.292945
       4A    -11.243608     5A    -11.242502     6A    -11.240596
       7A    -11.238876     8A    -11.237320     9A    -11.236572
      10A    -11.234690    11A    -11.234688    12A    -11.232037
      13A    -11.231856    14A    -11.225698    15A    -11.224673
      16A     -1.403561    17A     -1.158225    18A     -1.140744
      19A     -1.067245    20A     -1.016512    21A     -1.012551
      22A     -1.008302    23A     -0.962388    24A     -0.898182
      25A     -0.838951    26A     -0.832079    27A     -0.804722
      28A     -0.782847    29A     -0.721882    30A     -0.682991
      31A     -0.670032    32A     -0.663681    33A     -0.647074
      34A     -0.634353    35A     -0.619908    36A     -0.612796
      37A     -0.585001    38A     -0.583263    39A     -0.576643
      40A     -0.562175    41A     -0.542792    42A     -0.535919
      43A     -0.521972    44A     -0.498818    45A     -0.496864
      46A     -0.485936    47A     -0.483540    48A     -0.480730
      49A     -0.464607    50A     -0.336700    51A     -0.334533
      52A     -0.322214    53A     -0.313302

  @DF-RHF Final Energy:  -613.35925119507067

   => Energetics <=

    Nuclear Repulsion Energy =            869.4899455611446228
    One-Electron Energy =               -2557.0955734567723994
    Two-Electron Energy =                1074.2463767005569935
    Total Energy =                       -613.3592511950707831
  Basis Set: (AUG-CC-PVTZ AUX)
    Blend: AUG-CC-PVTZ-RI
    Molecular point group: c1

    Geometry (in Angstrom), charge = 0, multiplicity = 1:

       Center              X                  Y                   Z               Mass
    ------------   -----------------  -----------------  -----------------  -----------------
         O            0.822944217879    -0.235444356202    -0.194999068370    15.994914619570
         C           -1.395838782121     0.487999643798     0.168837931630    12.000000000000
         C            0.049744217879     0.862900643798     0.303312931630    12.000000000000
         C           -4.118616782121    -0.229746356202    -0.045341068370    12.000000000000
         C           -1.871864782121    -0.681650356202     0.774249931630    12.000000000000
         C           -2.287508782121     1.290547643798    -0.546808068370    12.000000000000
         C           -3.214723782121    -1.033702356202     0.664610931630    12.000000000000
         C           -3.634829782121     0.937938643798    -0.645439068370    12.000000000000
         C            2.189450217879    -0.125331356202    -0.101721068370    12.000000000000
         C           -5.578139782121    -0.595557356202    -0.122830068370    12.000000000000
         C            2.871483217879     0.996707643798     0.381252931630    12.000000000000
         C            2.904622217879    -1.247971356202    -0.541068068370    12.000000000000
         C            4.270624217879     0.980212643798     0.421247931630    12.000000000000
         C            4.394435217879    -1.248002456202    -0.493008868370    12.000000000000
         C            4.987495217879    -0.132492356202    -0.012617068370    12.000000000000
         H            0.267746217879     1.775953643798    -0.268008068370     1.007825032230
         H            0.312508217879     1.046845643798     1.355222931630     1.007825032230
         H           -1.180034782121    -1.322550356202     1.316834931630     1.007825032230
         H           -1.928126782121     2.194533643798    -1.036095068370     1.007825032230
         H           -3.569308782121    -1.950373356202     1.133748931630     1.007825032230
         H           -4.315933782121     1.572382643798    -1.210469068370     1.007825032230
         H           -6.046471782121    -0.158903356202    -1.009384068370     1.007825032230
         H           -5.709994782121    -1.680444356202    -0.168512068370     1.007825032230
         H           -6.123784782121    -0.232427356202     0.755030931630     1.007825032230
         H            2.340100217879     1.879299643798     0.720505931630     1.007825032230
         H            2.345350217879    -2.102520356202    -0.912155068370     1.007825032230
         H            4.797310217879     1.854300643798     0.797461931630     1.007825032230
         H            4.839954217879    -2.123967356202    -0.839369068370     1.007825032230
         H            6.073574217879    -0.133294356202     0.022882931630     1.007825032230

  Basis Set: AUG-CC-PVTZ
    Blend: AUG-CC-PVTZ
  Basis Set: (AUG-CC-PVTZ AUX)
    Blend: AUG-CC-PVTZ-JKFIT
	 Reference Energy          =    -613.3592511950706694 [Eh]
	 Singles Energy            =      -0.0000000000000000 [Eh]
	 Same-Spin Energy          =      -0.6727917018484081 [Eh]
	 Opposite-Spin Energy      =      -2.1175951884030120 [Eh]
	 Correlation Energy        =      -2.7903868902514199 [Eh]
	 Total Energy              =    -616.1496380853220671 [Eh]

	 ================> DF-SCS-MP2 Energies <==================
	-----------------------------------------------------------
	 SCS Same-Spin Scale       =       0.3333333333333333 [-]
	 SCS Opposite-Spin Scale   =       1.2000000000000000 [-]
	 SCS Same-Spin Energy      =      -0.2242639006161360 [Eh]
	 SCS Opposite-Spin Energy  =      -2.5411142260836144 [Eh]
	 SCS Correlation Energy    =      -2.7653781266997504 [Eh]
	 SCS Total Energy          =    -616.1246293217703851 [Eh]
	-----------------------------------------------------------

  Dipole Moment: [D]
     X:    -0.9550      Y:     0.7489      Z:     0.4807     Total:     1.3053

*** Psi4 exiting successfully. Buy a developer a beer!
