                               Psi4 1.4a3.dev225

  ==> Input File <==

--------------------------------------------------------------------------
#psi4
#
memory 32 gb

molecule  {
0 1
  O        0.8655410    -0.2383350    -0.1978900
  C       -1.3532420     0.4851090     0.1659470
  C        0.0923410     0.8600100     0.3004220
  C       -4.0760200    -0.2326370    -0.0482320
  C       -1.8292680    -0.6845410     0.7713590
  C       -2.2449120     1.2876570    -0.5496990
  C       -3.1519548    -1.1162760     0.7135991
  C       -3.5922330     0.9350480    -0.6483300
  C        2.2320470    -0.1282220    -0.1046120
  C       -5.5355430    -0.5984480    -0.1257210
  C        2.9140800     0.9938170     0.3783620
  C        2.9472190    -1.2508620    -0.5439590
  C        4.3132210     0.9773220     0.4183570
  C        4.3370840    -1.2508910    -0.4991240
  C        5.0300920    -0.1353830    -0.0155080
  H        0.3103430     1.7730630    -0.2708990
  H        0.3551050     1.0439550     1.3523320
  H       -1.1374380    -1.3254410     1.3139440
  H       -1.8855300     2.1916430    -1.0389860
  H       -3.5267120    -1.9532640     1.1308580
  H       -4.2733370     1.5694920    -1.2133600
  H       -6.0038750    -0.1617940    -1.0122750
  H       -5.6673980    -1.6833350    -0.1714030
  H       -6.0811880    -0.2353180     0.7521400
  H        2.3826970     1.8764090     0.7176150
  H        2.3879470    -2.1054110    -0.9150460
  H        4.8399070     1.8514100     0.7945710
  H        4.8825510    -2.1268580    -0.8422600
  H        6.1161710    -0.1361850     0.0199920
units angstrom
no_reorient  #important for SAPT in psi4, default
symmetry c1  #important for SAPT in psi4, default
}

set PROPERTIES_ORIGIN ["COM"]
properties('MP2/aug-cc-pvtz', properties = ['dipole'])
--------------------------------------------------------------------------

    Molecular point group: c1
  Charge       = 0
  Multiplicity = 1
  Basis Set: AUG-CC-PVTZ
    Blend: AUG-CC-PVTZ
  Basis Set: (AUG-CC-PVTZ AUX)
    Blend: AUG-CC-PVTZ-JKFIT

    Orbital Energies [Eh]
    ---------------------

    Doubly Occupied:

       1A    -20.583425     2A    -11.300753     3A    -11.293429
       4A    -11.253313     5A    -11.240748     6A    -11.240139
       7A    -11.239169     8A    -11.238591     9A    -11.236498
      10A    -11.234328    11A    -11.232708    12A    -11.231389
      13A    -11.227413    14A    -11.227028    15A    -11.225674
      16A     -1.404472    17A     -1.153569    18A     -1.142024
      19A     -1.062657    20A     -1.017386    21A     -1.015710
      22A     -1.008020    23A     -0.963681    24A     -0.896637
      25A     -0.836104    26A     -0.830080    27A     -0.809113
      28A     -0.780595    29A     -0.721269    30A     -0.687133
      31A     -0.669595    32A     -0.663413    33A     -0.642911
      34A     -0.640541    35A     -0.617846    36A     -0.610662
      37A     -0.588528    38A     -0.586292    39A     -0.575437
      40A     -0.563295    41A     -0.545542    42A     -0.529751
      43A     -0.522683    44A     -0.513191    45A     -0.497710
      46A     -0.484840    47A     -0.479452    48A     -0.473735
      49A     -0.462525    50A     -0.339690    51A     -0.338803
      52A     -0.315601    53A     -0.312045

  @DF-RHF Final Energy:  -613.35887042398781

   => Energetics <=

    Nuclear Repulsion Energy =            869.2945518332212487
    One-Electron Energy =               -2556.6925589021871019
    Two-Electron Energy =                1074.0391366449780435
    Total Energy =                       -613.3588704239878098
  Basis Set: (AUG-CC-PVTZ AUX)
    Blend: AUG-CC-PVTZ-RI
    Molecular point group: c1

    Geometry (in Angstrom), charge = 0, multiplicity = 1:

       Center              X                  Y                   Z               Mass
    ------------   -----------------  -----------------  -----------------  -----------------
         O            0.827776565295    -0.230617757268    -0.197946295227    15.994914619570
         C           -1.391006434705     0.492826242732     0.165890704773    12.000000000000
         C            0.054576565295     0.867727242732     0.300365704773    12.000000000000
         C           -4.113784434705    -0.224919757268    -0.048288295227    12.000000000000
         C           -1.867032434705    -0.676823757268     0.771302704773    12.000000000000
         C           -2.282676434705     1.295374242732    -0.549755295227    12.000000000000
         C           -3.189719234705    -1.108558757268     0.713542804773    12.000000000000
         C           -3.629997434705     0.942765242732    -0.648386295227    12.000000000000
         C            2.194282565295    -0.120504757268    -0.104668295227    12.000000000000
         C           -5.573307434705    -0.590730757268    -0.125777295227    12.000000000000
         C            2.876315565295     1.001534242732     0.378305704773    12.000000000000
         C            2.909454565295    -1.243144757268    -0.544015295227    12.000000000000
         C            4.275456565295     0.985039242732     0.418300704773    12.000000000000
         C            4.299319565295    -1.243173757268    -0.499180295227    12.000000000000
         C            4.992327565295    -0.127665757268    -0.015564295227    12.000000000000
         H            0.272578565295     1.780780242732    -0.270955295227     1.007825032230
         H            0.317340565295     1.051672242732     1.352275704773     1.007825032230
         H           -1.175202434705    -1.317723757268     1.313887704773     1.007825032230
         H           -1.923294434705     2.199360242732    -1.039042295227     1.007825032230
         H           -3.564476434705    -1.945546757268     1.130801704773     1.007825032230
         H           -4.311101434705     1.577209242732    -1.213416295227     1.007825032230
         H           -6.041639434705    -0.154076757268    -1.012331295227     1.007825032230
         H           -5.705162434705    -1.675617757268    -0.171459295227     1.007825032230
         H           -6.118952434705    -0.227600757268     0.752083704773     1.007825032230
         H            2.344932565295     1.884126242732     0.717558704773     1.007825032230
         H            2.350182565295    -2.097693757268    -0.915102295227     1.007825032230
         H            4.802142565295     1.859127242732     0.794514704773     1.007825032230
         H            4.844786565295    -2.119140757268    -0.842316295227     1.007825032230
         H            6.078406565295    -0.128467757268     0.019935704773     1.007825032230

  Basis Set: AUG-CC-PVTZ
    Blend: AUG-CC-PVTZ
  Basis Set: (AUG-CC-PVTZ AUX)
    Blend: AUG-CC-PVTZ-JKFIT
	 Reference Energy          =    -613.3588704239878098 [Eh]
	 Singles Energy            =      -0.0000000000000000 [Eh]
	 Same-Spin Energy          =      -0.6725029146822423 [Eh]
	 Opposite-Spin Energy      =      -2.1174002173297994 [Eh]
	 Correlation Energy        =      -2.7899031320120420 [Eh]
	 Total Energy              =    -616.1487735559998100 [Eh]

	 ================> DF-SCS-MP2 Energies <==================
	-----------------------------------------------------------
	 SCS Same-Spin Scale       =       0.3333333333333333 [-]
	 SCS Opposite-Spin Scale   =       1.2000000000000000 [-]
	 SCS Same-Spin Energy      =      -0.2241676382274141 [Eh]
	 SCS Opposite-Spin Energy  =      -2.5408802607957592 [Eh]
	 SCS Correlation Energy    =      -2.7650478990231733 [Eh]
	 SCS Total Energy          =    -616.1239183230110257 [Eh]
	-----------------------------------------------------------

  Dipole Moment: [D]
     X:    -1.0336      Y:     0.7117      Z:     0.4781     Total:     1.3429

*** Psi4 exiting successfully. Buy a developer a beer!
