                               Psi4 1.4a3.dev225

  ==> Input File <==

--------------------------------------------------------------------------
#psi4
#
memory 32 gb

molecule  {
0 1
  O        0.8655410    -0.2383350    -0.1978900
  C       -1.3532420     0.4851090     0.1659470
  C        0.0923410     0.8600100     0.3004220
  C       -4.0760200    -0.2326370    -0.0482320
  C       -1.8292680    -0.6845410     0.7713590
  C       -2.2449120     1.2876570    -0.5496990
  C       -3.1721270    -1.0365930     0.6617200
  C       -3.5922330     0.9350480    -0.6483300
  C        2.2320470    -0.1282220    -0.1046120
  C       -5.5355430    -0.5984480    -0.1257210
  C        2.9140800     0.9938170     0.3783620
  C        2.9472190    -1.2508620    -0.5439590
  C        4.3132210     0.9773220     0.4183570
  C        4.3370840    -1.2508910    -0.4991240
  C        5.0300920    -0.1353830    -0.0155080
  H        0.3103430     1.7730630    -0.2708990
  H        0.3551050     1.0439550     1.3523320
  H       -1.1374380    -1.3254410     1.3139440
  H       -1.8855300     2.1916430    -1.0389860
  H       -3.5267120    -1.9532640     1.1308580
  H       -4.2733370     1.5694920    -1.2133600
  H       -6.0038750    -0.1617940    -1.0122750
  H       -5.6673980    -1.6833350    -0.1714030
  H       -6.0811880    -0.2353180     0.7521400
  H        2.3826970     1.8764090     0.7176150
  H        2.3879470    -2.1054110    -0.9150460
  H        4.8399070     1.8514100     0.7945710
  H        4.8825510    -2.1268580    -0.8422600
  H        6.0162244    -0.1361112     0.0167251
units angstrom
no_reorient  #important for SAPT in psi4, default
symmetry c1  #important for SAPT in psi4, default
}

set PROPERTIES_ORIGIN ["COM"]
properties('MP2/aug-cc-pvtz', properties = ['dipole'])
--------------------------------------------------------------------------

    Molecular point group: c1
  Charge       = 0
  Multiplicity = 1
  Basis Set: AUG-CC-PVTZ
    Blend: AUG-CC-PVTZ
  Basis Set: (AUG-CC-PVTZ AUX)
    Blend: AUG-CC-PVTZ-JKFIT

    Orbital Energies [Eh]
    ---------------------

    Doubly Occupied:

       1A    -20.583667     2A    -11.300714     3A    -11.292974
       4A    -11.243725     5A    -11.240155     6A    -11.238973
       7A    -11.238541     8A    -11.237425     9A    -11.234835
      10A    -11.232314    11A    -11.232154    12A    -11.231991
      13A    -11.227032    14A    -11.225791    15A    -11.215165
      16A     -1.404616    17A     -1.158721    18A     -1.143951
      19A     -1.067105    20A     -1.017312    21A     -1.013607
      22A     -1.010646    23A     -0.965262    24A     -0.899851
      25A     -0.833573    26A     -0.831078    27A     -0.813899
      28A     -0.782495    29A     -0.722458    30A     -0.684499
      31A     -0.677643    32A     -0.669032    33A     -0.643424
      34A     -0.630817    35A     -0.620456    36A     -0.609953
      37A     -0.586229    38A     -0.583440    39A     -0.576907
      40A     -0.563736    41A     -0.543215    42A     -0.534123
      43A     -0.523195    44A     -0.520048    45A     -0.490971
      46A     -0.486487    47A     -0.484987    48A     -0.478480
      49A     -0.463825    50A     -0.339376    51A     -0.336636
      52A     -0.322123    53A     -0.311971

  @DF-RHF Final Energy:  -613.36568615798456

   => Energetics <=

    Nuclear Repulsion Energy =            871.3027996280985690
    One-Electron Energy =               -2560.6937688734683434
    Two-Electron Energy =                1076.0252830873853327
    Total Energy =                       -613.3656861579845554
  Basis Set: (AUG-CC-PVTZ AUX)
    Blend: AUG-CC-PVTZ-RI
    Molecular point group: c1

    Geometry (in Angstrom), charge = 0, multiplicity = 1:

       Center              X                  Y                   Z               Mass
    ------------   -----------------  -----------------  -----------------  -----------------
         O            0.829506940657    -0.235444858854    -0.194787145516    15.994914619570
         C           -1.389276059343     0.487999141146     0.169049854484    12.000000000000
         C            0.056306940657     0.862900141146     0.303524854484    12.000000000000
         C           -4.112054059343    -0.229746858854    -0.045129145516    12.000000000000
         C           -1.865302059343    -0.681650858854     0.774461854484    12.000000000000
         C           -2.280946059343     1.290547141146    -0.546596145516    12.000000000000
         C           -3.208161059343    -1.033702858854     0.664822854484    12.000000000000
         C           -3.628267059343     0.937938141146    -0.645227145516    12.000000000000
         C            2.196012940657    -0.125331858854    -0.101509145516    12.000000000000
         C           -5.571577059343    -0.595557858854    -0.122618145516    12.000000000000
         C            2.878045940657     0.996707141146     0.381464854484    12.000000000000
         C            2.911184940657    -1.247971858854    -0.540856145516    12.000000000000
         C            4.277186940657     0.980212141146     0.421459854484    12.000000000000
         C            4.301049940657    -1.248000858854    -0.496021145516    12.000000000000
         C            4.994057940657    -0.132492858854    -0.012405145516    12.000000000000
         H            0.274308940657     1.775953141146    -0.267796145516     1.007825032230
         H            0.319070940657     1.046845141146     1.355434854484     1.007825032230
         H           -1.173472059343    -1.322550858854     1.317046854484     1.007825032230
         H           -1.921564059343     2.194533141146    -1.035883145516     1.007825032230
         H           -3.562746059343    -1.950373858854     1.133960854484     1.007825032230
         H           -4.309371059343     1.572382141146    -1.210257145516     1.007825032230
         H           -6.039909059343    -0.158903858854    -1.009172145516     1.007825032230
         H           -5.703432059343    -1.680444858854    -0.168300145516     1.007825032230
         H           -6.117222059343    -0.232427858854     0.755242854484     1.007825032230
         H            2.346662940657     1.879299141146     0.720717854484     1.007825032230
         H            2.351912940657    -2.102520858854    -0.911943145516     1.007825032230
         H            4.803872940657     1.854300141146     0.797673854484     1.007825032230
         H            4.846516940657    -2.123967858854    -0.839157145516     1.007825032230
         H            5.980190340657    -0.133221058854     0.019827954484     1.007825032230

  Basis Set: AUG-CC-PVTZ
    Blend: AUG-CC-PVTZ
  Basis Set: (AUG-CC-PVTZ AUX)
    Blend: AUG-CC-PVTZ-JKFIT
	 Reference Energy          =    -613.3656861579845554 [Eh]
	 Singles Energy            =      -0.0000000000000000 [Eh]
	 Same-Spin Energy          =      -0.6725298329660111 [Eh]
	 Opposite-Spin Energy      =      -2.1160401985988373 [Eh]
	 Correlation Energy        =      -2.7885700315648485 [Eh]
	 Total Energy              =    -616.1542561895494146 [Eh]

	 ================> DF-SCS-MP2 Energies <==================
	-----------------------------------------------------------
	 SCS Same-Spin Scale       =       0.3333333333333333 [-]
	 SCS Opposite-Spin Scale   =       1.2000000000000000 [-]
	 SCS Same-Spin Energy      =      -0.2241766109886704 [Eh]
	 SCS Opposite-Spin Energy  =      -2.5392482383186046 [Eh]
	 SCS Correlation Energy    =      -2.7634248493072748 [Eh]
	 SCS Total Energy          =    -616.1291110072918400 [Eh]
	-----------------------------------------------------------

  Dipole Moment: [D]
     X:    -0.9668      Y:     0.7320      Z:     0.4728     Total:     1.3016

*** Psi4 exiting successfully. Buy a developer a beer!
