                               Psi4 1.4a3.dev225

  ==> Input File <==

--------------------------------------------------------------------------
#psi4
#
memory 32 gb

molecule  {
0 1
  O        0.8655410    -0.2383350    -0.1978900
  C       -1.3532420     0.4851090     0.1659470
  C        0.0923410     0.8600100     0.3004220
  C       -4.0760200    -0.2326370    -0.0482320
  C       -1.8292680    -0.6845410     0.7713590
  C       -2.2449120     1.2876570    -0.5496990
  C       -3.1721270    -1.0365930     0.6617200
  C       -3.5922330     0.9350480    -0.6483300
  C        2.2320470    -0.1282220    -0.1046120
  C       -5.5355430    -0.5984480    -0.1257210
  C        2.9140800     0.9938170     0.3783620
  C        2.9472190    -1.2508620    -0.5439590
  C        4.3132210     0.9773220     0.4183570
  C        4.3370840    -1.2508910    -0.4991240
  C        5.0815570    -0.2152653    -0.0466556
  H        0.3103430     1.7730630    -0.2708990
  H        0.3551050     1.0439550     1.3523320
  H       -1.1374380    -1.3254410     1.3139440
  H       -1.8855300     2.1916430    -1.0389860
  H       -3.5267120    -1.9532640     1.1308580
  H       -4.2733370     1.5694920    -1.2133600
  H       -6.0038750    -0.1617940    -1.0122750
  H       -5.6673980    -1.6833350    -0.1714030
  H       -6.0811880    -0.2353180     0.7521400
  H        2.3826970     1.8764090     0.7176150
  H        2.3879470    -2.1054110    -0.9150460
  H        4.8399070     1.8514100     0.7945710
  H        4.8825510    -2.1268580    -0.8422600
  H        6.1161710    -0.1361850     0.0199920
units angstrom
no_reorient  #important for SAPT in psi4, default
symmetry c1  #important for SAPT in psi4, default
}

set PROPERTIES_ORIGIN ["COM"]
properties('MP2/aug-cc-pvtz', properties = ['dipole'])
--------------------------------------------------------------------------

    Molecular point group: c1
  Charge       = 0
  Multiplicity = 1
  Basis Set: AUG-CC-PVTZ
    Blend: AUG-CC-PVTZ
  Basis Set: (AUG-CC-PVTZ AUX)
    Blend: AUG-CC-PVTZ-JKFIT

    Orbital Energies [Eh]
    ---------------------

    Doubly Occupied:

       1A    -20.584350     2A    -11.302129     3A    -11.293784
       4A    -11.251916     5A    -11.244033     6A    -11.239391
       7A    -11.237808     8A    -11.235439     9A    -11.235182
      10A    -11.234159    11A    -11.232444    12A    -11.232276
      13A    -11.228338    14A    -11.225995    15A    -11.225319
      16A     -1.405416    17A     -1.158768    18A     -1.139967
      19A     -1.066899    20A     -1.019725    21A     -1.013348
      22A     -1.006798    23A     -0.962664    24A     -0.898660
      25A     -0.835263    26A     -0.830717    27A     -0.809575
      28A     -0.782056    29A     -0.720356    30A     -0.683594
      31A     -0.675631    32A     -0.669432    33A     -0.642926
      34A     -0.630804    35A     -0.621016    36A     -0.607205
      37A     -0.583761    38A     -0.582159    39A     -0.577131
      40A     -0.563848    41A     -0.543541    42A     -0.542331
      43A     -0.522144    44A     -0.516128    45A     -0.488381
      46A     -0.486433    47A     -0.484373    48A     -0.472724
      49A     -0.462281    50A     -0.344312    51A     -0.336896
      52A     -0.322575    53A     -0.306233

  @DF-RHF Final Energy:  -613.35959116744016

   => Energetics <=

    Nuclear Repulsion Energy =            869.7257800456683299
    One-Electron Energy =               -2557.5334740414214139
    Two-Electron Energy =                1074.4481028283130399
    Total Energy =                       -613.3595911674401577
  Basis Set: (AUG-CC-PVTZ AUX)
    Blend: AUG-CC-PVTZ-RI
    Molecular point group: c1

    Geometry (in Angstrom), charge = 0, multiplicity = 1:

       Center              X                  Y                   Z               Mass
    ------------   -----------------  -----------------  -----------------  -----------------
         O            0.825881032048    -0.230605684849    -0.192917027463    15.994914619570
         C           -1.392901967952     0.492838315151     0.170919972537    12.000000000000
         C            0.052681032048     0.867739315151     0.305394972537    12.000000000000
         C           -4.115679967952    -0.224907684849    -0.043259027463    12.000000000000
         C           -1.868927967952    -0.676811684849     0.776331972537    12.000000000000
         C           -2.284571967952     1.295386315151    -0.544726027463    12.000000000000
         C           -3.211786967952    -1.028863684849     0.666692972537    12.000000000000
         C           -3.631892967952     0.942777315151    -0.643357027463    12.000000000000
         C            2.192387032048    -0.120492684849    -0.099639027463    12.000000000000
         C           -5.575202967952    -0.590718684849    -0.120748027463    12.000000000000
         C            2.874420032048     1.001546315151     0.383334972537    12.000000000000
         C            2.907559032048    -1.243132684849    -0.538986027463    12.000000000000
         C            4.273561032048     0.985051315151     0.423329972537    12.000000000000
         C            4.297424032048    -1.243161684849    -0.494151027463    12.000000000000
         C            5.041897032048    -0.207535984849    -0.041682627463    12.000000000000
         H            0.270683032048     1.780792315151    -0.265926027463     1.007825032230
         H            0.315445032048     1.051684315151     1.357304972537     1.007825032230
         H           -1.177097967952    -1.317711684849     1.318916972537     1.007825032230
         H           -1.925189967952     2.199372315151    -1.034013027463     1.007825032230
         H           -3.566371967952    -1.945534684849     1.135830972537     1.007825032230
         H           -4.312996967952     1.577221315151    -1.208387027463     1.007825032230
         H           -6.043534967952    -0.154064684849    -1.007302027463     1.007825032230
         H           -5.707057967952    -1.675605684849    -0.166430027463     1.007825032230
         H           -6.120847967952    -0.227588684849     0.757112972537     1.007825032230
         H            2.343037032048     1.884138315151     0.722587972537     1.007825032230
         H            2.348287032048    -2.097681684849    -0.910073027463     1.007825032230
         H            4.800247032048     1.859139315151     0.799543972537     1.007825032230
         H            4.842891032048    -2.119128684849    -0.837287027463     1.007825032230
         H            6.076511032048    -0.128455684849     0.024964972537     1.007825032230

  Basis Set: AUG-CC-PVTZ
    Blend: AUG-CC-PVTZ
  Basis Set: (AUG-CC-PVTZ AUX)
    Blend: AUG-CC-PVTZ-JKFIT
	 Reference Energy          =    -613.3595911674401577 [Eh]
	 Singles Energy            =      -0.0000000000000000 [Eh]
	 Same-Spin Energy          =      -0.6726552206189411 [Eh]
	 Opposite-Spin Energy      =      -2.1173337446839002 [Eh]
	 Correlation Energy        =      -2.7899889653028414 [Eh]
	 Total Energy              =    -616.1495801327430399 [Eh]

	 ================> DF-SCS-MP2 Energies <==================
	-----------------------------------------------------------
	 SCS Same-Spin Scale       =       0.3333333333333333 [-]
	 SCS Opposite-Spin Scale   =       1.2000000000000000 [-]
	 SCS Same-Spin Energy      =      -0.2242184068729804 [Eh]
	 SCS Opposite-Spin Energy  =      -2.5408004936206803 [Eh]
	 SCS Correlation Energy    =      -2.7650189004936605 [Eh]
	 SCS Total Energy          =    -616.1246100679338724 [Eh]
	-----------------------------------------------------------

  Dipole Moment: [D]
     X:    -1.0220      Y:     0.7911      Z:     0.4966     Total:     1.3845

*** Psi4 exiting successfully. Buy a developer a beer!
