                               Psi4 1.4a3.dev225

  ==> Input File <==

--------------------------------------------------------------------------
#psi4
#
memory 32 gb

molecule  {
0 1
  O        0.8655410    -0.2383350    -0.1978900
  C       -1.3532420     0.4851090     0.1659470
  C        0.0923410     0.8600100     0.3004220
  C       -4.0760200    -0.2326370    -0.0482320
  C       -1.8292680    -0.6845410     0.7713590
  C       -2.2449120     1.2876570    -0.5496990
  C       -3.1721270    -1.0365930     0.6617200
  C       -3.5922330     0.9350480    -0.6483300
  C        2.2320470    -0.1282220    -0.1046120
  C       -5.5355430    -0.5984480    -0.1257210
  C        2.9140800     0.9938170     0.3783620
  C        2.9472190    -1.2508620    -0.5439590
  C        4.3132210     0.9773220     0.4183570
  C        4.3370840    -1.2508910    -0.4991240
  C        5.0300920    -0.1353830    -0.0155080
  H        0.3103430     1.7730630    -0.2708990
  H        0.3551050     1.0439550     1.3523320
  H       -1.1374380    -1.3254410     1.3139440
  H       -1.8855300     2.1916430    -1.0389860
  H       -3.5267120    -1.9532640     1.1308580
  H       -4.2733370     1.5694920    -1.2133600
  H       -5.9953101    -0.1697796    -0.9960616
  H       -5.6673980    -1.6833350    -0.1714030
  H       -6.0811880    -0.2353180     0.7521400
  H        2.3826970     1.8764090     0.7176150
  H        2.3879470    -2.1054110    -0.9150460
  H        4.8399070     1.8514100     0.7945710
  H        4.8825510    -2.1268580    -0.8422600
  H        6.1161710    -0.1361850     0.0199920
units angstrom
no_reorient  #important for SAPT in psi4, default
symmetry c1  #important for SAPT in psi4, default
}

set PROPERTIES_ORIGIN ["COM"]
properties('MP2/aug-cc-pvtz', properties = ['dipole'])
--------------------------------------------------------------------------

    Molecular point group: c1
  Charge       = 0
  Multiplicity = 1
  Basis Set: AUG-CC-PVTZ
    Blend: AUG-CC-PVTZ
  Basis Set: (AUG-CC-PVTZ AUX)
    Blend: AUG-CC-PVTZ-JKFIT

    Orbital Energies [Eh]
    ---------------------

    Doubly Occupied:

       1A    -20.583865     2A    -11.300993     3A    -11.293134
       4A    -11.243670     5A    -11.240940     6A    -11.239375
       7A    -11.239044     8A    -11.237509     9A    -11.234877
      10A    -11.232923    11A    -11.232222    12A    -11.231954
      13A    -11.227657    14A    -11.227237    15A    -11.223428
      16A     -1.404827    17A     -1.158792    18A     -1.143707
      19A     -1.067208    20A     -1.017747    21A     -1.013342
      22A     -1.008465    23A     -0.964734    24A     -0.900245
      25A     -0.832936    26A     -0.831459    27A     -0.808924
      28A     -0.782551    29A     -0.721132    30A     -0.684018
      31A     -0.670611    32A     -0.663660    33A     -0.643832
      34A     -0.630977    35A     -0.620941    36A     -0.609427
      37A     -0.586748    38A     -0.583528    39A     -0.577376
      40A     -0.564042    41A     -0.545459    42A     -0.531860
      43A     -0.523028    44A     -0.514110    45A     -0.491248
      46A     -0.486761    47A     -0.485060    48A     -0.478777
      49A     -0.464181    50A     -0.339920    51A     -0.336685
      52A     -0.322193    53A     -0.312293

  @DF-RHF Final Energy:  -613.37163392870889

   => Energetics <=

    Nuclear Repulsion Energy =            870.8328046235144484
    One-Electron Energy =               -2559.7856127804711832
    Two-Electron Energy =                1075.5811742282478463
    Total Energy =                       -613.3716339287088886
  Basis Set: (AUG-CC-PVTZ AUX)
    Blend: AUG-CC-PVTZ-RI
    Molecular point group: c1

    Geometry (in Angstrom), charge = 0, multiplicity = 1:

       Center              X                  Y                   Z               Mass
    ------------   -----------------  -----------------  -----------------  -----------------
         O            0.828954905618    -0.235403857935    -0.194886248451    15.994914619570
         C           -1.389828094382     0.488040142065     0.168950751549    12.000000000000
         C            0.055754905618     0.862941142065     0.303425751549    12.000000000000
         C           -4.112606094382    -0.229705857935    -0.045228248451    12.000000000000
         C           -1.865854094382    -0.681609857935     0.774362751549    12.000000000000
         C           -2.281498094382     1.290588142065    -0.546695248451    12.000000000000
         C           -3.208713094382    -1.033661857935     0.664723751549    12.000000000000
         C           -3.628819094382     0.937979142065    -0.645326248451    12.000000000000
         C            2.195460905618    -0.125290857935    -0.101608248451    12.000000000000
         C           -5.572129094382    -0.595516857935    -0.122717248451    12.000000000000
         C            2.877493905618     0.996748142065     0.381365751549    12.000000000000
         C            2.910632905618    -1.247930857935    -0.540955248451    12.000000000000
         C            4.276634905618     0.980253142065     0.421360751549    12.000000000000
         C            4.300497905618    -1.247959857935    -0.496120248451    12.000000000000
         C            4.993505905618    -0.132451857935    -0.012504248451    12.000000000000
         H            0.273756905618     1.775994142065    -0.267895248451     1.007825032230
         H            0.318518905618     1.046886142065     1.355335751549     1.007825032230
         H           -1.174024094382    -1.322509857935     1.316947751549     1.007825032230
         H           -1.922116094382     2.194574142065    -1.035982248451     1.007825032230
         H           -3.563298094382    -1.950332857935     1.133861751549     1.007825032230
         H           -4.309923094382     1.572423142065    -1.210356248451     1.007825032230
         H           -6.031896194382    -0.166848457935    -0.993057848451     1.007825032230
         H           -5.703984094382    -1.680403857935    -0.168399248451     1.007825032230
         H           -6.117774094382    -0.232386857935     0.755143751549     1.007825032230
         H            2.346110905618     1.879340142065     0.720618751549     1.007825032230
         H            2.351360905618    -2.102479857935    -0.912042248451     1.007825032230
         H            4.803320905618     1.854341142065     0.797574751549     1.007825032230
         H            4.845964905618    -2.123926857935    -0.839256248451     1.007825032230
         H            6.079584905618    -0.133253857935     0.022995751549     1.007825032230

  Basis Set: AUG-CC-PVTZ
    Blend: AUG-CC-PVTZ
  Basis Set: (AUG-CC-PVTZ AUX)
    Blend: AUG-CC-PVTZ-JKFIT
	 Reference Energy          =    -613.3716339287088886 [Eh]
	 Singles Energy            =      -0.0000000000000000 [Eh]
	 Same-Spin Energy          =      -0.6726481594884360 [Eh]
	 Opposite-Spin Energy      =      -2.1163909677107444 [Eh]
	 Correlation Energy        =      -2.7890391271991803 [Eh]
	 Total Energy              =    -616.1606730559080916 [Eh]

	 ================> DF-SCS-MP2 Energies <==================
	-----------------------------------------------------------
	 SCS Same-Spin Scale       =       0.3333333333333333 [-]
	 SCS Opposite-Spin Scale   =       1.2000000000000000 [-]
	 SCS Same-Spin Energy      =      -0.2242160531628120 [Eh]
	 SCS Opposite-Spin Energy  =      -2.5396691612528932 [Eh]
	 SCS Correlation Energy    =      -2.7638852144157053 [Eh]
	 SCS Total Energy          =    -616.1355191431246112 [Eh]
	-----------------------------------------------------------

  Dipole Moment: [D]
     X:    -1.0127      Y:     0.7337      Z:     0.4647     Total:     1.3341

*** Psi4 exiting successfully. Buy a developer a beer!
