                               Psi4 1.4a3.dev225

  ==> Input File <==

--------------------------------------------------------------------------
#psi4
#
memory 32 gb

molecule  {
0 1
  O        0.8655410    -0.2383350    -0.1978900
  C       -1.3532420     0.4851090     0.1659470
  C        0.0923410     0.8600100     0.3004220
  C       -4.0760200    -0.2326370    -0.0482320
  C       -1.8292680    -0.6845410     0.7713590
  C       -2.2449120     1.2876570    -0.5496990
  C       -3.1721270    -1.0365930     0.6617200
  C       -3.5922330     0.9350480    -0.6483300
  C        2.2320470    -0.1282220    -0.1046120
  C       -5.5355430    -0.5984480    -0.1257210
  C        2.9140800     0.9938170     0.3783620
  C        2.9472190    -1.2508620    -0.5439590
  C        4.3132210     0.9773220     0.4183570
  C        4.3370840    -1.2508910    -0.4991240
  C        5.0300920    -0.1353830    -0.0155080
  H        0.3103430     1.7730630    -0.2708990
  H        0.3551050     1.0439550     1.3523320
  H       -1.1374380    -1.3254410     1.3139440
  H       -1.8855300     2.1916430    -1.0389860
  H       -3.5267120    -1.9532640     1.1308580
  H       -4.2733370     1.5694920    -1.2133600
  H       -5.9824628    -0.1817579    -0.9717416
  H       -5.6673980    -1.6833350    -0.1714030
  H       -6.0811880    -0.2353180     0.7521400
  H        2.3826970     1.8764090     0.7176150
  H        2.3879470    -2.1054110    -0.9150460
  H        4.8399070     1.8514100     0.7945710
  H        4.8825510    -2.1268580    -0.8422600
  H        6.1161710    -0.1361850     0.0199920
units angstrom
no_reorient  #important for SAPT in psi4, default
symmetry c1  #important for SAPT in psi4, default
}

set PROPERTIES_ORIGIN ["COM"]
properties('MP2/aug-cc-pvtz', properties = ['dipole'])
--------------------------------------------------------------------------

    Molecular point group: c1
  Charge       = 0
  Multiplicity = 1
  Basis Set: AUG-CC-PVTZ
    Blend: AUG-CC-PVTZ
  Basis Set: (AUG-CC-PVTZ AUX)
    Blend: AUG-CC-PVTZ-JKFIT

    Orbital Energies [Eh]
    ---------------------

    Doubly Occupied:

       1A    -20.583824     2A    -11.300964     3A    -11.293080
       4A    -11.243438     5A    -11.240915     6A    -11.239351
       7A    -11.238962     8A    -11.237458     9A    -11.234765
      10A    -11.232895    11A    -11.232178    12A    -11.231752
      13A    -11.227630    14A    -11.227213    15A    -11.219731
      16A     -1.404785    17A     -1.158748    18A     -1.143684
      19A     -1.067556    20A     -1.017788    21A     -1.013253
      22A     -1.008743    23A     -0.965869    24A     -0.901411
      25A     -0.832869    26A     -0.831571    27A     -0.808935
      28A     -0.782781    29A     -0.721105    30A     -0.684167
      31A     -0.670746    32A     -0.663635    33A     -0.643987
      34A     -0.630907    35A     -0.621641    36A     -0.609508
      37A     -0.586720    38A     -0.583529    39A     -0.578162
      40A     -0.564192    41A     -0.548476    42A     -0.531887
      43A     -0.523200    44A     -0.514186    45A     -0.491169
      46A     -0.486968    47A     -0.485005    48A     -0.478705
      49A     -0.464135    50A     -0.339894    51A     -0.336599
      52A     -0.322125    53A     -0.312263

  @DF-RHF Final Energy:  -613.37064822394427

   => Energetics <=

    Nuclear Repulsion Energy =            870.9690822770302248
    One-Electron Energy =               -2560.0493347662400083
    Two-Electron Energy =                1075.7096042652653978
    Total Energy =                       -613.3706482239442721
  Basis Set: (AUG-CC-PVTZ AUX)
    Blend: AUG-CC-PVTZ-RI
    Molecular point group: c1

    Geometry (in Angstrom), charge = 0, multiplicity = 1:

       Center              X                  Y                   Z               Mass
    ------------   -----------------  -----------------  -----------------  -----------------
         O            0.828889547018    -0.235342920234    -0.195009972592    15.994914619570
         C           -1.389893452982     0.488101079766     0.168827027408    12.000000000000
         C            0.055689547018     0.863002079766     0.303302027408    12.000000000000
         C           -4.112671452982    -0.229644920234    -0.045351972592    12.000000000000
         C           -1.865919452982    -0.681548920234     0.774239027408    12.000000000000
         C           -2.281563452982     1.290649079766    -0.546818972592    12.000000000000
         C           -3.208778452982    -1.033600920234     0.664600027408    12.000000000000
         C           -3.628884452982     0.938040079766    -0.645449972592    12.000000000000
         C            2.195395547018    -0.125229920234    -0.101731972592    12.000000000000
         C           -5.572194452982    -0.595455920234    -0.122840972592    12.000000000000
         C            2.877428547018     0.996809079766     0.381242027408    12.000000000000
         C            2.910567547018    -1.247869920234    -0.541078972592    12.000000000000
         C            4.276569547018     0.980314079766     0.421237027408    12.000000000000
         C            4.300432547018    -1.247898920234    -0.496243972592    12.000000000000
         C            4.993440547018    -0.132390920234    -0.012627972592    12.000000000000
         H            0.273691547018     1.776055079766    -0.268018972592     1.007825032230
         H            0.318453547018     1.046947079766     1.355212027408     1.007825032230
         H           -1.174089452982    -1.322448920234     1.316824027408     1.007825032230
         H           -1.922181452982     2.194635079766    -1.036105972592     1.007825032230
         H           -3.563363452982    -1.950271920234     1.133738027408     1.007825032230
         H           -4.309988452982     1.572484079766    -1.210479972592     1.007825032230
         H           -6.019114252982    -0.178765820234    -0.968861572592     1.007825032230
         H           -5.704049452982    -1.680342920234    -0.168522972592     1.007825032230
         H           -6.117839452982    -0.232325920234     0.755020027408     1.007825032230
         H            2.346045547018     1.879401079766     0.720495027408     1.007825032230
         H            2.351295547018    -2.102418920234    -0.912165972592     1.007825032230
         H            4.803255547018     1.854402079766     0.797451027408     1.007825032230
         H            4.845899547018    -2.123865920234    -0.839379972592     1.007825032230
         H            6.079519547018    -0.133192920234     0.022872027408     1.007825032230

  Basis Set: AUG-CC-PVTZ
    Blend: AUG-CC-PVTZ
  Basis Set: (AUG-CC-PVTZ AUX)
    Blend: AUG-CC-PVTZ-JKFIT
	 Reference Energy          =    -613.3706482239442721 [Eh]
	 Singles Energy            =      -0.0000000000000000 [Eh]
	 Same-Spin Energy          =      -0.6726467276384961 [Eh]
	 Opposite-Spin Energy      =      -2.1162189445860484 [Eh]
	 Correlation Energy        =      -2.7888656722245444 [Eh]
	 Total Energy              =    -616.1595138961688463 [Eh]

	 ================> DF-SCS-MP2 Energies <==================
	-----------------------------------------------------------
	 SCS Same-Spin Scale       =       0.3333333333333333 [-]
	 SCS Opposite-Spin Scale   =       1.2000000000000000 [-]
	 SCS Same-Spin Energy      =      -0.2242155758794987 [Eh]
	 SCS Opposite-Spin Energy  =      -2.5394627335032580 [Eh]
	 SCS Correlation Energy    =      -2.7636783093827568 [Eh]
	 SCS Total Energy          =    -616.1343265333269983 [Eh]
	-----------------------------------------------------------

  Dipole Moment: [D]
     X:    -1.0264      Y:     0.7366      Z:     0.4554     Total:     1.3429

*** Psi4 exiting successfully. Buy a developer a beer!
