                               Psi4 1.4a3.dev225

  ==> Input File <==

--------------------------------------------------------------------------
#psi4
#
memory 32 gb

molecule  {
0 1
  O        0.8655410    -0.2383350    -0.1978900
  C       -1.3532420     0.4851090     0.1659470
  C        0.0923410     0.8600100     0.3004220
  C       -4.0804307    -0.2208780    -0.0251291
  C       -1.8292680    -0.6845410     0.7713590
  C       -2.2449120     1.2876570    -0.5496990
  C       -3.1721270    -1.0365930     0.6617200
  C       -3.5922330     0.9350480    -0.6483300
  C        2.2320470    -0.1282220    -0.1046120
  C       -5.5355430    -0.5984480    -0.1257210
  C        2.9140800     0.9938170     0.3783620
  C        2.9472190    -1.2508620    -0.5439590
  C        4.3132210     0.9773220     0.4183570
  C        4.3370840    -1.2508910    -0.4991240
  C        5.0300920    -0.1353830    -0.0155080
  H        0.3103430     1.7730630    -0.2708990
  H        0.3551050     1.0439550     1.3523320
  H       -1.1374380    -1.3254410     1.3139440
  H       -1.8855300     2.1916430    -1.0389860
  H       -3.5267120    -1.9532640     1.1308580
  H       -4.2733370     1.5694920    -1.2133600
  H       -6.0038750    -0.1617940    -1.0122750
  H       -5.6673980    -1.6833350    -0.1714030
  H       -6.0811880    -0.2353180     0.7521400
  H        2.3826970     1.8764090     0.7176150
  H        2.3879470    -2.1054110    -0.9150460
  H        4.8399070     1.8514100     0.7945710
  H        4.8825510    -2.1268580    -0.8422600
  H        6.1161710    -0.1361850     0.0199920
units angstrom
no_reorient  #important for SAPT in psi4, default
symmetry c1  #important for SAPT in psi4, default
}

set PROPERTIES_ORIGIN ["COM"]
properties('MP2/aug-cc-pvtz', properties = ['dipole'])
--------------------------------------------------------------------------

    Molecular point group: c1
  Charge       = 0
  Multiplicity = 1
  Basis Set: AUG-CC-PVTZ
    Blend: AUG-CC-PVTZ
  Basis Set: (AUG-CC-PVTZ AUX)
    Blend: AUG-CC-PVTZ-JKFIT

    Orbital Energies [Eh]
    ---------------------

    Doubly Occupied:

       1A    -20.583845     2A    -11.300983     3A    -11.293119
       4A    -11.243948     5A    -11.240935     6A    -11.239371
       7A    -11.238994     8A    -11.237488     9A    -11.234922
      10A    -11.232914    11A    -11.232425    12A    -11.231892
      13A    -11.227651    14A    -11.227231    15A    -11.225903
      16A     -1.404808    17A     -1.158817    18A     -1.143704
      19A     -1.067007    20A     -1.017708    21A     -1.013397
      22A     -1.008269    23A     -0.964054    24A     -0.899510
      25A     -0.832884    26A     -0.831442    27A     -0.808850
      28A     -0.782410    29A     -0.721119    30A     -0.683902
      31A     -0.670472    32A     -0.663646    33A     -0.643738
      34A     -0.631070    35A     -0.620461    36A     -0.609344
      37A     -0.586733    38A     -0.583561    39A     -0.577113
      40A     -0.564089    41A     -0.543382    42A     -0.531538
      43A     -0.522946    44A     -0.514099    45A     -0.490609
      46A     -0.487069    47A     -0.485625    48A     -0.478484
      49A     -0.464117    50A     -0.339917    51A     -0.336737
      52A     -0.322071    53A     -0.312285

  @DF-RHF Final Energy:  -613.37144499581484

   => Energetics <=

    Nuclear Repulsion Energy =            870.7334075018025032
    One-Electron Energy =               -2559.5924909848013158
    Two-Electron Energy =                1075.4876384871840855
    Total Energy =                       -613.3714449958147270
  Basis Set: (AUG-CC-PVTZ AUX)
    Blend: AUG-CC-PVTZ-RI
    Molecular point group: c1

    Geometry (in Angstrom), charge = 0, multiplicity = 1:

       Center              X                  Y                   Z               Mass
    ------------   -----------------  -----------------  -----------------  -----------------
         O            0.829265652378    -0.236156774269    -0.196203202764    15.994914619570
         C           -1.389517347622     0.487287225731     0.167633797236    12.000000000000
         C            0.056065652378     0.862188225731     0.302108797236    12.000000000000
         C           -4.116706047622    -0.218699774269    -0.023442302764    12.000000000000
         C           -1.865543347622    -0.682362774269     0.773045797236    12.000000000000
         C           -2.281187347622     1.289835225731    -0.548012202764    12.000000000000
         C           -3.208402347622    -1.034414774269     0.663406797236    12.000000000000
         C           -3.628508347622     0.937226225731    -0.646643202764    12.000000000000
         C            2.195771652378    -0.126043774269    -0.102925202764    12.000000000000
         C           -5.571818347622    -0.596269774269    -0.124034202764    12.000000000000
         C            2.877804652378     0.995995225731     0.380048797236    12.000000000000
         C            2.910943652378    -1.248683774269    -0.542272202764    12.000000000000
         C            4.276945652378     0.979500225731     0.420043797236    12.000000000000
         C            4.300808652378    -1.248712774269    -0.497437202764    12.000000000000
         C            4.993816652378    -0.133204774269    -0.013821202764    12.000000000000
         H            0.274067652378     1.775241225731    -0.269212202764     1.007825032230
         H            0.318829652378     1.046133225731     1.354018797236     1.007825032230
         H           -1.173713347622    -1.323262774269     1.315630797236     1.007825032230
         H           -1.921805347622     2.193821225731    -1.037299202764     1.007825032230
         H           -3.562987347622    -1.951085774269     1.132544797236     1.007825032230
         H           -4.309612347622     1.571670225731    -1.211673202764     1.007825032230
         H           -6.040150347622    -0.159615774269    -1.010588202764     1.007825032230
         H           -5.703673347622    -1.681156774269    -0.169716202764     1.007825032230
         H           -6.117463347622    -0.233139774269     0.753826797236     1.007825032230
         H            2.346421652378     1.878587225731     0.719301797236     1.007825032230
         H            2.351671652378    -2.103232774269    -0.913359202764     1.007825032230
         H            4.803631652378     1.853588225731     0.796257797236     1.007825032230
         H            4.846275652378    -2.124679774269    -0.840573202764     1.007825032230
         H            6.079895652378    -0.134006774269     0.021678797236     1.007825032230

  Basis Set: AUG-CC-PVTZ
    Blend: AUG-CC-PVTZ
  Basis Set: (AUG-CC-PVTZ AUX)
    Blend: AUG-CC-PVTZ-JKFIT
	 Reference Energy          =    -613.3714449958148407 [Eh]
	 Singles Energy            =      -0.0000000000000000 [Eh]
	 Same-Spin Energy          =      -0.6726601126480043 [Eh]
	 Opposite-Spin Energy      =      -2.1165218087066049 [Eh]
	 Correlation Energy        =      -2.7891819213546092 [Eh]
	 Total Energy              =    -616.1606269171694521 [Eh]

	 ================> DF-SCS-MP2 Energies <==================
	-----------------------------------------------------------
	 SCS Same-Spin Scale       =       0.3333333333333333 [-]
	 SCS Opposite-Spin Scale   =       1.2000000000000000 [-]
	 SCS Same-Spin Energy      =      -0.2242200375493348 [Eh]
	 SCS Opposite-Spin Energy  =      -2.5398261704479257 [Eh]
	 SCS Correlation Energy    =      -2.7640462079972603 [Eh]
	 SCS Total Energy          =    -616.1354912038120801 [Eh]
	-----------------------------------------------------------

  Dipole Moment: [D]
     X:    -1.0094      Y:     0.7244      Z:     0.4612     Total:     1.3253

*** Psi4 exiting successfully. Buy a developer a beer!
