                               Psi4 1.4a3.dev225

  ==> Input File <==

--------------------------------------------------------------------------
#psi4
#
memory 32 gb

molecule  {
0 1
  O        0.8655410    -0.2383350    -0.1978900
  C       -1.3532420     0.4851090     0.1659470
  C        0.0923410     0.8600100     0.3004220
  C       -4.0760200    -0.2326370    -0.0482320
  C       -1.8292680    -0.6845410     0.7713590
  C       -2.2449120     1.2876570    -0.5496990
  C       -3.1721270    -1.0365930     0.6617200
  C       -3.5922330     0.9350480    -0.6483300
  C        2.2320470    -0.1282220    -0.1046120
  C       -5.5355430    -0.5984480    -0.1257210
  C        2.9140800     0.9938170     0.3783620
  C        2.9472190    -1.2508620    -0.5439590
  C        4.3132210     0.9773220     0.4183570
  C        4.2371360    -1.2508889    -0.5023482
  C        5.0300920    -0.1353830    -0.0155080
  H        0.3103430     1.7730630    -0.2708990
  H        0.3551050     1.0439550     1.3523320
  H       -1.1374380    -1.3254410     1.3139440
  H       -1.8855300     2.1916430    -1.0389860
  H       -3.5267120    -1.9532640     1.1308580
  H       -4.2733370     1.5694920    -1.2133600
  H       -6.0038750    -0.1617940    -1.0122750
  H       -5.6673980    -1.6833350    -0.1714030
  H       -6.0811880    -0.2353180     0.7521400
  H        2.3826970     1.8764090     0.7176150
  H        2.3879470    -2.1054110    -0.9150460
  H        4.8399070     1.8514100     0.7945710
  H        4.8825510    -2.1268580    -0.8422600
  H        6.1161710    -0.1361850     0.0199920
units angstrom
no_reorient  #important for SAPT in psi4, default
symmetry c1  #important for SAPT in psi4, default
}

set PROPERTIES_ORIGIN ["COM"]
properties('MP2/aug-cc-pvtz', properties = ['dipole'])
--------------------------------------------------------------------------

    Molecular point group: c1
  Charge       = 0
  Multiplicity = 1
  Basis Set: AUG-CC-PVTZ
    Blend: AUG-CC-PVTZ
  Basis Set: (AUG-CC-PVTZ AUX)
    Blend: AUG-CC-PVTZ-JKFIT

    Orbital Energies [Eh]
    ---------------------

    Doubly Occupied:

       1A    -20.585865     2A    -11.302904     3A    -11.293452
       4A    -11.244084     5A    -11.239402     6A    -11.239363
       7A    -11.237805     8A    -11.236811     9A    -11.235256
      10A    -11.232507    11A    -11.232367    12A    -11.230146
      13A    -11.229630    14A    -11.226061    15A    -11.217754
      16A     -1.406269    17A     -1.160249    18A     -1.149266
      19A     -1.066902    20A     -1.030302    21A     -1.013493
      22A     -1.002253    23A     -0.964161    24A     -0.901093
      25A     -0.833348    26A     -0.823188    27A     -0.814194
      28A     -0.781788    29A     -0.721093    30A     -0.684688
      31A     -0.671099    32A     -0.664251    33A     -0.645447
      34A     -0.629350    35A     -0.621116    36A     -0.602116
      37A     -0.592173    38A     -0.583816    39A     -0.577288
      40A     -0.564983    41A     -0.544132    42A     -0.532401
      43A     -0.523264    44A     -0.520116    45A     -0.487716
      46A     -0.487181    47A     -0.484792    48A     -0.468163
      49A     -0.464686    50A     -0.353506    51A     -0.337013
      52A     -0.322536    53A     -0.306771

  @DF-RHF Final Energy:  -613.35838191607104

   => Energetics <=

    Nuclear Repulsion Energy =            872.1453804597982753
    One-Electron Energy =               -2562.3683063442954335
    Two-Electron Energy =                1076.8645439684262328
    Total Energy =                       -613.3583819160710391
  Basis Set: (AUG-CC-PVTZ AUX)
    Blend: AUG-CC-PVTZ-RI
    Molecular point group: c1

    Geometry (in Angstrom), charge = 0, multiplicity = 1:

       Center              X                  Y                   Z               Mass
    ------------   -----------------  -----------------  -----------------  -----------------
         O            0.835052738497    -0.235444610613    -0.194608462333    15.994914619570
         C           -1.383730261503     0.487999389387     0.169228537667    12.000000000000
         C            0.061852738497     0.862900389387     0.303703537667    12.000000000000
         C           -4.106508261503    -0.229746610613    -0.044950462333    12.000000000000
         C           -1.859756261503    -0.681650610613     0.774640537667    12.000000000000
         C           -2.275400261503     1.290547389387    -0.546417462333    12.000000000000
         C           -3.202615261503    -1.033702610613     0.665001537667    12.000000000000
         C           -3.622721261503     0.937938389387    -0.645048462333    12.000000000000
         C            2.201558738497    -0.125331610613    -0.101330462333    12.000000000000
         C           -5.566031261503    -0.595557610613    -0.122439462333    12.000000000000
         C            2.883591738497     0.996707389387     0.381643537667    12.000000000000
         C            2.916730738497    -1.247971610613    -0.540677462333    12.000000000000
         C            4.282732738497     0.980212389387     0.421638537667    12.000000000000
         C            4.206647738497    -1.247998510613    -0.499066662333    12.000000000000
         C            4.999603738497    -0.132492610613    -0.012226462333    12.000000000000
         H            0.279854738497     1.775953389387    -0.267617462333     1.007825032230
         H            0.324616738497     1.046845389387     1.355613537667     1.007825032230
         H           -1.167926261503    -1.322550610613     1.317225537667     1.007825032230
         H           -1.916018261503     2.194533389387    -1.035704462333     1.007825032230
         H           -3.557200261503    -1.950373610613     1.134139537667     1.007825032230
         H           -4.303825261503     1.572382389387    -1.210078462333     1.007825032230
         H           -6.034363261503    -0.158903610613    -1.008993462333     1.007825032230
         H           -5.697886261503    -1.680444610613    -0.168121462333     1.007825032230
         H           -6.111676261503    -0.232427610613     0.755421537667     1.007825032230
         H            2.352208738497     1.879299389387     0.720896537667     1.007825032230
         H            2.357458738497    -2.102520610613    -0.911764462333     1.007825032230
         H            4.809418738497     1.854300389387     0.797852537667     1.007825032230
         H            4.852062738497    -2.123967610613    -0.838978462333     1.007825032230
         H            6.085682738497    -0.133294610613     0.023273537667     1.007825032230

  Basis Set: AUG-CC-PVTZ
    Blend: AUG-CC-PVTZ
  Basis Set: (AUG-CC-PVTZ AUX)
    Blend: AUG-CC-PVTZ-JKFIT
	 Reference Energy          =    -613.3583819160710391 [Eh]
	 Singles Energy            =      -0.0000000000000000 [Eh]
	 Same-Spin Energy          =      -0.6722628460202327 [Eh]
	 Opposite-Spin Energy      =      -2.1165853246335056 [Eh]
	 Correlation Energy        =      -2.7888481706537380 [Eh]
	 Total Energy              =    -616.1472300867247895 [Eh]

	 ================> DF-SCS-MP2 Energies <==================
	-----------------------------------------------------------
	 SCS Same-Spin Scale       =       0.3333333333333333 [-]
	 SCS Opposite-Spin Scale   =       1.2000000000000000 [-]
	 SCS Same-Spin Energy      =      -0.2240876153400775 [Eh]
	 SCS Opposite-Spin Energy  =      -2.5399023895602064 [Eh]
	 SCS Correlation Energy    =      -2.7639900049002839 [Eh]
	 SCS Total Energy          =    -616.1223719209713181 [Eh]
	-----------------------------------------------------------

  Dipole Moment: [D]
     X:    -1.0538      Y:     0.7214      Z:     0.4651     Total:     1.3591

*** Psi4 exiting successfully. Buy a developer a beer!
