                               Psi4 1.4a3.dev225

  ==> Input File <==

--------------------------------------------------------------------------
#psi4
#
memory 32 gb

molecule  {
0 1
  O        0.8655410    -0.2383350    -0.1978900
  C       -1.3532420     0.4851090     0.1659470
  C        0.0923410     0.8600100     0.3004220
  C       -4.0760200    -0.2326370    -0.0482320
  C       -1.8292680    -0.6845410     0.7713590
  C       -2.2449120     1.2876570    -0.5496990
  C       -3.1721270    -1.0365930     0.6617200
  C       -3.5922330     0.9350480    -0.6483300
  C        2.2320470    -0.1282220    -0.1046120
  C       -5.5355430    -0.5984480    -0.1257210
  C        2.9140800     0.9938170     0.3783620
  C        2.9472190    -1.2508620    -0.5439590
  C        4.3132210     0.9773220     0.4183570
  C        4.3370840    -1.2508910    -0.4991240
  C        5.0300920    -0.1353830    -0.0155080
  H        0.3103430     1.7730630    -0.2708990
  H        0.3551050     1.0439550     1.3523320
  H       -1.1374380    -1.3254410     1.3139440
  H       -1.8855300     2.1916430    -1.0389860
  H       -3.5267120    -1.9532640     1.1308580
  H       -4.2733370     1.5694920    -1.2133600
  H       -6.0038750    -0.1617940    -1.0122750
  H       -5.6673980    -1.6833350    -0.1714030
  H       -6.0811880    -0.2353180     0.7521400
  H        2.3826970     1.8764090     0.7176150
  H        2.3879470    -2.1054110    -0.9150460
  H        4.8399070     1.8514100     0.7945710
  H        4.8825510    -2.1268580    -0.8422600
  H        6.1361603    -0.1361998     0.0206454
units angstrom
no_reorient  #important for SAPT in psi4, default
symmetry c1  #important for SAPT in psi4, default
}

set PROPERTIES_ORIGIN ["COM"]
properties('MP2/aug-cc-pvtz', properties = ['dipole'])
--------------------------------------------------------------------------

    Molecular point group: c1
  Charge       = 0
  Multiplicity = 1
  Basis Set: AUG-CC-PVTZ
    Blend: AUG-CC-PVTZ
  Basis Set: (AUG-CC-PVTZ AUX)
    Blend: AUG-CC-PVTZ-JKFIT

    Orbital Energies [Eh]
    ---------------------

    Doubly Occupied:

       1A    -20.583953     2A    -11.301096     3A    -11.293221
       4A    -11.243858     5A    -11.241157     6A    -11.239601
       7A    -11.239132     8A    -11.237574     9A    -11.234983
      10A    -11.233088    11A    -11.232281    12A    -11.232121
      13A    -11.229597    14A    -11.227819    15A    -11.225886
      16A     -1.404918    17A     -1.158861    18A     -1.143738
      19A     -1.067017    20A     -1.017852    21A     -1.013408
      22A     -1.007940    23A     -0.963867    24A     -0.899476
      25A     -0.832934    26A     -0.831473    27A     -0.808138
      28A     -0.782405    29A     -0.720995    30A     -0.683945
      31A     -0.670367    32A     -0.661425    33A     -0.643836
      34A     -0.631077    35A     -0.620557    36A     -0.609230
      37A     -0.586893    38A     -0.583575    39A     -0.577000
      40A     -0.564041    41A     -0.543363    42A     -0.531550
      43A     -0.522892    44A     -0.512302    45A     -0.491386
      46A     -0.486635    47A     -0.485093    48A     -0.478908
      49A     -0.464309    50A     -0.340070    51A     -0.336772
      52A     -0.322273    53A     -0.312413

  @DF-RHF Final Energy:  -613.37094657655553

   => Energetics <=

    Nuclear Repulsion Energy =            870.6409880873236489
    One-Electron Energy =               -2559.4072690790490014
    Two-Electron Energy =                1075.3953344151698275
    Total Energy =                       -613.3709465765555251
  Basis Set: (AUG-CC-PVTZ AUX)
    Blend: AUG-CC-PVTZ-RI
    Molecular point group: c1

    Geometry (in Angstrom), charge = 0, multiplicity = 1:

       Center              X                  Y                   Z               Mass
    ------------   -----------------  -----------------  -----------------  -----------------
         O            0.828896785796    -0.235444408115    -0.194807089420    15.994914619570
         C           -1.389886214204     0.487999591885     0.169029910580    12.000000000000
         C            0.055696785796     0.862900591885     0.303504910580    12.000000000000
         C           -4.112664214204    -0.229746408115    -0.045149089420    12.000000000000
         C           -1.865912214204    -0.681650408115     0.774441910580    12.000000000000
         C           -2.281556214204     1.290547591885    -0.546616089420    12.000000000000
         C           -3.208771214204    -1.033702408115     0.664802910580    12.000000000000
         C           -3.628877214204     0.937938591885    -0.645247089420    12.000000000000
         C            2.195402785796    -0.125331408115    -0.101529089420    12.000000000000
         C           -5.572187214204    -0.595557408115    -0.122638089420    12.000000000000
         C            2.877435785796     0.996707591885     0.381444910580    12.000000000000
         C            2.910574785796    -1.247971408115    -0.540876089420    12.000000000000
         C            4.276576785796     0.980212591885     0.421439910580    12.000000000000
         C            4.300439785796    -1.248000408115    -0.496041089420    12.000000000000
         C            4.993447785796    -0.132492408115    -0.012425089420    12.000000000000
         H            0.273698785796     1.775953591885    -0.267816089420     1.007825032230
         H            0.318460785796     1.046845591885     1.355414910580     1.007825032230
         H           -1.174082214204    -1.322550408115     1.317026910580     1.007825032230
         H           -1.922174214204     2.194533591885    -1.035903089420     1.007825032230
         H           -3.563356214204    -1.950373408115     1.133940910580     1.007825032230
         H           -4.309981214204     1.572382591885    -1.210277089420     1.007825032230
         H           -6.040519214204    -0.158903408115    -1.009192089420     1.007825032230
         H           -5.704042214204    -1.680444408115    -0.168320089420     1.007825032230
         H           -6.117832214204    -0.232427408115     0.755222910580     1.007825032230
         H            2.346052785796     1.879299591885     0.720697910580     1.007825032230
         H            2.351302785796    -2.102520408115    -0.911963089420     1.007825032230
         H            4.803262785796     1.854300591885     0.797653910580     1.007825032230
         H            4.845906785796    -2.123967408115    -0.839177089420     1.007825032230
         H            6.099516085796    -0.133309208115     0.023728310580     1.007825032230

  Basis Set: AUG-CC-PVTZ
    Blend: AUG-CC-PVTZ
  Basis Set: (AUG-CC-PVTZ AUX)
    Blend: AUG-CC-PVTZ-JKFIT
	 Reference Energy          =    -613.3709465765555251 [Eh]
	 Singles Energy            =      -0.0000000000000000 [Eh]
	 Same-Spin Energy          =      -0.6726834067565683 [Eh]
	 Opposite-Spin Energy      =      -2.1166693938415566 [Eh]
	 Correlation Energy        =      -2.7893528005981247 [Eh]
	 Total Energy              =    -616.1602993771537058 [Eh]

	 ================> DF-SCS-MP2 Energies <==================
	-----------------------------------------------------------
	 SCS Same-Spin Scale       =       0.3333333333333333 [-]
	 SCS Opposite-Spin Scale   =       1.2000000000000000 [-]
	 SCS Same-Spin Energy      =      -0.2242278022521894 [Eh]
	 SCS Opposite-Spin Energy  =      -2.5400032726098680 [Eh]
	 SCS Correlation Energy    =      -2.7642310748620575 [Eh]
	 SCS Total Energy          =    -616.1351776514176208 [Eh]
	-----------------------------------------------------------

  Dipole Moment: [D]
     X:    -1.0125      Y:     0.7315      Z:     0.4711     Total:     1.3349

*** Psi4 exiting successfully. Buy a developer a beer!
