                               Psi4 1.4a3.dev225

  ==> Input File <==

--------------------------------------------------------------------------
#psi4
#
memory 32 gb

molecule  {
0 1
  O        0.8655410    -0.2383350    -0.1978900
  C       -1.3532420     0.4851090     0.1659470
  C        0.0923410     0.8600100     0.3004220
  C       -4.0705760    -0.2883342     0.0408048
  C       -1.8292680    -0.6845410     0.7713590
  C       -2.2449120     1.2876570    -0.5496990
  C       -3.1721270    -1.0365930     0.6617200
  C       -3.5922330     0.9350480    -0.6483300
  C        2.2320470    -0.1282220    -0.1046120
  C       -5.5355430    -0.5984480    -0.1257210
  C        2.9140800     0.9938170     0.3783620
  C        2.9472190    -1.2508620    -0.5439590
  C        4.3132210     0.9773220     0.4183570
  C        4.3370840    -1.2508910    -0.4991240
  C        5.0300920    -0.1353830    -0.0155080
  H        0.3103430     1.7730630    -0.2708990
  H        0.3551050     1.0439550     1.3523320
  H       -1.1374380    -1.3254410     1.3139440
  H       -1.8855300     2.1916430    -1.0389860
  H       -3.5267120    -1.9532640     1.1308580
  H       -4.2733370     1.5694920    -1.2133600
  H       -6.0038750    -0.1617940    -1.0122750
  H       -5.6673980    -1.6833350    -0.1714030
  H       -6.0811880    -0.2353180     0.7521400
  H        2.3826970     1.8764090     0.7176150
  H        2.3879470    -2.1054110    -0.9150460
  H        4.8399070     1.8514100     0.7945710
  H        4.8825510    -2.1268580    -0.8422600
  H        6.1161710    -0.1361850     0.0199920
units angstrom
no_reorient  #important for SAPT in psi4, default
symmetry c1  #important for SAPT in psi4, default
}

set PROPERTIES_ORIGIN ["COM"]
properties('MP2/aug-cc-pvtz', properties = ['dipole'])
--------------------------------------------------------------------------

    Molecular point group: c1
  Charge       = 0
  Multiplicity = 1
  Basis Set: AUG-CC-PVTZ
    Blend: AUG-CC-PVTZ
  Basis Set: (AUG-CC-PVTZ AUX)
    Blend: AUG-CC-PVTZ-JKFIT

    Orbital Energies [Eh]
    ---------------------

    Doubly Occupied:

       1A    -20.583756     2A    -11.300875     3A    -11.293053
       4A    -11.243309     5A    -11.240889     6A    -11.240179
       7A    -11.239331     8A    -11.238683     9A    -11.236783
      10A    -11.235177    11A    -11.232854    12A    -11.227599
      13A    -11.227184    14A    -11.226359    15A    -11.222842
      16A     -1.404680    17A     -1.159409    18A     -1.143787
      19A     -1.068929    20A     -1.017978    21A     -1.013370
      22A     -1.006986    23A     -0.963988    24A     -0.901429
      25A     -0.835854    26A     -0.829506    27A     -0.806371
      28A     -0.781806    29A     -0.721080    30A     -0.684327
      31A     -0.669819    32A     -0.663602    33A     -0.643666
      34A     -0.630946    35A     -0.619478    36A     -0.609569
      37A     -0.587229    38A     -0.585040    39A     -0.577761
      40A     -0.563901    41A     -0.544573    42A     -0.532866
      43A     -0.520493    44A     -0.515647    45A     -0.496965
      46A     -0.487834    47A     -0.482139    48A     -0.467700
      49A     -0.463942    50A     -0.344382    51A     -0.339664
      52A     -0.316178    53A     -0.311967

  @DF-RHF Final Energy:  -613.35978098583769

   => Energetics <=

    Nuclear Repulsion Energy =            870.7642971121351820
    One-Electron Energy =               -2559.6406827764299123
    Two-Electron Energy =                1075.5166046784570426
    Total Energy =                       -613.3597809858376877
  Basis Set: (AUG-CC-PVTZ AUX)
    Blend: AUG-CC-PVTZ-RI
    Molecular point group: c1

    Geometry (in Angstrom), charge = 0, multiplicity = 1:

       Center              X                  Y                   Z               Mass
    ------------   -----------------  -----------------  -----------------  -----------------
         O            0.828668712779    -0.232070675555    -0.200197089523    15.994914619570
         C           -1.390114287221     0.491373324445     0.163639910477    12.000000000000
         C            0.055468712779     0.866274324445     0.298114910477    12.000000000000
         C           -4.107448287221    -0.282069875555     0.038497710477    12.000000000000
         C           -1.866140287221    -0.678276675555     0.769051910477    12.000000000000
         C           -2.281784287221     1.293921324445    -0.552006089523    12.000000000000
         C           -3.208999287221    -1.030328675555     0.659412910477    12.000000000000
         C           -3.629105287221     0.941312324445    -0.650637089523    12.000000000000
         C            2.195174712779    -0.121957675555    -0.106919089523    12.000000000000
         C           -5.572415287221    -0.592183675555    -0.128028089523    12.000000000000
         C            2.877207712779     1.000081324445     0.376054910477    12.000000000000
         C            2.910346712779    -1.244597675555    -0.546266089523    12.000000000000
         C            4.276348712779     0.983586324445     0.416049910477    12.000000000000
         C            4.300211712779    -1.244626675555    -0.501431089523    12.000000000000
         C            4.993219712779    -0.129118675555    -0.017815089523    12.000000000000
         H            0.273470712779     1.779327324445    -0.273206089523     1.007825032230
         H            0.318232712779     1.050219324445     1.350024910477     1.007825032230
         H           -1.174310287221    -1.319176675555     1.311636910477     1.007825032230
         H           -1.922402287221     2.197907324445    -1.041293089523     1.007825032230
         H           -3.563584287221    -1.946999675555     1.128550910477     1.007825032230
         H           -4.310209287221     1.575756324445    -1.215667089523     1.007825032230
         H           -6.040747287221    -0.155529675555    -1.014582089523     1.007825032230
         H           -5.704270287221    -1.677070675555    -0.173710089523     1.007825032230
         H           -6.118060287221    -0.229053675555     0.749832910477     1.007825032230
         H            2.345824712779     1.882673324445     0.715307910477     1.007825032230
         H            2.351074712779    -2.099146675555    -0.917353089523     1.007825032230
         H            4.803034712779     1.857674324445     0.792263910477     1.007825032230
         H            4.845678712779    -2.120593675555    -0.844567089523     1.007825032230
         H            6.079298712779    -0.129920675555     0.017684910477     1.007825032230

  Basis Set: AUG-CC-PVTZ
    Blend: AUG-CC-PVTZ
  Basis Set: (AUG-CC-PVTZ AUX)
    Blend: AUG-CC-PVTZ-JKFIT
	 Reference Energy          =    -613.3597809858376877 [Eh]
	 Singles Energy            =      -0.0000000000000000 [Eh]
	 Same-Spin Energy          =      -0.6726445015757446 [Eh]
	 Opposite-Spin Energy      =      -2.1171898650567118 [Eh]
	 Correlation Energy        =      -2.7898343666324563 [Eh]
	 Total Energy              =    -616.1496153524701640 [Eh]

	 ================> DF-SCS-MP2 Energies <==================
	-----------------------------------------------------------
	 SCS Same-Spin Scale       =       0.3333333333333333 [-]
	 SCS Opposite-Spin Scale   =       1.2000000000000000 [-]
	 SCS Same-Spin Energy      =      -0.2242148338585815 [Eh]
	 SCS Opposite-Spin Energy  =      -2.5406278380680543 [Eh]
	 SCS Correlation Energy    =      -2.7648426719266359 [Eh]
	 SCS Total Energy          =    -616.1246236577643458 [Eh]
	-----------------------------------------------------------

  Dipole Moment: [D]
     X:    -1.0224      Y:     0.7440      Z:     0.4388     Total:     1.3384

*** Psi4 exiting successfully. Buy a developer a beer!
