                               Psi4 1.4a3.dev225

  ==> Input File <==

--------------------------------------------------------------------------
#psi4
#
memory 32 gb

molecule  {
0 1
  O        0.8655410    -0.2383350    -0.1978900
  C       -1.3532420     0.4851090     0.1659470
  C        0.0923410     0.8600100     0.3004220
  C       -4.0705302    -0.3167666     0.0850459
  C       -1.8292680    -0.6845410     0.7713590
  C       -2.2449120     1.2876570    -0.5496990
  C       -3.1721270    -1.0365930     0.6617200
  C       -3.5922330     0.9350480    -0.6483300
  C        2.2320470    -0.1282220    -0.1046120
  C       -5.5355430    -0.5984480    -0.1257210
  C        2.9140800     0.9938170     0.3783620
  C        2.9472190    -1.2508620    -0.5439590
  C        4.3132210     0.9773220     0.4183570
  C        4.3370840    -1.2508910    -0.4991240
  C        5.0300920    -0.1353830    -0.0155080
  H        0.3103430     1.7730630    -0.2708990
  H        0.3551050     1.0439550     1.3523320
  H       -1.1374380    -1.3254410     1.3139440
  H       -1.8855300     2.1916430    -1.0389860
  H       -3.5267120    -1.9532640     1.1308580
  H       -4.2733370     1.5694920    -1.2133600
  H       -6.0038750    -0.1617940    -1.0122750
  H       -5.6673980    -1.6833350    -0.1714030
  H       -6.0811880    -0.2353180     0.7521400
  H        2.3826970     1.8764090     0.7176150
  H        2.3879470    -2.1054110    -0.9150460
  H        4.8399070     1.8514100     0.7945710
  H        4.8825510    -2.1268580    -0.8422600
  H        6.1161710    -0.1361850     0.0199920
units angstrom
no_reorient  #important for SAPT in psi4, default
symmetry c1  #important for SAPT in psi4, default
}

set PROPERTIES_ORIGIN ["COM"]
properties('MP2/aug-cc-pvtz', properties = ['dipole'])
--------------------------------------------------------------------------

    Molecular point group: c1
  Charge       = 0
  Multiplicity = 1
  Basis Set: AUG-CC-PVTZ
    Blend: AUG-CC-PVTZ
  Basis Set: (AUG-CC-PVTZ AUX)
    Blend: AUG-CC-PVTZ-JKFIT

    Orbital Energies [Eh]
    ---------------------

    Doubly Occupied:

       1A    -20.583744     2A    -11.300840     3A    -11.293073
       4A    -11.243389     5A    -11.242377     6A    -11.240875
       7A    -11.239318     8A    -11.238788     9A    -11.236401
      10A    -11.235163    11A    -11.232837    12A    -11.227584
      13A    -11.227169    14A    -11.226983    15A    -11.218041
      16A     -1.404647    17A     -1.160167    18A     -1.143927
      19A     -1.071125    20A     -1.018168    21A     -1.013042
      22A     -1.006042    23A     -0.964052    24A     -0.903595
      25A     -0.837596    26A     -0.828238    27A     -0.805042
      28A     -0.780260    29A     -0.721055    30A     -0.684856
      31A     -0.669138    32A     -0.663595    33A     -0.643688
      34A     -0.630806    35A     -0.618578    36A     -0.609720
      37A     -0.588858    38A     -0.585787    39A     -0.578449
      40A     -0.563542    41A     -0.545878    42A     -0.533496
      43A     -0.519561    44A     -0.516448    45A     -0.499691
      46A     -0.487716    47A     -0.481754    48A     -0.464609
      49A     -0.456324    50A     -0.350000    51A     -0.339696
      52A     -0.313431    53A     -0.310986

  @DF-RHF Final Energy:  -613.34530110907565

   => Energetics <=

    Nuclear Repulsion Energy =            870.7495298332244147
    One-Electron Energy =               -2559.5893717153921898
    Two-Electron Energy =                1075.4945407730920124
    Total Energy =                       -613.3453011090757627
  Basis Set: (AUG-CC-PVTZ AUX)
    Blend: AUG-CC-PVTZ-RI
    Molecular point group: c1

    Geometry (in Angstrom), charge = 0, multiplicity = 1:

       Center              X                  Y                   Z               Mass
    ------------   -----------------  -----------------  -----------------  -----------------
         O            0.828665938485    -0.230348408468    -0.202876954410    15.994914619570
         C           -1.390117061515     0.493095591532     0.160960045590    12.000000000000
         C            0.055465938485     0.867996591532     0.295435045590    12.000000000000
         C           -4.107405261515    -0.308780008468     0.080058945590    12.000000000000
         C           -1.866143061515    -0.676554408468     0.766372045590    12.000000000000
         C           -2.281787061515     1.295643591532    -0.554685954410    12.000000000000
         C           -3.209002061515    -1.028606408468     0.656733045590    12.000000000000
         C           -3.629108061515     0.943034591532    -0.653316954410    12.000000000000
         C            2.195171938485    -0.120235408468    -0.109598954410    12.000000000000
         C           -5.572418061515    -0.590461408468    -0.130707954410    12.000000000000
         C            2.877204938485     1.001803591532     0.373375045590    12.000000000000
         C            2.910343938485    -1.242875408468    -0.548945954410    12.000000000000
         C            4.276345938485     0.985308591532     0.413370045590    12.000000000000
         C            4.300208938485    -1.242904408468    -0.504110954410    12.000000000000
         C            4.993216938485    -0.127396408468    -0.020494954410    12.000000000000
         H            0.273467938485     1.781049591532    -0.275885954410     1.007825032230
         H            0.318229938485     1.051941591532     1.347345045590     1.007825032230
         H           -1.174313061515    -1.317454408468     1.308957045590     1.007825032230
         H           -1.922405061515     2.199629591532    -1.043972954410     1.007825032230
         H           -3.563587061515    -1.945277408468     1.125871045590     1.007825032230
         H           -4.310212061515     1.577478591532    -1.218346954410     1.007825032230
         H           -6.040750061515    -0.153807408468    -1.017261954410     1.007825032230
         H           -5.704273061515    -1.675348408468    -0.176389954410     1.007825032230
         H           -6.118063061515    -0.227331408468     0.747153045590     1.007825032230
         H            2.345821938485     1.884395591532     0.712628045590     1.007825032230
         H            2.351071938485    -2.097424408468    -0.920032954410     1.007825032230
         H            4.803031938485     1.859396591532     0.789584045590     1.007825032230
         H            4.845675938485    -2.118871408468    -0.847246954410     1.007825032230
         H            6.079295938485    -0.128198408468     0.015005045590     1.007825032230

  Basis Set: AUG-CC-PVTZ
    Blend: AUG-CC-PVTZ
  Basis Set: (AUG-CC-PVTZ AUX)
    Blend: AUG-CC-PVTZ-JKFIT
	 Reference Energy          =    -613.3453011090756490 [Eh]
	 Singles Energy            =      -0.0000000000000000 [Eh]
	 Same-Spin Energy          =      -0.6724976791941800 [Eh]
	 Opposite-Spin Energy      =      -2.1178947250633895 [Eh]
	 Correlation Energy        =      -2.7903924042575694 [Eh]
	 Total Energy              =    -616.1356935133331945 [Eh]

	 ================> DF-SCS-MP2 Energies <==================
	-----------------------------------------------------------
	 SCS Same-Spin Scale       =       0.3333333333333333 [-]
	 SCS Opposite-Spin Scale   =       1.2000000000000000 [-]
	 SCS Same-Spin Energy      =      -0.2241658930647267 [Eh]
	 SCS Opposite-Spin Energy  =      -2.5414736700760674 [Eh]
	 SCS Correlation Energy    =      -2.7656395631407942 [Eh]
	 SCS Total Energy          =    -616.1109406722164294 [Eh]
	-----------------------------------------------------------

  Dipole Moment: [D]
     X:    -1.0311      Y:     0.7477      Z:     0.4250     Total:     1.3427

*** Psi4 exiting successfully. Buy a developer a beer!
