                               Psi4 1.4a3.dev225

  ==> Input File <==

--------------------------------------------------------------------------
#psi4
#
memory 32 gb

molecule  {
0 1
  O        0.8655410    -0.2383350    -0.1978900
  C       -1.3532420     0.4851090     0.1659470
  C        0.0923410     0.8600100     0.3004220
  C       -4.0760200    -0.2326370    -0.0482320
  C       -1.8292680    -0.6845410     0.7713590
  C       -2.2449120     1.2876570    -0.5496990
  C       -3.1721270    -1.0365930     0.6617200
  C       -3.5922330     0.9350480    -0.6483300
  C        2.2320470    -0.1282220    -0.1046120
  C       -5.5355430    -0.5984480    -0.1257210
  C        2.9140800     0.9938170     0.3783620
  C        2.9472190    -1.2508620    -0.5439590
  C        4.3132210     0.9773220     0.4183570
  C        4.3370840    -1.2508910    -0.4991240
  C        5.0300920    -0.1353830    -0.0155080
  H        0.3103430     1.7730630    -0.2708990
  H        0.3551050     1.0439550     1.3523320
  H       -1.1374380    -1.3254410     1.3139440
  H       -1.8855300     2.1916430    -1.0389860
  H       -3.5267120    -1.9532640     1.1308580
  H       -4.2733370     1.5694920    -1.2133600
  H       -6.0038750    -0.1617940    -1.0122750
  H       -5.6673980    -1.6833350    -0.1714030
  H       -6.0811880    -0.2353180     0.7521400
  H        2.3826970     1.8764090     0.7176150
  H        2.3982408    -2.0896824    -0.9082159
  H        4.8399070     1.8514100     0.7945710
  H        4.8825510    -2.1268580    -0.8422600
  H        6.1161710    -0.1361850     0.0199920
units angstrom
no_reorient  #important for SAPT in psi4, default
symmetry c1  #important for SAPT in psi4, default
}

set PROPERTIES_ORIGIN ["COM"]
properties('MP2/aug-cc-pvtz', properties = ['dipole'])
--------------------------------------------------------------------------

    Molecular point group: c1
  Charge       = 0
  Multiplicity = 1
  Basis Set: AUG-CC-PVTZ
    Blend: AUG-CC-PVTZ
  Basis Set: (AUG-CC-PVTZ AUX)
    Blend: AUG-CC-PVTZ-JKFIT

    Orbital Energies [Eh]
    ---------------------

    Doubly Occupied:

       1A    -20.583904     2A    -11.300838     3A    -11.293182
       4A    -11.243841     5A    -11.240901     6A    -11.239241
       7A    -11.239109     8A    -11.237553     9A    -11.234965
      10A    -11.232812    11A    -11.232265    12A    -11.232105
      13A    -11.227135    14A    -11.225872    15A    -11.225384
      16A     -1.404872    17A     -1.158844    18A     -1.143732
      19A     -1.067026    20A     -1.018276    21A     -1.013407
      22A     -1.008250    23A     -0.964139    24A     -0.899514
      25A     -0.833431    26A     -0.831895    27A     -0.809021
      28A     -0.782447    29A     -0.721643    30A     -0.683938
      31A     -0.670743    32A     -0.664957    33A     -0.643721
      34A     -0.631079    35A     -0.620604    36A     -0.609610
      37A     -0.588121    38A     -0.583559    39A     -0.577000
      40A     -0.564197    41A     -0.543327    42A     -0.532321
      43A     -0.522868    44A     -0.514062    45A     -0.491583
      46A     -0.486605    47A     -0.485069    48A     -0.478991
      49A     -0.464178    50A     -0.339856    51A     -0.336755
      52A     -0.322249    53A     -0.312230

  @DF-RHF Final Energy:  -613.37172375279999

   => Energetics <=

    Nuclear Repulsion Energy =            870.8448182806921523
    One-Electron Energy =               -2559.8066284797137087
    Two-Electron Energy =                1075.5900864462214486
    Total Energy =                       -613.3717237528001078
  Basis Set: (AUG-CC-PVTZ AUX)
    Blend: AUG-CC-PVTZ-RI
    Molecular point group: c1

    Geometry (in Angstrom), charge = 0, multiplicity = 1:

       Center              X                  Y                   Z               Mass
    ------------   -----------------  -----------------  -----------------  -----------------
         O            0.828946110114    -0.235524500165    -0.194838512401    15.994914619570
         C           -1.389836889886     0.487919499835     0.168998487599    12.000000000000
         C            0.055746110114     0.862820499835     0.303473487599    12.000000000000
         C           -4.112614889886    -0.229826500165    -0.045180512401    12.000000000000
         C           -1.865862889886    -0.681730500165     0.774410487599    12.000000000000
         C           -2.281506889886     1.290467499835    -0.546647512401    12.000000000000
         C           -3.208721889886    -1.033782500165     0.664771487599    12.000000000000
         C           -3.628827889886     0.937858499835    -0.645278512401    12.000000000000
         C            2.195452110114    -0.125411500165    -0.101560512401    12.000000000000
         C           -5.572137889886    -0.595637500165    -0.122669512401    12.000000000000
         C            2.877485110114     0.996627499835     0.381413487599    12.000000000000
         C            2.910624110114    -1.248051500165    -0.540907512401    12.000000000000
         C            4.276626110114     0.980132499835     0.421408487599    12.000000000000
         C            4.300489110114    -1.248080500165    -0.496072512401    12.000000000000
         C            4.993497110114    -0.132572500165    -0.012456512401    12.000000000000
         H            0.273748110114     1.775873499835    -0.267847512401     1.007825032230
         H            0.318510110114     1.046765499835     1.355383487599     1.007825032230
         H           -1.174032889886    -1.322630500165     1.316995487599     1.007825032230
         H           -1.922124889886     2.194453499835    -1.035934512401     1.007825032230
         H           -3.563306889886    -1.950453500165     1.133909487599     1.007825032230
         H           -4.309931889886     1.572302499835    -1.210308512401     1.007825032230
         H           -6.040469889886    -0.158983500165    -1.009223512401     1.007825032230
         H           -5.703992889886    -1.680524500165    -0.168351512401     1.007825032230
         H           -6.117782889886    -0.232507500165     0.755191487599     1.007825032230
         H            2.346102110114     1.879219499835     0.720666487599     1.007825032230
         H            2.361645910114    -2.086871900165    -0.905164412401     1.007825032230
         H            4.803312110114     1.854220499835     0.797622487599     1.007825032230
         H            4.845956110114    -2.124047500165    -0.839208512401     1.007825032230
         H            6.079576110114    -0.133374500165     0.023043487599     1.007825032230

  Basis Set: AUG-CC-PVTZ
    Blend: AUG-CC-PVTZ
  Basis Set: (AUG-CC-PVTZ AUX)
    Blend: AUG-CC-PVTZ-JKFIT
	 Reference Energy          =    -613.3717237527999941 [Eh]
	 Singles Energy            =      -0.0000000000000000 [Eh]
	 Same-Spin Energy          =      -0.6726057694261105 [Eh]
	 Opposite-Spin Energy      =      -2.1163772114571158 [Eh]
	 Correlation Energy        =      -2.7889829808832260 [Eh]
	 Total Energy              =    -616.1607067336832415 [Eh]

	 ================> DF-SCS-MP2 Energies <==================
	-----------------------------------------------------------
	 SCS Same-Spin Scale       =       0.3333333333333333 [-]
	 SCS Opposite-Spin Scale   =       1.2000000000000000 [-]
	 SCS Same-Spin Energy      =      -0.2242019231420368 [Eh]
	 SCS Opposite-Spin Energy  =      -2.5396526537485387 [Eh]
	 SCS Correlation Energy    =      -2.7638545768905756 [Eh]
	 SCS Total Energy          =    -616.1355783296905884 [Eh]
	-----------------------------------------------------------

  Dipole Moment: [D]
     X:    -1.0047      Y:     0.7295      Z:     0.4705     Total:     1.3278

*** Psi4 exiting successfully. Buy a developer a beer!
