                               Psi4 1.4a3.dev225

  ==> Input File <==

--------------------------------------------------------------------------
#psi4
#
memory 32 gb

molecule  {
0 1
  O        0.8655410    -0.2383350    -0.1978900
  C       -1.3532420     0.4851090     0.1659470
  C        0.0923410     0.8600100     0.3004220
  C       -4.1052498    -0.1316466    -0.0458005
  C       -1.8292680    -0.6845410     0.7713590
  C       -2.2449120     1.2876570    -0.5496990
  C       -3.1721270    -1.0365930     0.6617200
  C       -3.5922330     0.9350480    -0.6483300
  C        2.2320470    -0.1282220    -0.1046120
  C       -5.5355430    -0.5984480    -0.1257210
  C        2.9140800     0.9938170     0.3783620
  C        2.9472190    -1.2508620    -0.5439590
  C        4.3132210     0.9773220     0.4183570
  C        4.3370840    -1.2508910    -0.4991240
  C        5.0300920    -0.1353830    -0.0155080
  H        0.3103430     1.7730630    -0.2708990
  H        0.3551050     1.0439550     1.3523320
  H       -1.1374380    -1.3254410     1.3139440
  H       -1.8855300     2.1916430    -1.0389860
  H       -3.5267120    -1.9532640     1.1308580
  H       -4.2733370     1.5694920    -1.2133600
  H       -6.0038750    -0.1617940    -1.0122750
  H       -5.6673980    -1.6833350    -0.1714030
  H       -6.0811880    -0.2353180     0.7521400
  H        2.3826970     1.8764090     0.7176150
  H        2.3879470    -2.1054110    -0.9150460
  H        4.8399070     1.8514100     0.7945710
  H        4.8825510    -2.1268580    -0.8422600
  H        6.1161710    -0.1361850     0.0199920
units angstrom
no_reorient  #important for SAPT in psi4, default
symmetry c1  #important for SAPT in psi4, default
}

set PROPERTIES_ORIGIN ["COM"]
properties('MP2/aug-cc-pvtz', properties = ['dipole'])
--------------------------------------------------------------------------

    Molecular point group: c1
  Charge       = 0
  Multiplicity = 1
  Basis Set: AUG-CC-PVTZ
    Blend: AUG-CC-PVTZ
  Basis Set: (AUG-CC-PVTZ AUX)
    Blend: AUG-CC-PVTZ-JKFIT

    Orbital Energies [Eh]
    ---------------------

    Doubly Occupied:

       1A    -20.583971     2A    -11.301105     3A    -11.293269
       4A    -11.243278     5A    -11.240981     6A    -11.239622
       7A    -11.239412     8A    -11.239408     9A    -11.237704
      10A    -11.233926    11A    -11.232979    12A    -11.227705
      13A    -11.227278    14A    -11.226375    15A    -11.223975
      16A     -1.404961    17A     -1.159362    18A     -1.143888
      19A     -1.068610    20A     -1.017869    21A     -1.012056
      22A     -1.008741    23A     -0.964358    24A     -0.900945
      25A     -0.835996    26A     -0.827516    27A     -0.810203
      28A     -0.780086    29A     -0.721122    30A     -0.684404
      31A     -0.669999    32A     -0.663690    33A     -0.643895
      34A     -0.630957    35A     -0.620397    36A     -0.609123
      37A     -0.587202    38A     -0.584827    39A     -0.577659
      40A     -0.563506    41A     -0.544152    42A     -0.532154
      43A     -0.524537    44A     -0.513073    45A     -0.497308
      46A     -0.487354    47A     -0.480302    48A     -0.472597
      49A     -0.462281    50A     -0.341741    51A     -0.339679
      52A     -0.319483    53A     -0.312382

  @DF-RHF Final Energy:  -613.36192099401376

   => Energetics <=

    Nuclear Repulsion Energy =            870.6406007910384233
    One-Electron Energy =               -2559.3862411751201762
    Two-Electron Energy =                1075.3837193900681086
    Total Energy =                       -613.3619209940136443
  Basis Set: (AUG-CC-PVTZ AUX)
    Blend: AUG-CC-PVTZ-RI
    Molecular point group: c1

    Geometry (in Angstrom), charge = 0, multiplicity = 1:

       Center              X                  Y                   Z               Mass
    ------------   -----------------  -----------------  -----------------  -----------------
         O            0.830769047064    -0.241561886161    -0.194951051279    15.994914619570
         C           -1.388013952936     0.481882113839     0.168885948721    12.000000000000
         C            0.057569047064     0.856783113839     0.303360948721    12.000000000000
         C           -4.140021752936    -0.134873486161    -0.042861551279    12.000000000000
         C           -1.864039952936    -0.687767886161     0.774297948721    12.000000000000
         C           -2.279683952936     1.284430113839    -0.546760051279    12.000000000000
         C           -3.206898952936    -1.039819886161     0.664658948721    12.000000000000
         C           -3.627004952936     0.931821113839    -0.645391051279    12.000000000000
         C            2.197275047064    -0.131448886161    -0.101673051279    12.000000000000
         C           -5.570314952936    -0.601674886161    -0.122782051279    12.000000000000
         C            2.879308047064     0.990590113839     0.381300948721    12.000000000000
         C            2.912447047064    -1.254088886161    -0.541020051279    12.000000000000
         C            4.278449047064     0.974095113839     0.421295948721    12.000000000000
         C            4.302312047064    -1.254117886161    -0.496185051279    12.000000000000
         C            4.995320047064    -0.138609886161    -0.012569051279    12.000000000000
         H            0.275571047064     1.769836113839    -0.267960051279     1.007825032230
         H            0.320333047064     1.040728113839     1.355270948721     1.007825032230
         H           -1.172209952936    -1.328667886161     1.316882948721     1.007825032230
         H           -1.920301952936     2.188416113839    -1.036047051279     1.007825032230
         H           -3.561483952936    -1.956490886161     1.133796948721     1.007825032230
         H           -4.308108952936     1.566265113839    -1.210421051279     1.007825032230
         H           -6.038646952936    -0.165020886161    -1.009336051279     1.007825032230
         H           -5.702169952936    -1.686561886161    -0.168464051279     1.007825032230
         H           -6.115959952936    -0.238544886161     0.755078948721     1.007825032230
         H            2.347925047064     1.873182113839     0.720553948721     1.007825032230
         H            2.353175047064    -2.108637886161    -0.912107051279     1.007825032230
         H            4.805135047064     1.848183113839     0.797509948721     1.007825032230
         H            4.847779047064    -2.130084886161    -0.839321051279     1.007825032230
         H            6.081399047064    -0.139411886161     0.022930948721     1.007825032230

  Basis Set: AUG-CC-PVTZ
    Blend: AUG-CC-PVTZ
  Basis Set: (AUG-CC-PVTZ AUX)
    Blend: AUG-CC-PVTZ-JKFIT
	 Reference Energy          =    -613.3619209940137580 [Eh]
	 Singles Energy            =      -0.0000000000000000 [Eh]
	 Same-Spin Energy          =      -0.6722257401765969 [Eh]
	 Opposite-Spin Energy      =      -2.1168296893879250 [Eh]
	 Correlation Energy        =      -2.7890554295645220 [Eh]
	 Total Energy              =    -616.1509764235782995 [Eh]

	 ================> DF-SCS-MP2 Energies <==================
	-----------------------------------------------------------
	 SCS Same-Spin Scale       =       0.3333333333333333 [-]
	 SCS Opposite-Spin Scale   =       1.2000000000000000 [-]
	 SCS Same-Spin Energy      =      -0.2240752467255323 [Eh]
	 SCS Opposite-Spin Energy  =      -2.5401956272655100 [Eh]
	 SCS Correlation Energy    =      -2.7642708739910424 [Eh]
	 SCS Total Energy          =    -616.1261918680047529 [Eh]
	-----------------------------------------------------------

  Dipole Moment: [D]
     X:    -1.0093      Y:     0.6909      Z:     0.4637     Total:     1.3080

*** Psi4 exiting successfully. Buy a developer a beer!
