                               Psi4 1.4a3.dev225

  ==> Input File <==

--------------------------------------------------------------------------
#psi4
#
memory 32 gb

molecule  {
0 1
  O        0.8655410    -0.2383350    -0.1978900
  C       -1.3532420     0.4851090     0.1659470
  C        0.0923410     0.8600100     0.3004220
  C       -4.0760200    -0.2326370    -0.0482320
  C       -1.8292680    -0.6845410     0.7713590
  C       -2.2449120     1.2876570    -0.5496990
  C       -3.1721270    -1.0365930     0.6617200
  C       -3.5922330     0.9350480    -0.6483300
  C        2.2320470    -0.1282220    -0.1046120
  C       -5.5355430    -0.5984480    -0.1257210
  C        2.9140800     0.9938170     0.3783620
  C        2.9472190    -1.2508620    -0.5439590
  C        4.3132210     0.9773220     0.4183570
  C        4.3370840    -1.2508910    -0.4991240
  C        5.0300920    -0.1353830    -0.0155080
  H        0.3103430     1.7730630    -0.2708990
  H        0.3551050     1.0439550     1.3523320
  H       -1.1692312    -1.2959883     1.2890094
  H       -1.8855300     2.1916430    -1.0389860
  H       -3.5267120    -1.9532640     1.1308580
  H       -4.2733370     1.5694920    -1.2133600
  H       -6.0038750    -0.1617940    -1.0122750
  H       -5.6673980    -1.6833350    -0.1714030
  H       -6.0811880    -0.2353180     0.7521400
  H        2.3826970     1.8764090     0.7176150
  H        2.3879470    -2.1054110    -0.9150460
  H        4.8399070     1.8514100     0.7945710
  H        4.8825510    -2.1268580    -0.8422600
  H        6.1161710    -0.1361850     0.0199920
units angstrom
no_reorient  #important for SAPT in psi4, default
symmetry c1  #important for SAPT in psi4, default
}

set PROPERTIES_ORIGIN ["COM"]
properties('MP2/aug-cc-pvtz', properties = ['dipole'])
--------------------------------------------------------------------------

    Molecular point group: c1
  Charge       = 0
  Multiplicity = 1
  Basis Set: AUG-CC-PVTZ
    Blend: AUG-CC-PVTZ
  Basis Set: (AUG-CC-PVTZ AUX)
    Blend: AUG-CC-PVTZ-JKFIT

    Orbital Energies [Eh]
    ---------------------

    Doubly Occupied:

       1A    -20.584011     2A    -11.301064     3A    -11.293170
       4A    -11.243530     5A    -11.240995     6A    -11.239431
       7A    -11.238654     8A    -11.237180     9A    -11.232991
      10A    -11.232117    11A    -11.231988    12A    -11.228904
      13A    -11.227725    14A    -11.227297    15A    -11.225687
      16A     -1.404960    17A     -1.158915    18A     -1.143755
      19A     -1.067057    20A     -1.017774    21A     -1.014581
      22A     -1.008580    23A     -0.963995    24A     -0.899688
      25A     -0.834925    26A     -0.831919    27A     -0.808931
      28A     -0.783865    29A     -0.721201    30A     -0.685174
      31A     -0.670520    32A     -0.663747    33A     -0.646054
      34A     -0.633274    35A     -0.620988    36A     -0.609408
      37A     -0.586889    38A     -0.586328    39A     -0.576816
      40A     -0.563926    41A     -0.543290    42A     -0.531980
      43A     -0.522825    44A     -0.514202    45A     -0.491188
      46A     -0.488391    47A     -0.484860    48A     -0.478759
      49A     -0.464399    50A     -0.339975    51A     -0.336543
      52A     -0.322007    53A     -0.312373

  @DF-RHF Final Energy:  -613.37086027927160

   => Energetics <=

    Nuclear Repulsion Energy =            870.9903732729083004
    One-Electron Energy =               -2560.0848496688449814
    Two-Electron Energy =                1075.7236161166651982
    Total Energy =                       -613.3708602792714828
  Basis Set: (AUG-CC-PVTZ AUX)
    Blend: AUG-CC-PVTZ-RI
    Molecular point group: c1

    Geometry (in Angstrom), charge = 0, multiplicity = 1:

       Center              X                  Y                   Z               Mass
    ------------   -----------------  -----------------  -----------------  -----------------
         O            0.829160221048    -0.235594319346    -0.194676914530    15.994914619570
         C           -1.389622778952     0.487849680654     0.169160085470    12.000000000000
         C            0.055960221048     0.862750680654     0.303635085470    12.000000000000
         C           -4.112400778952    -0.229896319346    -0.045018914530    12.000000000000
         C           -1.865648778952    -0.681800319346     0.774572085470    12.000000000000
         C           -2.281292778952     1.290397680654    -0.546485914530    12.000000000000
         C           -3.208507778952    -1.033852319346     0.664933085470    12.000000000000
         C           -3.628613778952     0.937788680654    -0.645116914530    12.000000000000
         C            2.195666221048    -0.125481319346    -0.101398914530    12.000000000000
         C           -5.571923778952    -0.595707319346    -0.122507914530    12.000000000000
         C            2.877699221048     0.996557680654     0.381575085470    12.000000000000
         C            2.910838221048    -1.248121319346    -0.540745914530    12.000000000000
         C            4.276840221048     0.980062680654     0.421570085470    12.000000000000
         C            4.300703221048    -1.248150319346    -0.495910914530    12.000000000000
         C            4.993711221048    -0.132642319346    -0.012294914530    12.000000000000
         H            0.273962221048     1.775803680654    -0.267685914530     1.007825032230
         H            0.318724221048     1.046695680654     1.355545085470     1.007825032230
         H           -1.205611978952    -1.293247619346     1.292222485470     1.007825032230
         H           -1.921910778952     2.194383680654    -1.035772914530     1.007825032230
         H           -3.563092778952    -1.950523319346     1.134071085470     1.007825032230
         H           -4.309717778952     1.572232680654    -1.210146914530     1.007825032230
         H           -6.040255778952    -0.159053319346    -1.009061914530     1.007825032230
         H           -5.703778778952    -1.680594319346    -0.168189914530     1.007825032230
         H           -6.117568778952    -0.232577319346     0.755353085470     1.007825032230
         H            2.346316221048     1.879149680654     0.720828085470     1.007825032230
         H            2.351566221048    -2.102670319346    -0.911832914530     1.007825032230
         H            4.803526221048     1.854150680654     0.797784085470     1.007825032230
         H            4.846170221048    -2.124117319346    -0.839046914530     1.007825032230
         H            6.079790221048    -0.133444319346     0.023205085470     1.007825032230

  Basis Set: AUG-CC-PVTZ
    Blend: AUG-CC-PVTZ
  Basis Set: (AUG-CC-PVTZ AUX)
    Blend: AUG-CC-PVTZ-JKFIT
	 Reference Energy          =    -613.3708602792715965 [Eh]
	 Singles Energy            =      -0.0000000000000000 [Eh]
	 Same-Spin Energy          =      -0.6725328530346596 [Eh]
	 Opposite-Spin Energy      =      -2.1161684702211256 [Eh]
	 Correlation Energy        =      -2.7887013232557853 [Eh]
	 Total Energy              =    -616.1595616025273330 [Eh]

	 ================> DF-SCS-MP2 Energies <==================
	-----------------------------------------------------------
	 SCS Same-Spin Scale       =       0.3333333333333333 [-]
	 SCS Opposite-Spin Scale   =       1.2000000000000000 [-]
	 SCS Same-Spin Energy      =      -0.2241776176782199 [Eh]
	 SCS Opposite-Spin Energy  =      -2.5394021642653506 [Eh]
	 SCS Correlation Energy    =      -2.7635797819435703 [Eh]
	 SCS Total Energy          =    -616.1344400612151730 [Eh]
	-----------------------------------------------------------

  Dipole Moment: [D]
     X:    -0.9921      Y:     0.7264      Z:     0.4795     Total:     1.3198

*** Psi4 exiting successfully. Buy a developer a beer!
