                               Psi4 1.4a3.dev225

  ==> Input File <==

--------------------------------------------------------------------------
#psi4
#
memory 32 gb

molecule  {
0 1
  O        0.8655410    -0.2383350    -0.1978900
  C       -1.3532420     0.4851090     0.1659470
  C        0.0923410     0.8600100     0.3004220
  C       -4.0760200    -0.2326370    -0.0482320
  C       -1.8292680    -0.6845410     0.7713590
  C       -2.2449120     1.2876570    -0.5496990
  C       -3.1721270    -1.0365930     0.6617200
  C       -3.5922330     0.9350480    -0.6483300
  C        2.2320470    -0.1282220    -0.1046120
  C       -5.5355430    -0.5984480    -0.1257210
  C        2.9140800     0.9938170     0.3783620
  C        2.9472190    -1.2508620    -0.5439590
  C        4.3132210     0.9773220     0.4183570
  C        4.3370840    -1.2508910    -0.4991240
  C        5.0300920    -0.1353830    -0.0155080
  H        0.3103430     1.7730630    -0.2708990
  H        0.3551050     1.0439550     1.3523320
  H       -1.1374380    -1.3254410     1.3139440
  H       -1.8855300     2.1916430    -1.0389860
  H       -3.5267120    -1.9532640     1.1308580
  H       -4.2733370     1.5694920    -1.2133600
  H       -6.0038750    -0.1617940    -1.0122750
  H       -5.6673980    -1.6833350    -0.1714030
  H       -6.0811880    -0.2353180     0.7521400
  H        2.3826970     1.8764090     0.7176150
  H        2.4908848    -1.9481254    -0.8467449
  H        4.8399070     1.8514100     0.7945710
  H        4.8825510    -2.1268580    -0.8422600
  H        6.1161710    -0.1361850     0.0199920
units angstrom
no_reorient  #important for SAPT in psi4, default
symmetry c1  #important for SAPT in psi4, default
}

set PROPERTIES_ORIGIN ["COM"]
properties('MP2/aug-cc-pvtz', properties = ['dipole'])
--------------------------------------------------------------------------

    Molecular point group: c1
  Charge       = 0
  Multiplicity = 1
  Basis Set: AUG-CC-PVTZ
    Blend: AUG-CC-PVTZ
  Basis Set: (AUG-CC-PVTZ AUX)
    Blend: AUG-CC-PVTZ-JKFIT

    Orbital Energies [Eh]
    ---------------------

    Doubly Occupied:

       1A    -20.584087     2A    -11.299787     3A    -11.293303
       4A    -11.243889     5A    -11.240705     6A    -11.239161
       7A    -11.238415     8A    -11.237605     9A    -11.235032
      10A    -11.232314    11A    -11.232160    12A    -11.231886
      13A    -11.226292    14A    -11.225909    15A    -11.204275
      16A     -1.405106    17A     -1.159085    18A     -1.144637
      19A     -1.067184    20A     -1.026413    21A     -1.013421
      22A     -1.007850    23A     -0.965321    24A     -0.899580
      25A     -0.846434    26A     -0.832480    27A     -0.809990
      28A     -0.782858    29A     -0.728769    30A     -0.684491
      31A     -0.681595    32A     -0.669511    33A     -0.643585
      34A     -0.631637    35A     -0.621532    36A     -0.612876
      37A     -0.596525    38A     -0.583617    39A     -0.577082
      40A     -0.565397    41A     -0.543320    42A     -0.535692
      43A     -0.522875    44A     -0.514165    45A     -0.493257
      46A     -0.486601    47A     -0.485008    48A     -0.479836
      49A     -0.463991    50A     -0.339482    51A     -0.336807
      52A     -0.322294    53A     -0.311788

  @DF-RHF Final Energy:  -613.33673435450362

   => Energetics <=

    Nuclear Repulsion Energy =            871.8706408663833827
    One-Electron Energy =               -2561.7009376530290865
    Two-Electron Energy =                1076.4935624321421983
    Total Energy =                       -613.3367343545035055
  Basis Set: (AUG-CC-PVTZ AUX)
    Blend: AUG-CC-PVTZ-RI
    Molecular point group: c1

    Geometry (in Angstrom), charge = 0, multiplicity = 1:

       Center              X                  Y                   Z               Mass
    ------------   -----------------  -----------------  -----------------  -----------------
         O            0.828474798464    -0.236244648941    -0.195151236360    15.994914619570
         C           -1.390308201536     0.487199351059     0.168685763640    12.000000000000
         C            0.055274798464     0.862100351059     0.303160763640    12.000000000000
         C           -4.113086201536    -0.230546648941    -0.045493236360    12.000000000000
         C           -1.866334201536    -0.682450648941     0.774097763640    12.000000000000
         C           -2.281978201536     1.289747351059    -0.546960236360    12.000000000000
         C           -3.209193201536    -1.034502648941     0.664458763640    12.000000000000
         C           -3.629299201536     0.937138351059    -0.645591236360    12.000000000000
         C            2.194980798464    -0.126131648941    -0.101873236360    12.000000000000
         C           -5.572609201536    -0.596357648941    -0.122982236360    12.000000000000
         C            2.877013798464     0.995907351059     0.381100763640    12.000000000000
         C            2.910152798464    -1.248771648941    -0.541220236360    12.000000000000
         C            4.276154798464     0.979412351059     0.421095763640    12.000000000000
         C            4.300017798464    -1.248800648941    -0.496385236360    12.000000000000
         C            4.993025798464    -0.133292648941    -0.012769236360    12.000000000000
         H            0.273276798464     1.775153351059    -0.268160236360     1.007825032230
         H            0.318038798464     1.046045351059     1.355070763640     1.007825032230
         H           -1.174504201536    -1.323350648941     1.316682763640     1.007825032230
         H           -1.922596201536     2.193733351059    -1.036247236360     1.007825032230
         H           -3.563778201536    -1.951173648941     1.133596763640     1.007825032230
         H           -4.310403201536     1.571582351059    -1.210621236360     1.007825032230
         H           -6.040941201536    -0.159703648941    -1.009536236360     1.007825032230
         H           -5.704464201536    -1.681244648941    -0.168664236360     1.007825032230
         H           -6.118254201536    -0.233227648941     0.754878763640     1.007825032230
         H            2.345630798464     1.878499351059     0.720353763640     1.007825032230
         H            2.453818598464    -1.946035048941    -0.844006136360     1.007825032230
         H            4.802840798464     1.853500351059     0.797309763640     1.007825032230
         H            4.845484798464    -2.124767648941    -0.839521236360     1.007825032230
         H            6.079104798464    -0.134094648941     0.022730763640     1.007825032230

  Basis Set: AUG-CC-PVTZ
    Blend: AUG-CC-PVTZ
  Basis Set: (AUG-CC-PVTZ AUX)
    Blend: AUG-CC-PVTZ-JKFIT
	 Reference Energy          =    -613.3367343545036192 [Eh]
	 Singles Energy            =      -0.0000000000000000 [Eh]
	 Same-Spin Energy          =      -0.6723828366606792 [Eh]
	 Opposite-Spin Energy      =      -2.1159557798945121 [Eh]
	 Correlation Energy        =      -2.7883386165551913 [Eh]
	 Total Energy              =    -616.1250729710587848 [Eh]

	 ================> DF-SCS-MP2 Energies <==================
	-----------------------------------------------------------
	 SCS Same-Spin Scale       =       0.3333333333333333 [-]
	 SCS Opposite-Spin Scale   =       1.2000000000000000 [-]
	 SCS Same-Spin Energy      =      -0.2241276122202264 [Eh]
	 SCS Opposite-Spin Energy  =      -2.5391469358734144 [Eh]
	 SCS Correlation Energy    =      -2.7632745480936407 [Eh]
	 SCS Total Energy          =    -616.1000089025972102 [Eh]
	-----------------------------------------------------------

  Dipole Moment: [D]
     X:    -1.0109      Y:     0.7287      Z:     0.4707     Total:     1.3321

*** Psi4 exiting successfully. Buy a developer a beer!
