                               Psi4 1.4a3.dev225

  ==> Input File <==

--------------------------------------------------------------------------
#psi4
#
memory 32 gb

molecule  {
0 1
  O        0.8655410    -0.2383350    -0.1978900
  C       -1.3532420     0.4851090     0.1659470
  C        0.0923410     0.8600100     0.3004220
  C       -4.0760200    -0.2326370    -0.0482320
  C       -1.8292680    -0.6845410     0.7713590
  C       -2.2449120     1.2876570    -0.5496990
  C       -3.1721270    -1.0365930     0.6617200
  C       -3.5230792     1.1019600    -0.7341096
  C        2.2320470    -0.1282220    -0.1046120
  C       -5.5355430    -0.5984480    -0.1257210
  C        2.9140800     0.9938170     0.3783620
  C        2.9472190    -1.2508620    -0.5439590
  C        4.3132210     0.9773220     0.4183570
  C        4.3370840    -1.2508910    -0.4991240
  C        5.0300920    -0.1353830    -0.0155080
  H        0.3103430     1.7730630    -0.2708990
  H        0.3551050     1.0439550     1.3523320
  H       -1.1374380    -1.3254410     1.3139440
  H       -1.8855300     2.1916430    -1.0389860
  H       -3.5267120    -1.9532640     1.1308580
  H       -4.2733370     1.5694920    -1.2133600
  H       -6.0038750    -0.1617940    -1.0122750
  H       -5.6673980    -1.6833350    -0.1714030
  H       -6.0811880    -0.2353180     0.7521400
  H        2.3826970     1.8764090     0.7176150
  H        2.3879470    -2.1054110    -0.9150460
  H        4.8399070     1.8514100     0.7945710
  H        4.8825510    -2.1268580    -0.8422600
  H        6.1161710    -0.1361850     0.0199920
units angstrom
no_reorient  #important for SAPT in psi4, default
symmetry c1  #important for SAPT in psi4, default
}

set PROPERTIES_ORIGIN ["COM"]
properties('MP2/aug-cc-pvtz', properties = ['dipole'])
--------------------------------------------------------------------------

    Molecular point group: c1
  Charge       = 0
  Multiplicity = 1
  Basis Set: AUG-CC-PVTZ
    Blend: AUG-CC-PVTZ
  Basis Set: (AUG-CC-PVTZ AUX)
    Blend: AUG-CC-PVTZ-JKFIT

    Orbital Energies [Eh]
    ---------------------

    Doubly Occupied:

       1A    -20.582793     2A    -11.300250     3A    -11.292440
       4A    -11.260588     5A    -11.240405     6A    -11.238877
       7A    -11.237981     8A    -11.236461     9A    -11.234921
      10A    -11.232276    11A    -11.229267    12A    -11.229177
      13A    -11.228040    14A    -11.227101    15A    -11.226710
      16A     -1.403801    17A     -1.153896    18A     -1.141742
      19A     -1.057024    20A     -1.030853    21A     -1.016641
      22A     -1.006365    23A     -0.965783    24A     -0.893543
      25A     -0.832877    26A     -0.828883    27A     -0.805546
      28A     -0.782728    29A     -0.720280    30A     -0.691882
      31A     -0.672909    32A     -0.662949    33A     -0.642147
      34A     -0.638830    35A     -0.620344    36A     -0.607172
      37A     -0.592294    38A     -0.586176    39A     -0.575240
      40A     -0.561052    41A     -0.549879    42A     -0.529285
      43A     -0.519384    44A     -0.513652    45A     -0.501245
      46A     -0.486564    47A     -0.480165    48A     -0.464284
      49A     -0.446999    50A     -0.354508    51A     -0.339312
      52A     -0.311795    53A     -0.303373

  @DF-RHF Final Energy:  -613.32954769621381

   => Energetics <=

    Nuclear Repulsion Energy =            869.0345151119577167
    One-Electron Energy =               -2556.1507479716565285
    Two-Electron Energy =                1073.7866851634851173
    Total Energy =                       -613.3295476962136945
  Basis Set: (AUG-CC-PVTZ AUX)
    Blend: AUG-CC-PVTZ-RI
    Molecular point group: c1

    Geometry (in Angstrom), charge = 0, multiplicity = 1:

       Center              X                  Y                   Z               Mass
    ------------   -----------------  -----------------  -----------------  -----------------
         O            0.824809548879    -0.245555027859    -0.189607743143    15.994914619570
         C           -1.393973451121     0.477888972141     0.174229256857    12.000000000000
         C            0.051609548879     0.852789972141     0.308704256857    12.000000000000
         C           -4.116751451121    -0.239857027859    -0.039949743143    12.000000000000
         C           -1.869999451121    -0.691761027859     0.779641256857    12.000000000000
         C           -2.285643451121     1.280436972141    -0.541416743143    12.000000000000
         C           -3.212858451121    -1.043813027859     0.670002256857    12.000000000000
         C           -3.563810651121     1.094739972141    -0.725827343143    12.000000000000
         C            2.191315548879    -0.135442027859    -0.096329743143    12.000000000000
         C           -5.576274451121    -0.605668027859    -0.117438743143    12.000000000000
         C            2.873348548879     0.986596972141     0.386644256857    12.000000000000
         C            2.906487548879    -1.258082027859    -0.535676743143    12.000000000000
         C            4.272489548879     0.970101972141     0.426639256857    12.000000000000
         C            4.296352548879    -1.258111027859    -0.490841743143    12.000000000000
         C            4.989360548879    -0.142603027859    -0.007225743143    12.000000000000
         H            0.269611548879     1.765842972141    -0.262616743143     1.007825032230
         H            0.314373548879     1.036734972141     1.360614256857     1.007825032230
         H           -1.178169451121    -1.332661027859     1.322226256857     1.007825032230
         H           -1.926261451121     2.184422972141    -1.030703743143     1.007825032230
         H           -3.567443451121    -1.960484027859     1.139140256857     1.007825032230
         H           -4.314068451121     1.562271972141    -1.205077743143     1.007825032230
         H           -6.044606451121    -0.169014027859    -1.003992743143     1.007825032230
         H           -5.708129451121    -1.690555027859    -0.163120743143     1.007825032230
         H           -6.121919451121    -0.242538027859     0.760422256857     1.007825032230
         H            2.341965548879     1.869188972141     0.725897256857     1.007825032230
         H            2.347215548879    -2.112631027859    -0.906763743143     1.007825032230
         H            4.799175548879     1.844189972141     0.802853256857     1.007825032230
         H            4.841819548879    -2.134078027859    -0.833977743143     1.007825032230
         H            6.075439548879    -0.143405027859     0.028274256857     1.007825032230

  Basis Set: AUG-CC-PVTZ
    Blend: AUG-CC-PVTZ
  Basis Set: (AUG-CC-PVTZ AUX)
    Blend: AUG-CC-PVTZ-JKFIT
	 Reference Energy          =    -613.3295476962138082 [Eh]
	 Singles Energy            =      -0.0000000000000000 [Eh]
	 Same-Spin Energy          =      -0.6726284599152533 [Eh]
	 Opposite-Spin Energy      =      -2.1191130880033544 [Eh]
	 Correlation Energy        =      -2.7917415479186078 [Eh]
	 Total Energy              =    -616.1212892441324129 [Eh]

	 ================> DF-SCS-MP2 Energies <==================
	-----------------------------------------------------------
	 SCS Same-Spin Scale       =       0.3333333333333333 [-]
	 SCS Opposite-Spin Scale   =       1.2000000000000000 [-]
	 SCS Same-Spin Energy      =      -0.2242094866384178 [Eh]
	 SCS Opposite-Spin Energy  =      -2.5429357056040254 [Eh]
	 SCS Correlation Energy    =      -2.7671451922424430 [Eh]
	 SCS Total Energy          =    -616.0966928884562321 [Eh]
	-----------------------------------------------------------

  Dipole Moment: [D]
     X:    -1.1058      Y:     0.7183      Z:     0.4676     Total:     1.3991

*** Psi4 exiting successfully. Buy a developer a beer!
