                               Psi4 1.4a3.dev225

  ==> Input File <==

--------------------------------------------------------------------------
#psi4
#
memory 32 gb

molecule  {
0 1
  O        0.8655410    -0.2383350    -0.1978900
  C       -1.3532420     0.4851090     0.1659470
  C        0.0923410     0.8600100     0.3004220
  C       -4.1224880    -0.0819738    -0.0447301
  C       -1.8292680    -0.6845410     0.7713590
  C       -2.2449120     1.2876570    -0.5496990
  C       -3.1721270    -1.0365930     0.6617200
  C       -3.5922330     0.9350480    -0.6483300
  C        2.2320470    -0.1282220    -0.1046120
  C       -5.5355430    -0.5984480    -0.1257210
  C        2.9140800     0.9938170     0.3783620
  C        2.9472190    -1.2508620    -0.5439590
  C        4.3132210     0.9773220     0.4183570
  C        4.3370840    -1.2508910    -0.4991240
  C        5.0300920    -0.1353830    -0.0155080
  H        0.3103430     1.7730630    -0.2708990
  H        0.3551050     1.0439550     1.3523320
  H       -1.1374380    -1.3254410     1.3139440
  H       -1.8855300     2.1916430    -1.0389860
  H       -3.5267120    -1.9532640     1.1308580
  H       -4.2733370     1.5694920    -1.2133600
  H       -6.0038750    -0.1617940    -1.0122750
  H       -5.6673980    -1.6833350    -0.1714030
  H       -6.0811880    -0.2353180     0.7521400
  H        2.3826970     1.8764090     0.7176150
  H        2.3879470    -2.1054110    -0.9150460
  H        4.8399070     1.8514100     0.7945710
  H        4.8825510    -2.1268580    -0.8422600
  H        6.1161710    -0.1361850     0.0199920
units angstrom
no_reorient  #important for SAPT in psi4, default
symmetry c1  #important for SAPT in psi4, default
}

set PROPERTIES_ORIGIN ["COM"]
properties('MP2/aug-cc-pvtz', properties = ['dipole'])
--------------------------------------------------------------------------

    Molecular point group: c1
  Charge       = 0
  Multiplicity = 1
  Basis Set: AUG-CC-PVTZ
    Blend: AUG-CC-PVTZ
  Basis Set: (AUG-CC-PVTZ AUX)
    Blend: AUG-CC-PVTZ-JKFIT

    Orbital Energies [Eh]
    ---------------------

    Doubly Occupied:

       1A    -20.584079     2A    -11.301189     3A    -11.293416
       4A    -11.242958     5A    -11.242195     6A    -11.241018
       7A    -11.240154     8A    -11.239446     9A    -11.237720
      10A    -11.233397    11A    -11.233032    12A    -11.227748
      13A    -11.227317    14A    -11.226938    15A    -11.219968
      16A     -1.405077    17A     -1.159942    18A     -1.144059
      19A     -1.070430    20A     -1.018040    21A     -1.011217
      22A     -1.008574    23A     -0.964599    24A     -0.902633
      25A     -0.837381    26A     -0.825796    27A     -0.810424
      28A     -0.778093    29A     -0.721133    30A     -0.684922
      31A     -0.669438    32A     -0.663730    33A     -0.644042
      34A     -0.630888    35A     -0.620038    36A     -0.608990
      37A     -0.588359    38A     -0.585724    39A     -0.578123
      40A     -0.562991    41A     -0.545226    42A     -0.533153
      43A     -0.524552    44A     -0.512749    45A     -0.499810
      46A     -0.487640    47A     -0.480354    48A     -0.468058
      49A     -0.456791    50A     -0.346478    51A     -0.339828
      52A     -0.316644    53A     -0.312398

  @DF-RHF Final Energy:  -613.34951482613008

   => Energetics <=

    Nuclear Repulsion Energy =            870.5447620461357019
    One-Electron Energy =               -2559.1707548937879437
    Two-Electron Energy =                1075.2764780215220526
    Total Energy =                       -613.3495148261301892
  Basis Set: (AUG-CC-PVTZ AUX)
    Blend: AUG-CC-PVTZ-RI
    Molecular point group: c1

    Geometry (in Angstrom), charge = 0, multiplicity = 1:

       Center              X                  Y                   Z               Mass
    ------------   -----------------  -----------------  -----------------  -----------------
         O            0.831813235542    -0.244570771396    -0.195015889798    15.994914619570
         C           -1.386969764458     0.478873228604     0.168821110202    12.000000000000
         C            0.058613235542     0.853774228604     0.303296110202    12.000000000000
         C           -4.156215764458    -0.088209571396    -0.041855989798    12.000000000000
         C           -1.862995764458    -0.690776771396     0.774233110202    12.000000000000
         C           -2.278639764458     1.281421228604    -0.546824889798    12.000000000000
         C           -3.205854764458    -1.042828771396     0.664594110202    12.000000000000
         C           -3.625960764458     0.928812228604    -0.645455889798    12.000000000000
         C            2.198319235542    -0.134457771396    -0.101737889798    12.000000000000
         C           -5.569270764458    -0.604683771396    -0.122846889798    12.000000000000
         C            2.880352235542     0.987581228604     0.381236110202    12.000000000000
         C            2.913491235542    -1.257097771396    -0.541084889798    12.000000000000
         C            4.279493235542     0.971086228604     0.421231110202    12.000000000000
         C            4.303356235542    -1.257126771396    -0.496249889798    12.000000000000
         C            4.996364235542    -0.141618771396    -0.012633889798    12.000000000000
         H            0.276615235542     1.766827228604    -0.268024889798     1.007825032230
         H            0.321377235542     1.037719228604     1.355206110202     1.007825032230
         H           -1.171165764458    -1.331676771396     1.316818110202     1.007825032230
         H           -1.919257764458     2.185407228604    -1.036111889798     1.007825032230
         H           -3.560439764458    -1.959499771396     1.133732110202     1.007825032230
         H           -4.307064764458     1.563256228604    -1.210485889798     1.007825032230
         H           -6.037602764458    -0.168029771396    -1.009400889798     1.007825032230
         H           -5.701125764458    -1.689570771396    -0.168528889798     1.007825032230
         H           -6.114915764458    -0.241553771396     0.755014110202     1.007825032230
         H            2.348969235542     1.870173228604     0.720489110202     1.007825032230
         H            2.354219235542    -2.111646771396    -0.912171889798     1.007825032230
         H            4.806179235542     1.845174228604     0.797445110202     1.007825032230
         H            4.848823235542    -2.133093771396    -0.839385889798     1.007825032230
         H            6.082443235542    -0.142420771396     0.022866110202     1.007825032230

  Basis Set: AUG-CC-PVTZ
    Blend: AUG-CC-PVTZ
  Basis Set: (AUG-CC-PVTZ AUX)
    Blend: AUG-CC-PVTZ-JKFIT
	 Reference Energy          =    -613.3495148261300756 [Eh]
	 Singles Energy            =      -0.0000000000000000 [Eh]
	 Same-Spin Energy          =      -0.6719647105844169 [Eh]
	 Opposite-Spin Energy      =      -2.1173985094207968 [Eh]
	 Correlation Energy        =      -2.7893632200052139 [Eh]
	 Total Energy              =    -616.1388780461352326 [Eh]

	 ================> DF-SCS-MP2 Energies <==================
	-----------------------------------------------------------
	 SCS Same-Spin Scale       =       0.3333333333333333 [-]
	 SCS Opposite-Spin Scale   =       1.2000000000000000 [-]
	 SCS Same-Spin Energy      =      -0.2239882368614723 [Eh]
	 SCS Opposite-Spin Energy  =      -2.5408782113049559 [Eh]
	 SCS Correlation Energy    =      -2.7648664481664280 [Eh]
	 SCS Total Energy          =    -616.1143812742965338 [Eh]
	-----------------------------------------------------------

  Dipole Moment: [D]
     X:    -1.0094      Y:     0.6742      Z:     0.4591     Total:     1.2977

*** Psi4 exiting successfully. Buy a developer a beer!
