                               Psi4 1.4a3.dev225

  ==> Input File <==

--------------------------------------------------------------------------
#psi4
#
memory 32 gb

molecule  {
0 1
  O        0.8655410    -0.2383350    -0.1978900
  C       -1.3532420     0.4851090     0.1659470
  C        0.0923410     0.8600100     0.3004220
  C       -4.0760200    -0.2326370    -0.0482320
  C       -1.8292680    -0.6845410     0.7713590
  C       -2.2449120     1.2876570    -0.5496990
  C       -3.1721270    -1.0365930     0.6617200
  C       -3.5922330     0.9350480    -0.6483300
  C        2.2320470    -0.1282220    -0.1046120
  C       -5.5355430    -0.5984480    -0.1257210
  C        2.9140800     0.9938170     0.3783620
  C        2.9472190    -1.2508620    -0.5439590
  C        4.3132210     0.9773220     0.4183570
  C        4.3370840    -1.2508910    -0.4991240
  C        5.0300920    -0.1353830    -0.0155080
  H        0.3103430     1.7730630    -0.2708990
  H        0.3551050     1.0439550     1.3523320
  H       -1.1374380    -1.3254410     1.3139440
  H       -1.8855300     2.1916430    -1.0389860
  H       -3.5267120    -1.9532640     1.1308580
  H       -4.2733370     1.5694920    -1.2133600
  H       -6.0038750    -0.1617940    -1.0122750
  H       -5.6649871    -1.6634984    -0.1705677
  H       -6.0811880    -0.2353180     0.7521400
  H        2.3826970     1.8764090     0.7176150
  H        2.3879470    -2.1054110    -0.9150460
  H        4.8399070     1.8514100     0.7945710
  H        4.8825510    -2.1268580    -0.8422600
  H        6.1161710    -0.1361850     0.0199920
units angstrom
no_reorient  #important for SAPT in psi4, default
symmetry c1  #important for SAPT in psi4, default
}

set PROPERTIES_ORIGIN ["COM"]
properties('MP2/aug-cc-pvtz', properties = ['dipole'])
--------------------------------------------------------------------------

    Molecular point group: c1
  Charge       = 0
  Multiplicity = 1
  Basis Set: AUG-CC-PVTZ
    Blend: AUG-CC-PVTZ
  Basis Set: (AUG-CC-PVTZ AUX)
    Blend: AUG-CC-PVTZ-JKFIT

    Orbital Energies [Eh]
    ---------------------

    Doubly Occupied:

       1A    -20.583868     2A    -11.300996     3A    -11.293135
       4A    -11.243673     5A    -11.240942     6A    -11.239379
       7A    -11.239036     8A    -11.237475     9A    -11.234924
      10A    -11.232925    11A    -11.232128    12A    -11.232052
      13A    -11.227661    14A    -11.227240    15A    -11.223431
      16A     -1.404829    17A     -1.158794    18A     -1.143710
      19A     -1.067209    20A     -1.017752    21A     -1.013365
      22A     -1.008438    23A     -0.964746    24A     -0.900246
      25A     -0.832991    26A     -0.831378    27A     -0.808975
      28A     -0.782520    29A     -0.721131    30A     -0.684025
      31A     -0.670586    32A     -0.663657    33A     -0.643845
      34A     -0.631079    35A     -0.620799    36A     -0.609356
      37A     -0.586753    38A     -0.583526    39A     -0.577952
      40A     -0.564151    41A     -0.544771    42A     -0.531734
      43A     -0.523400    44A     -0.514012    45A     -0.491245
      46A     -0.486587    47A     -0.485218    48A     -0.478781
      49A     -0.464196    50A     -0.339924    51A     -0.336697
      52A     -0.322208    53A     -0.312296

  @DF-RHF Final Energy:  -613.37162759965054

   => Energetics <=

    Nuclear Repulsion Energy =            870.8318019478863334
    One-Electron Energy =               -2559.7833659445263947
    Two-Electron Energy =                1075.5799363969895239
    Total Energy =                       -613.3716275996505374
  Basis Set: (AUG-CC-PVTZ AUX)
    Blend: AUG-CC-PVTZ-RI
    Molecular point group: c1

    Geometry (in Angstrom), charge = 0, multiplicity = 1:

       Center              X                  Y                   Z               Mass
    ------------   -----------------  -----------------  -----------------  -----------------
         O            0.828986213117    -0.235545398963    -0.194808014807    15.994914619570
         C           -1.389796786883     0.487898601037     0.169028985193    12.000000000000
         C            0.055786213117     0.862799601037     0.303503985193    12.000000000000
         C           -4.112574786883    -0.229847398963    -0.045150014807    12.000000000000
         C           -1.865822786883    -0.681751398963     0.774440985193    12.000000000000
         C           -2.281466786883     1.290446601037    -0.546617014807    12.000000000000
         C           -3.208681786883    -1.033803398963     0.664801985193    12.000000000000
         C           -3.628787786883     0.937837601037    -0.645248014807    12.000000000000
         C            2.195492213117    -0.125432398963    -0.101530014807    12.000000000000
         C           -5.572097786883    -0.595658398963    -0.122639014807    12.000000000000
         C            2.877525213117     0.996606601037     0.381443985193    12.000000000000
         C            2.910664213117    -1.248072398963    -0.540877014807    12.000000000000
         C            4.276666213117     0.980111601037     0.421438985193    12.000000000000
         C            4.300529213117    -1.248101398963    -0.496042014807    12.000000000000
         C            4.993537213117    -0.132593398963    -0.012426014807    12.000000000000
         H            0.273788213117     1.775852601037    -0.267817014807     1.007825032230
         H            0.318550213117     1.046744601037     1.355413985193     1.007825032230
         H           -1.173992786883    -1.322651398963     1.317025985193     1.007825032230
         H           -1.922084786883     2.194432601037    -1.035904014807     1.007825032230
         H           -3.563266786883    -1.950474398963     1.133939985193     1.007825032230
         H           -4.309891786883     1.572281601037    -1.210278014807     1.007825032230
         H           -6.040429786883    -0.159004398963    -1.009193014807     1.007825032230
         H           -5.701541886883    -1.660708798963    -0.167485714807     1.007825032230
         H           -6.117742786883    -0.232528398963     0.755221985193     1.007825032230
         H            2.346142213117     1.879198601037     0.720696985193     1.007825032230
         H            2.351392213117    -2.102621398963    -0.911964014807     1.007825032230
         H            4.803352213117     1.854199601037     0.797652985193     1.007825032230
         H            4.845996213117    -2.124068398963    -0.839178014807     1.007825032230
         H            6.079616213117    -0.133395398963     0.023073985193     1.007825032230

  Basis Set: AUG-CC-PVTZ
    Blend: AUG-CC-PVTZ
  Basis Set: (AUG-CC-PVTZ AUX)
    Blend: AUG-CC-PVTZ-JKFIT
	 Reference Energy          =    -613.3716275996505374 [Eh]
	 Singles Energy            =      -0.0000000000000000 [Eh]
	 Same-Spin Energy          =      -0.6726509123653834 [Eh]
	 Opposite-Spin Energy      =      -2.1163971358161353 [Eh]
	 Correlation Energy        =      -2.7890480481815185 [Eh]
	 Total Energy              =    -616.1606756478320222 [Eh]

	 ================> DF-SCS-MP2 Energies <==================
	-----------------------------------------------------------
	 SCS Same-Spin Scale       =       0.3333333333333333 [-]
	 SCS Opposite-Spin Scale   =       1.2000000000000000 [-]
	 SCS Same-Spin Energy      =      -0.2242169707884611 [Eh]
	 SCS Opposite-Spin Energy  =      -2.5396765629793623 [Eh]
	 SCS Correlation Energy    =      -2.7638935337678232 [Eh]
	 SCS Total Energy          =    -616.1355211334183650 [Eh]
	-----------------------------------------------------------

  Dipole Moment: [D]
     X:    -1.0100      Y:     0.7228      Z:     0.4710     Total:     1.3283

*** Psi4 exiting successfully. Buy a developer a beer!
