                               Psi4 1.4a3.dev225

  ==> Input File <==

--------------------------------------------------------------------------
#psi4
#
memory 32 gb

molecule  {
0 1
  O        0.8655410    -0.2383350    -0.1978900
  C       -1.3532420     0.4851090     0.1659470
  C        0.0923410     0.8600100     0.3004220
  C       -4.0760200    -0.2326370    -0.0482320
  C       -1.8292680    -0.6845410     0.7713590
  C       -2.2449120     1.2876570    -0.5496990
  C       -3.1721270    -1.0365930     0.6617200
  C       -3.5922330     0.9350480    -0.6483300
  C        2.2320470    -0.1282220    -0.1046120
  C       -5.5355430    -0.5984480    -0.1257210
  C        2.9140800     0.9938170     0.3783620
  C        2.9472190    -1.2508620    -0.5439590
  C        4.3132210     0.9773220     0.4183570
  C        4.3370840    -1.2508910    -0.4991240
  C        5.0300920    -0.1353830    -0.0155080
  H        0.3103430     1.7730630    -0.2708990
  H        0.3551050     1.0439550     1.3523320
  H       -1.1374380    -1.3254410     1.3139440
  H       -1.8855300     2.1916430    -1.0389860
  H       -3.5267120    -1.9532640     1.1308580
  H       -4.2733370     1.5694920    -1.2133600
  H       -6.0038750    -0.1617940    -1.0122750
  H       -5.6673980    -1.6833350    -0.1714030
  H       -6.0811880    -0.2353180     0.7521400
  H        2.3826970     1.8764090     0.7176150
  H        2.3879470    -2.1054110    -0.9150460
  H        4.8399070     1.8514100     0.7945710
  H        4.8825510    -2.1268580    -0.8422600
  H        6.0661977    -0.1361481     0.0183586
units angstrom
no_reorient  #important for SAPT in psi4, default
symmetry c1  #important for SAPT in psi4, default
}

set PROPERTIES_ORIGIN ["COM"]
properties('MP2/aug-cc-pvtz', properties = ['dipole'])
--------------------------------------------------------------------------

    Molecular point group: c1
  Charge       = 0
  Multiplicity = 1
  Basis Set: AUG-CC-PVTZ
    Blend: AUG-CC-PVTZ
  Basis Set: (AUG-CC-PVTZ AUX)
    Blend: AUG-CC-PVTZ-JKFIT

    Orbital Energies [Eh]
    ---------------------

    Doubly Occupied:

       1A    -20.583865     2A    -11.300928     3A    -11.293133
       4A    -11.243852     5A    -11.240576     6A    -11.239115
       7A    -11.238986     8A    -11.237547     9A    -11.234960
      10A    -11.232681    11A    -11.232267    12A    -11.232095
      13A    -11.227403    14A    -11.225846    15A    -11.221358
      16A     -1.404806    17A     -1.158833    18A     -1.143842
      19A     -1.067102    20A     -1.017534    21A     -1.013503
      22A     -1.009450    23A     -0.964657    24A     -0.899705
      25A     -0.833254    26A     -0.831276    27A     -0.811252
      28A     -0.782504    29A     -0.721751    30A     -0.684089
      31A     -0.672552    32A     -0.668088    33A     -0.643635
      34A     -0.630973    35A     -0.620549    36A     -0.609764
      37A     -0.586543    38A     -0.583549    39A     -0.576968
      40A     -0.563909    41A     -0.543297    42A     -0.532797
      43A     -0.522949    44A     -0.517720    45A     -0.491185
      46A     -0.486598    47A     -0.485087    48A     -0.478707
      49A     -0.464056    50A     -0.339698    51A     -0.336745
      52A     -0.322206    53A     -0.312140

  @DF-RHF Final Energy:  -613.37080865708504

   => Energetics <=

    Nuclear Repulsion Energy =            871.0150807821856915
    One-Electron Energy =               -2560.1360088544674909
    Two-Electron Energy =                1075.7501194151968775
    Total Energy =                       -613.3708086570850355
  Basis Set: (AUG-CC-PVTZ AUX)
    Blend: AUG-CC-PVTZ-RI
    Molecular point group: c1

    Geometry (in Angstrom), charge = 0, multiplicity = 1:

       Center              X                  Y                   Z               Mass
    ------------   -----------------  -----------------  -----------------  -----------------
         O            0.829252709422    -0.235444671131    -0.194795455688    15.994914619570
         C           -1.389530290578     0.487999328869     0.169041544312    12.000000000000
         C            0.056052709422     0.862900328869     0.303516544312    12.000000000000
         C           -4.112308290578    -0.229746671131    -0.045137455688    12.000000000000
         C           -1.865556290578    -0.681650671131     0.774453544312    12.000000000000
         C           -2.281200290578     1.290547328869    -0.546604455688    12.000000000000
         C           -3.208415290578    -1.033702671131     0.664814544312    12.000000000000
         C           -3.628521290578     0.937938328869    -0.645235455688    12.000000000000
         C            2.195758709422    -0.125331671131    -0.101517455688    12.000000000000
         C           -5.571831290578    -0.595557671131    -0.122626455688    12.000000000000
         C            2.877791709422     0.996707328869     0.381456544312    12.000000000000
         C            2.910930709422    -1.247971671131    -0.540864455688    12.000000000000
         C            4.276932709422     0.980212328869     0.421451544312    12.000000000000
         C            4.300795709422    -1.248000671131    -0.496029455688    12.000000000000
         C            4.993803709422    -0.132492671131    -0.012413455688    12.000000000000
         H            0.274054709422     1.775953328869    -0.267804455688     1.007825032230
         H            0.318816709422     1.046845328869     1.355426544312     1.007825032230
         H           -1.173726290578    -1.322550671131     1.317038544312     1.007825032230
         H           -1.921818290578     2.194533328869    -1.035891455688     1.007825032230
         H           -3.563000290578    -1.950373671131     1.133952544312     1.007825032230
         H           -4.309625290578     1.572382328869    -1.210265455688     1.007825032230
         H           -6.040163290578    -0.158903671131    -1.009180455688     1.007825032230
         H           -5.703686290578    -1.680444671131    -0.168308455688     1.007825032230
         H           -6.117476290578    -0.232427671131     0.755234544312     1.007825032230
         H            2.346408709422     1.879299328869     0.720709544312     1.007825032230
         H            2.351658709422    -2.102520671131    -0.911951455688     1.007825032230
         H            4.803618709422     1.854300328869     0.797665544312     1.007825032230
         H            4.846262709422    -2.123967671131    -0.839165455688     1.007825032230
         H            6.029909409422    -0.133257771131     0.021453144312     1.007825032230

  Basis Set: AUG-CC-PVTZ
    Blend: AUG-CC-PVTZ
  Basis Set: (AUG-CC-PVTZ AUX)
    Blend: AUG-CC-PVTZ-JKFIT
	 Reference Energy          =    -613.3708086570850355 [Eh]
	 Singles Energy            =      -0.0000000000000000 [Eh]
	 Same-Spin Energy          =      -0.6725943127555791 [Eh]
	 Opposite-Spin Energy      =      -2.1162321502221664 [Eh]
	 Correlation Energy        =      -2.7888264629777453 [Eh]
	 Total Energy              =    -616.1596351200628305 [Eh]

	 ================> DF-SCS-MP2 Energies <==================
	-----------------------------------------------------------
	 SCS Same-Spin Scale       =       0.3333333333333333 [-]
	 SCS Opposite-Spin Scale   =       1.2000000000000000 [-]
	 SCS Same-Spin Energy      =      -0.2241981042518597 [Eh]
	 SCS Opposite-Spin Energy  =      -2.5394785802665996 [Eh]
	 SCS Correlation Energy    =      -2.7636766845184590 [Eh]
	 SCS Total Energy          =    -616.1344853416035221 [Eh]
	-----------------------------------------------------------

  Dipole Moment: [D]
     X:    -0.9092      Y:     0.7407      Z:     0.4709     Total:     1.2638

*** Psi4 exiting successfully. Buy a developer a beer!
