                               Psi4 1.4a3.dev225

  ==> Input File <==

--------------------------------------------------------------------------
#psi4
#
memory 32 gb

molecule  {
0 1
  O        0.8655410    -0.2383350    -0.1978900
  C       -1.3532420     0.4851090     0.1659470
  C        0.0923410     0.8600100     0.3004220
  C       -4.0760200    -0.2326370    -0.0482320
  C       -1.8292680    -0.6845410     0.7713590
  C       -2.2449120     1.2876570    -0.5496990
  C       -3.1721270    -1.0365930     0.6617200
  C       -3.5922330     0.9350480    -0.6483300
  C        2.4309410    -0.1121951    -0.0910355
  C       -5.5355430    -0.5984480    -0.1257210
  C        2.9140800     0.9938170     0.3783620
  C        2.9472190    -1.2508620    -0.5439590
  C        4.3132210     0.9773220     0.4183570
  C        4.3370840    -1.2508910    -0.4991240
  C        5.0300920    -0.1353830    -0.0155080
  H        0.3103430     1.7730630    -0.2708990
  H        0.3551050     1.0439550     1.3523320
  H       -1.1374380    -1.3254410     1.3139440
  H       -1.8855300     2.1916430    -1.0389860
  H       -3.5267120    -1.9532640     1.1308580
  H       -4.2733370     1.5694920    -1.2133600
  H       -6.0038750    -0.1617940    -1.0122750
  H       -5.6673980    -1.6833350    -0.1714030
  H       -6.0811880    -0.2353180     0.7521400
  H        2.3826970     1.8764090     0.7176150
  H        2.3879470    -2.1054110    -0.9150460
  H        4.8399070     1.8514100     0.7945710
  H        4.8825510    -2.1268580    -0.8422600
  H        6.1161710    -0.1361850     0.0199920
units angstrom
no_reorient  #important for SAPT in psi4, default
symmetry c1  #important for SAPT in psi4, default
}

set PROPERTIES_ORIGIN ["COM"]
properties('MP2/aug-cc-pvtz', properties = ['dipole'])
--------------------------------------------------------------------------

    Molecular point group: c1
  Charge       = 0
  Multiplicity = 1
  Basis Set: AUG-CC-PVTZ
    Blend: AUG-CC-PVTZ
  Basis Set: (AUG-CC-PVTZ AUX)
    Blend: AUG-CC-PVTZ-JKFIT

    Orbital Energies [Eh]
    ---------------------

    Doubly Occupied:

       1A    -20.552054     2A    -11.292893     3A    -11.275663
       4A    -11.250307     5A    -11.248355     6A    -11.237872
       7A    -11.236574     8A    -11.234800     9A    -11.234224
      10A    -11.230471    11A    -11.229191    12A    -11.226707
      13A    -11.225433    14A    -11.225034    15A    -11.220855
      16A     -1.333176    17A     -1.179212    18A     -1.147542
      19A     -1.054949    20A     -1.042637    21A     -1.019466
      22A     -1.005467    23A     -0.954138    24A     -0.883977
      25A     -0.848287    26A     -0.824367    27A     -0.812659
      28A     -0.775059    29A     -0.721944    30A     -0.672560
      31A     -0.658443    32A     -0.652532    33A     -0.643700
      34A     -0.627355    35A     -0.610265    36A     -0.605108
      37A     -0.596815    38A     -0.576111    39A     -0.571742
      40A     -0.553547    41A     -0.540226    42A     -0.530962
      43A     -0.526040    44A     -0.514766    45A     -0.492709
      46A     -0.480921    47A     -0.477642    48A     -0.454487
      49A     -0.443471    50A     -0.354156    51A     -0.338487
      52A     -0.329376    53A     -0.313196

  @DF-RHF Final Energy:  -613.32702785845083

   => Energetics <=

    Nuclear Repulsion Energy =            870.3390637497445823
    One-Electron Energy =               -2559.1563253461399654
    Two-Electron Energy =                1075.4902337379444361
    Total Energy =                       -613.3270278584509470
  Basis Set: (AUG-CC-PVTZ AUX)
    Blend: AUG-CC-PVTZ-RI
    Molecular point group: c1

    Geometry (in Angstrom), charge = 0, multiplicity = 1:

       Center              X                  Y                   Z               Mass
    ------------   -----------------  -----------------  -----------------  -----------------
         O            0.816950652819    -0.236415298477    -0.195626149642    15.994914619570
         C           -1.401832347181     0.487028701523     0.168210850358    12.000000000000
         C            0.043750652819     0.861929701523     0.302685850358    12.000000000000
         C           -4.124610347181    -0.230717298477    -0.045968149642    12.000000000000
         C           -1.877858347181    -0.682621298477     0.773622850358    12.000000000000
         C           -2.293502347181     1.289576701523    -0.547435149642    12.000000000000
         C           -3.220717347181    -1.034673298477     0.663983850358    12.000000000000
         C           -3.640823347181     0.936967701523    -0.646066149642    12.000000000000
         C            2.382350652819    -0.110275398477    -0.088771649642    12.000000000000
         C           -5.584133347181    -0.596528298477    -0.123457149642    12.000000000000
         C            2.865489652819     0.995736701523     0.380625850358    12.000000000000
         C            2.898628652819    -1.248942298477    -0.541695149642    12.000000000000
         C            4.264630652819     0.979241701523     0.420620850358    12.000000000000
         C            4.288493652819    -1.248971298477    -0.496860149642    12.000000000000
         C            4.981501652819    -0.133463298477    -0.013244149642    12.000000000000
         H            0.261752652819     1.774982701523    -0.268635149642     1.007825032230
         H            0.306514652819     1.045874701523     1.354595850358     1.007825032230
         H           -1.186028347181    -1.323521298477     1.316207850358     1.007825032230
         H           -1.934120347181     2.193562701523    -1.036722149642     1.007825032230
         H           -3.575302347181    -1.951344298477     1.133121850358     1.007825032230
         H           -4.321927347181     1.571411701523    -1.211096149642     1.007825032230
         H           -6.052465347181    -0.159874298477    -1.010011149642     1.007825032230
         H           -5.715988347181    -1.681415298477    -0.169139149642     1.007825032230
         H           -6.129778347181    -0.233398298477     0.754403850358     1.007825032230
         H            2.334106652819     1.878328701523     0.719878850358     1.007825032230
         H            2.339356652819    -2.103491298477    -0.912782149642     1.007825032230
         H            4.791316652819     1.853329701523     0.796834850358     1.007825032230
         H            4.833960652819    -2.124938298477    -0.839996149642     1.007825032230
         H            6.067580652819    -0.134265298477     0.022255850358     1.007825032230

  Basis Set: AUG-CC-PVTZ
    Blend: AUG-CC-PVTZ
  Basis Set: (AUG-CC-PVTZ AUX)
    Blend: AUG-CC-PVTZ-JKFIT
	 Reference Energy          =    -613.3270278584508333 [Eh]
	 Singles Energy            =      -0.0000000000000000 [Eh]
	 Same-Spin Energy          =      -0.6744738032430394 [Eh]
	 Opposite-Spin Energy      =      -2.1208714896624019 [Eh]
	 Correlation Energy        =      -2.7953452929054414 [Eh]
	 Total Energy              =    -616.1223731513563280 [Eh]

	 ================> DF-SCS-MP2 Energies <==================
	-----------------------------------------------------------
	 SCS Same-Spin Scale       =       0.3333333333333333 [-]
	 SCS Opposite-Spin Scale   =       1.2000000000000000 [-]
	 SCS Same-Spin Energy      =      -0.2248246010810131 [Eh]
	 SCS Opposite-Spin Energy  =      -2.5450457875948822 [Eh]
	 SCS Correlation Energy    =      -2.7698703886758955 [Eh]
	 SCS Total Energy          =    -616.0968982471267736 [Eh]
	-----------------------------------------------------------

  Dipole Moment: [D]
     X:     0.6222      Y:     0.6394      Z:     0.4713     Total:     1.0090

*** Psi4 exiting successfully. Buy a developer a beer!
