                               Psi4 1.4a3.dev225

  ==> Input File <==

--------------------------------------------------------------------------
#psi4
#
memory 32 gb

molecule  {
0 1
  O        0.8655410    -0.2383350    -0.1978900
  C       -1.3532420     0.4851090     0.1659470
  C        0.0923410     0.8600100     0.3004220
  C       -4.0760200    -0.2326370    -0.0482320
  C       -1.8292680    -0.6845410     0.7713590
  C       -2.2449120     1.2876570    -0.5496990
  C       -3.1394448    -1.1553526     0.7396601
  C       -3.5922330     0.9350480    -0.6483300
  C        2.2320470    -0.1282220    -0.1046120
  C       -5.5355430    -0.5984480    -0.1257210
  C        2.9140800     0.9938170     0.3783620
  C        2.9472190    -1.2508620    -0.5439590
  C        4.3132210     0.9773220     0.4183570
  C        4.3370840    -1.2508910    -0.4991240
  C        5.0300920    -0.1353830    -0.0155080
  H        0.3103430     1.7730630    -0.2708990
  H        0.3551050     1.0439550     1.3523320
  H       -1.1374380    -1.3254410     1.3139440
  H       -1.8855300     2.1916430    -1.0389860
  H       -3.5267120    -1.9532640     1.1308580
  H       -4.2733370     1.5694920    -1.2133600
  H       -6.0038750    -0.1617940    -1.0122750
  H       -5.6673980    -1.6833350    -0.1714030
  H       -6.0811880    -0.2353180     0.7521400
  H        2.3826970     1.8764090     0.7176150
  H        2.3879470    -2.1054110    -0.9150460
  H        4.8399070     1.8514100     0.7945710
  H        4.8825510    -2.1268580    -0.8422600
  H        6.1161710    -0.1361850     0.0199920
units angstrom
no_reorient  #important for SAPT in psi4, default
symmetry c1  #important for SAPT in psi4, default
}

set PROPERTIES_ORIGIN ["COM"]
properties('MP2/aug-cc-pvtz', properties = ['dipole'])
--------------------------------------------------------------------------

    Molecular point group: c1
  Charge       = 0
  Multiplicity = 1
  Basis Set: AUG-CC-PVTZ
    Blend: AUG-CC-PVTZ
  Basis Set: (AUG-CC-PVTZ AUX)
    Blend: AUG-CC-PVTZ-JKFIT

    Orbital Energies [Eh]
    ---------------------

    Doubly Occupied:

       1A    -20.583236     2A    -11.300652     3A    -11.293620
       4A    -11.257536     5A    -11.241200     6A    -11.240667
       7A    -11.239079     8A    -11.238997     9A    -11.237678
      10A    -11.235718    11A    -11.232618    12A    -11.231066
      13A    -11.227307    14A    -11.226937    15A    -11.225660
      16A     -1.404325    17A     -1.151935    18A     -1.141010
      19A     -1.060887    20A     -1.017386    21A     -1.016951
      22A     -1.007865    23A     -0.963627    24A     -0.895928
      25A     -0.839315    26A     -0.830033    27A     -0.808989
      28A     -0.778780    29A     -0.721553    30A     -0.690434
      31A     -0.670134    32A     -0.663346    33A     -0.645897
      34A     -0.641744    35A     -0.616417    36A     -0.610957
      37A     -0.589610    38A     -0.586205    39A     -0.574823
      40A     -0.563393    41A     -0.546148    42A     -0.529042
      43A     -0.522689    44A     -0.513127    45A     -0.500401
      46A     -0.484470    47A     -0.478859    48A     -0.467770
      49A     -0.459374    50A     -0.340542    51A     -0.339535
      52A     -0.312470    53A     -0.311889

  @DF-RHF Final Energy:  -613.34350077154681

   => Energetics <=

    Nuclear Repulsion Energy =            868.6198872830008213
    One-Electron Energy =               -2555.3071237521749026
    Two-Electron Energy =                1073.3437356976271531
    Total Energy =                       -613.3435007715468146
  Basis Set: (AUG-CC-PVTZ AUX)
    Blend: AUG-CC-PVTZ-RI
    Molecular point group: c1

    Geometry (in Angstrom), charge = 0, multiplicity = 1:

       Center              X                  Y                   Z               Mass
    ------------   -----------------  -----------------  -----------------  -----------------
         O            0.827018783284    -0.228250727328    -0.199524916889    15.994914619570
         C           -1.391764216716     0.495193272672     0.164312083111    12.000000000000
         C            0.053818783284     0.870094272672     0.298787083111    12.000000000000
         C           -4.114542216716    -0.222552727328    -0.049866916889    12.000000000000
         C           -1.867790216716    -0.674456727328     0.769724083111    12.000000000000
         C           -2.283434216716     1.297741272672    -0.551333916889    12.000000000000
         C           -3.177967016716    -1.145268327328     0.738025183111    12.000000000000
         C           -3.630755216716     0.945132272672    -0.649964916889    12.000000000000
         C            2.193524783284    -0.118137727328    -0.106246916889    12.000000000000
         C           -5.574065216716    -0.588363727328    -0.127355916889    12.000000000000
         C            2.875557783284     1.003901272672     0.376727083111    12.000000000000
         C            2.908696783284    -1.240777727328    -0.545593916889    12.000000000000
         C            4.274698783284     0.987406272672     0.416722083111    12.000000000000
         C            4.298561783284    -1.240806727328    -0.500758916889    12.000000000000
         C            4.991569783284    -0.125298727328    -0.017142916889    12.000000000000
         H            0.271820783284     1.783147272672    -0.272533916889     1.007825032230
         H            0.316582783284     1.054039272672     1.350697083111     1.007825032230
         H           -1.175960216716    -1.315356727328     1.312309083111     1.007825032230
         H           -1.924052216716     2.201727272672    -1.040620916889     1.007825032230
         H           -3.565234216716    -1.943179727328     1.129223083111     1.007825032230
         H           -4.311859216716     1.579576272672    -1.214994916889     1.007825032230
         H           -6.042397216716    -0.151709727328    -1.013909916889     1.007825032230
         H           -5.705920216716    -1.673250727328    -0.173037916889     1.007825032230
         H           -6.119710216716    -0.225233727328     0.750505083111     1.007825032230
         H            2.344174783284     1.886493272672     0.715980083111     1.007825032230
         H            2.349424783284    -2.095326727328    -0.916680916889     1.007825032230
         H            4.801384783284     1.861494272672     0.792936083111     1.007825032230
         H            4.844028783284    -2.116773727328    -0.843894916889     1.007825032230
         H            6.077648783284    -0.126100727328     0.018357083111     1.007825032230

  Basis Set: AUG-CC-PVTZ
    Blend: AUG-CC-PVTZ
  Basis Set: (AUG-CC-PVTZ AUX)
    Blend: AUG-CC-PVTZ-JKFIT
	 Reference Energy          =    -613.3435007715468146 [Eh]
	 Singles Energy            =      -0.0000000000000000 [Eh]
	 Same-Spin Energy          =      -0.6725245344364553 [Eh]
	 Opposite-Spin Energy      =      -2.1183405118484400 [Eh]
	 Correlation Energy        =      -2.7908650462848952 [Eh]
	 Total Energy              =    -616.1343658178317355 [Eh]

	 ================> DF-SCS-MP2 Energies <==================
	-----------------------------------------------------------
	 SCS Same-Spin Scale       =       0.3333333333333333 [-]
	 SCS Opposite-Spin Scale   =       1.2000000000000000 [-]
	 SCS Same-Spin Energy      =      -0.2241748448121518 [Eh]
	 SCS Opposite-Spin Energy  =      -2.5420086142181280 [Eh]
	 SCS Correlation Energy    =      -2.7661834590302798 [Eh]
	 SCS Total Energy          =    -616.1096842305770451 [Eh]
	-----------------------------------------------------------

  Dipole Moment: [D]
     X:    -1.0397      Y:     0.7124      Z:     0.4765     Total:     1.3475

*** Psi4 exiting successfully. Buy a developer a beer!
