                               Psi4 1.4a3.dev225

  ==> Input File <==

--------------------------------------------------------------------------
#psi4
#
memory 32 gb

molecule  {
0 1
  O        0.8655410    -0.2383350    -0.1978900
  C       -1.3532420     0.4851090     0.1659470
  C        0.0923410     0.8600100     0.3004220
  C       -4.0760200    -0.2326370    -0.0482320
  C       -1.8292680    -0.6845410     0.7713590
  C       -2.2449120     1.2876570    -0.5496990
  C       -3.1721270    -1.0365930     0.6617200
  C       -3.5922330     0.9350480    -0.6483300
  C        2.2320470    -0.1282220    -0.1046120
  C       -5.5355430    -0.5984480    -0.1257210
  C        2.9140800     0.9938170     0.3783620
  C        2.9472190    -1.2508620    -0.5439590
  C        4.3132210     0.9773220     0.4183570
  C        4.3370840    -1.2508910    -0.4991240
  C        5.0300920    -0.1353830    -0.0155080
  H        0.3103430     1.7730630    -0.2708990
  H        0.3551050     1.0439550     1.3523320
  H       -1.0102653    -1.4432517     1.4136824
  H       -1.8855300     2.1916430    -1.0389860
  H       -3.5267120    -1.9532640     1.1308580
  H       -4.2733370     1.5694920    -1.2133600
  H       -6.0038750    -0.1617940    -1.0122750
  H       -5.6673980    -1.6833350    -0.1714030
  H       -6.0811880    -0.2353180     0.7521400
  H        2.3826970     1.8764090     0.7176150
  H        2.3879470    -2.1054110    -0.9150460
  H        4.8399070     1.8514100     0.7945710
  H        4.8825510    -2.1268580    -0.8422600
  H        6.1161710    -0.1361850     0.0199920
units angstrom
no_reorient  #important for SAPT in psi4, default
symmetry c1  #important for SAPT in psi4, default
}

set PROPERTIES_ORIGIN ["COM"]
properties('MP2/aug-cc-pvtz', properties = ['dipole'])
--------------------------------------------------------------------------

    Molecular point group: c1
  Charge       = 0
  Multiplicity = 1
  Basis Set: AUG-CC-PVTZ
    Blend: AUG-CC-PVTZ
  Basis Set: (AUG-CC-PVTZ AUX)
    Blend: AUG-CC-PVTZ-JKFIT

    Orbital Energies [Eh]
    ---------------------

    Doubly Occupied:

       1A    -20.583361     2A    -11.300767     3A    -11.293319
       4A    -11.256150     5A    -11.245453     6A    -11.241327
       7A    -11.240758     8A    -11.239329     9A    -11.239184
      10A    -11.234378    11A    -11.233288    12A    -11.232701
      13A    -11.227417    14A    -11.227030    15A    -11.226849
      16A     -1.404378    17A     -1.159419    18A     -1.143647
      19A     -1.067507    20A     -1.017580    21A     -1.011688
      22A     -1.007087    23A     -0.964519    24A     -0.899566
      25A     -0.832218    26A     -0.826856    27A     -0.808893
      28A     -0.778359    29A     -0.720934    30A     -0.681567
      31A     -0.670818    32A     -0.663400    33A     -0.640813
      34A     -0.625670    35A     -0.616759    36A     -0.609213
      37A     -0.586589    38A     -0.577935    39A     -0.568713
      40A     -0.563218    41A     -0.543554    42A     -0.530815
      43A     -0.523108    44A     -0.513275    45A     -0.492103
      46A     -0.486376    47A     -0.479338    48A     -0.475813
      49A     -0.462230    50A     -0.339752    51A     -0.338100
      52A     -0.323607    53A     -0.312013

  @DF-RHF Final Energy:  -613.34923846823199

   => Energetics <=

    Nuclear Repulsion Energy =            869.8864891498400311
    One-Electron Energy =               -2557.8939759882464386
    Two-Electron Energy =                1074.6582483701743058
    Total Energy =                       -613.3492384682319880
  Basis Set: (AUG-CC-PVTZ AUX)
    Blend: AUG-CC-PVTZ-RI
    Molecular point group: c1

    Geometry (in Angstrom), charge = 0, multiplicity = 1:

       Center              X                  Y                   Z               Mass
    ------------   -----------------  -----------------  -----------------  -----------------
         O            0.828351507256    -0.234845140165    -0.195311168635    15.994914619570
         C           -1.390431492744     0.488598859835     0.168525831365    12.000000000000
         C            0.055151507256     0.863499859835     0.303000831365    12.000000000000
         C           -4.113209492744    -0.229147140165    -0.045653168635    12.000000000000
         C           -1.866457492744    -0.681051140165     0.773937831365    12.000000000000
         C           -2.282101492744     1.291146859835    -0.547120168635    12.000000000000
         C           -3.209316492744    -1.033103140165     0.664298831365    12.000000000000
         C           -3.629422492744     0.938537859835    -0.645751168635    12.000000000000
         C            2.194857507256    -0.124732140165    -0.102033168635    12.000000000000
         C           -5.572732492744    -0.594958140165    -0.123142168635    12.000000000000
         C            2.876890507256     0.997306859835     0.380940831365    12.000000000000
         C            2.910029507256    -1.247372140165    -0.541380168635    12.000000000000
         C            4.276031507256     0.980811859835     0.420935831365    12.000000000000
         C            4.299894507256    -1.247401140165    -0.496545168635    12.000000000000
         C            4.992902507256    -0.131893140165    -0.012929168635    12.000000000000
         H            0.273153507256     1.776552859835    -0.268320168635     1.007825032230
         H            0.317915507256     1.047444859835     1.354910831365     1.007825032230
         H           -1.047454792744    -1.439761840165     1.416261231365     1.007825032230
         H           -1.922719492744     2.195132859835    -1.036407168635     1.007825032230
         H           -3.563901492744    -1.949774140165     1.133436831365     1.007825032230
         H           -4.310526492744     1.572981859835    -1.210781168635     1.007825032230
         H           -6.041064492744    -0.158304140165    -1.009696168635     1.007825032230
         H           -5.704587492744    -1.679845140165    -0.168824168635     1.007825032230
         H           -6.118377492744    -0.231828140165     0.754718831365     1.007825032230
         H            2.345507507256     1.879898859835     0.720193831365     1.007825032230
         H            2.350757507256    -2.101921140165    -0.912467168635     1.007825032230
         H            4.802717507256     1.854899859835     0.797149831365     1.007825032230
         H            4.845361507256    -2.123368140165    -0.839681168635     1.007825032230
         H            6.078981507256    -0.132695140165     0.022570831365     1.007825032230

  Basis Set: AUG-CC-PVTZ
    Blend: AUG-CC-PVTZ
  Basis Set: (AUG-CC-PVTZ AUX)
    Blend: AUG-CC-PVTZ-JKFIT
	 Reference Energy          =    -613.3492384682319880 [Eh]
	 Singles Energy            =      -0.0000000000000000 [Eh]
	 Same-Spin Energy          =      -0.6732890317422067 [Eh]
	 Opposite-Spin Energy      =      -2.1188982859967469 [Eh]
	 Correlation Energy        =      -2.7921873177389536 [Eh]
	 Total Energy              =    -616.1414257859709096 [Eh]

	 ================> DF-SCS-MP2 Energies <==================
	-----------------------------------------------------------
	 SCS Same-Spin Scale       =       0.3333333333333333 [-]
	 SCS Opposite-Spin Scale   =       1.2000000000000000 [-]
	 SCS Same-Spin Energy      =      -0.2244296772474022 [Eh]
	 SCS Opposite-Spin Energy  =      -2.5426779431960962 [Eh]
	 SCS Correlation Energy    =      -2.7671076204434986 [Eh]
	 SCS Total Energy          =    -616.1163460886755274 [Eh]
	-----------------------------------------------------------

  Dipole Moment: [D]
     X:    -1.0717      Y:     0.7730      Z:     0.4197     Total:     1.3864

*** Psi4 exiting successfully. Buy a developer a beer!
