                               Psi4 1.4a3.dev225

  ==> Input File <==

--------------------------------------------------------------------------
#psi4
#
memory 32 gb

molecule  {
0 1
  O        0.8655410    -0.2383350    -0.1978900
  C       -1.3532420     0.4851090     0.1659470
  C        0.0923410     0.8600100     0.3004220
  C       -4.0760200    -0.2326370    -0.0482320
  C       -1.8292680    -0.6845410     0.7713590
  C       -2.2449120     1.2876570    -0.5496990
  C       -3.1721270    -1.0365930     0.6617200
  C       -3.5922330     0.9350480    -0.6483300
  C        2.2320470    -0.1282220    -0.1046120
  C       -5.5355430    -0.5984480    -0.1257210
  C        2.9140800     0.9938170     0.3783620
  C        2.9472190    -1.2508620    -0.5439590
  C        4.3132210     0.9773220     0.4183570
  C        4.3370840    -1.2508910    -0.4991240
  C        5.0300920    -0.1353830    -0.0155080
  H        0.3103430     1.7730630    -0.2708990
  H        0.3551050     1.0439550     1.3523320
  H       -1.1374380    -1.3254410     1.3139440
  H       -1.8855300     2.1916430    -1.0389860
  H       -3.5267120    -1.9532640     1.1308580
  H       -4.2733370     1.5694920    -1.2133600
  H       -6.0038750    -0.1617940    -1.0122750
  H       -5.6673980    -1.6833350    -0.1714030
  H       -6.0811880    -0.2353180     0.7521400
  H        2.3826970     1.8764090     0.7176150
  H        2.2850092    -2.2626966    -0.9833471
  H        4.8399070     1.8514100     0.7945710
  H        4.8825510    -2.1268580    -0.8422600
  H        6.1161710    -0.1361850     0.0199920
units angstrom
no_reorient  #important for SAPT in psi4, default
symmetry c1  #important for SAPT in psi4, default
}

set PROPERTIES_ORIGIN ["COM"]
properties('MP2/aug-cc-pvtz', properties = ['dipole'])
--------------------------------------------------------------------------

    Molecular point group: c1
  Charge       = 0
  Multiplicity = 1
  Basis Set: AUG-CC-PVTZ
    Blend: AUG-CC-PVTZ
  Basis Set: (AUG-CC-PVTZ AUX)
    Blend: AUG-CC-PVTZ-JKFIT

    Orbital Energies [Eh]
    ---------------------

    Doubly Occupied:

       1A    -20.583973     2A    -11.303359     3A    -11.293172
       4A    -11.248699     5A    -11.243777     6A    -11.241923
       7A    -11.241336     8A    -11.239062     9A    -11.237502
      10A    -11.234869    11A    -11.234571    12A    -11.232192
      13A    -11.232013    14A    -11.228836    15A    -11.225809
      16A     -1.404888    17A     -1.158821    18A     -1.144415
      19A     -1.067007    20A     -1.014922    21A     -1.013409
      22A     -1.008947    23A     -0.963675    24A     -0.899618
      25A     -0.832537    26A     -0.826407    27A     -0.808282
      28A     -0.782217    29A     -0.718321    30A     -0.684111
      31A     -0.670073    32A     -0.654486    33A     -0.644313
      34A     -0.630727    35A     -0.620155    36A     -0.608738
      37A     -0.583479    38A     -0.577345    39A     -0.574469
      40A     -0.559773    41A     -0.543426    42A     -0.526324
      43A     -0.522127    44A     -0.512979    45A     -0.487516
      46A     -0.486478    47A     -0.485171    48A     -0.474268
      49A     -0.464734    50A     -0.341222    51A     -0.336676
      52A     -0.322206    53A     -0.313551

  @DF-RHF Final Energy:  -613.34918246190603

   => Energetics <=

    Nuclear Repulsion Energy =            869.8534912136623234
    One-Electron Energy =               -2557.8275369169355145
    Two-Electron Energy =                1074.6248632413671658
    Total Energy =                       -613.3491824619059116
  Basis Set: (AUG-CC-PVTZ AUX)
    Blend: AUG-CC-PVTZ-RI
    Molecular point group: c1

    Geometry (in Angstrom), charge = 0, multiplicity = 1:

       Center              X                  Y                   Z               Mass
    ------------   -----------------  -----------------  -----------------  -----------------
         O            0.829522157912    -0.234644317875    -0.194456294342    15.994914619570
         C           -1.389260842088     0.488799682125     0.169380705658    12.000000000000
         C            0.056322157912     0.863700682125     0.303855705658    12.000000000000
         C           -4.112038842088    -0.228946317875    -0.044798294342    12.000000000000
         C           -1.865286842088    -0.680850317875     0.774792705658    12.000000000000
         C           -2.280930842088     1.291347682125    -0.546265294342    12.000000000000
         C           -3.208145842088    -1.032902317875     0.665153705658    12.000000000000
         C           -3.628251842088     0.938738682125    -0.644896294342    12.000000000000
         C            2.196028157912    -0.124531317875    -0.101178294342    12.000000000000
         C           -5.571561842088    -0.594757317875    -0.122287294342    12.000000000000
         C            2.878061157912     0.997507682125     0.381795705658    12.000000000000
         C            2.911200157912    -1.247171317875    -0.540525294342    12.000000000000
         C            4.277202157912     0.981012682125     0.421790705658    12.000000000000
         C            4.301065157912    -1.247200317875    -0.495690294342    12.000000000000
         C            4.994073157912    -0.131692317875    -0.012074294342    12.000000000000
         H            0.274324157912     1.776753682125    -0.267465294342     1.007825032230
         H            0.319086157912     1.047645682125     1.355765705658     1.007825032230
         H           -1.173456842088    -1.321750317875     1.317377705658     1.007825032230
         H           -1.921548842088     2.195333682125    -1.035552294342     1.007825032230
         H           -3.562730842088    -1.949573317875     1.134291705658     1.007825032230
         H           -4.309355842088     1.573182682125    -1.209926294342     1.007825032230
         H           -6.039893842088    -0.158103317875    -1.008841294342     1.007825032230
         H           -5.703416842088    -1.679644317875    -0.167969294342     1.007825032230
         H           -6.117206842088    -0.231627317875     0.755573705658     1.007825032230
         H            2.346678157912     1.880099682125     0.721048705658     1.007825032230
         H            2.248990357912    -2.259005917875    -0.979913394342     1.007825032230
         H            4.803888157912     1.855100682125     0.798004705658     1.007825032230
         H            4.846532157912    -2.123167317875    -0.838826294342     1.007825032230
         H            6.080152157912    -0.132494317875     0.023425705658     1.007825032230

  Basis Set: AUG-CC-PVTZ
    Blend: AUG-CC-PVTZ
  Basis Set: (AUG-CC-PVTZ AUX)
    Blend: AUG-CC-PVTZ-JKFIT
	 Reference Energy          =    -613.3491824619060253 [Eh]
	 Singles Energy            =      -0.0000000000000000 [Eh]
	 Same-Spin Energy          =      -0.6732300964541573 [Eh]
	 Opposite-Spin Energy      =      -2.1187755761424341 [Eh]
	 Correlation Energy        =      -2.7920056725965914 [Eh]
	 Total Energy              =    -616.1411881345026131 [Eh]

	 ================> DF-SCS-MP2 Energies <==================
	-----------------------------------------------------------
	 SCS Same-Spin Scale       =       0.3333333333333333 [-]
	 SCS Opposite-Spin Scale   =       1.2000000000000000 [-]
	 SCS Same-Spin Energy      =      -0.2244100321513858 [Eh]
	 SCS Opposite-Spin Energy  =      -2.5425306913709207 [Eh]
	 SCS Correlation Energy    =      -2.7669407235223065 [Eh]
	 SCS Total Energy          =    -616.1161231854283642 [Eh]
	-----------------------------------------------------------

  Dipole Moment: [D]
     X:    -0.9734      Y:     0.7760      Z:     0.4905     Total:     1.3380

*** Psi4 exiting successfully. Buy a developer a beer!
