                               Psi4 1.4a3.dev225

  ==> Input File <==

--------------------------------------------------------------------------
#psi4
#
memory 32 gb

molecule  {
0 1
  O        0.8655410    -0.2383350    -0.1978900
  C       -1.3532420     0.4851090     0.1659470
  C        0.0923410     0.8600100     0.3004220
  C       -4.0760200    -0.2326370    -0.0482320
  C       -1.8292680    -0.6845410     0.7713590
  C       -2.2449120     1.2876570    -0.5496990
  C       -3.1721270    -1.0365930     0.6617200
  C       -3.5922330     0.9350480    -0.6483300
  C        2.2320470    -0.1282220    -0.1046120
  C       -5.5355430    -0.5984480    -0.1257210
  C        2.9140800     0.9938170     0.3783620
  C        2.9472190    -1.2508620    -0.5439590
  C        4.3132210     0.9773220     0.4183570
  C        4.3370840    -1.2508910    -0.4991240
  C        5.0300920    -0.1353830    -0.0155080
  H        0.3103430     1.7730630    -0.2708990
  H        0.3551050     1.0439550     1.3523320
  H       -1.1374380    -1.3254410     1.3139440
  H       -1.8855300     2.1916430    -1.0389860
  H       -3.5267120    -1.9532640     1.1308580
  H       -4.2733370     1.5694920    -1.2133600
  H       -6.0038750    -0.1617940    -1.0122750
  H       -5.6915070    -1.8817008    -0.1797557
  H       -6.0811880    -0.2353180     0.7521400
  H        2.3826970     1.8764090     0.7176150
  H        2.3879470    -2.1054110    -0.9150460
  H        4.8399070     1.8514100     0.7945710
  H        4.8825510    -2.1268580    -0.8422600
  H        6.1161710    -0.1361850     0.0199920
units angstrom
no_reorient  #important for SAPT in psi4, default
symmetry c1  #important for SAPT in psi4, default
}

set PROPERTIES_ORIGIN ["COM"]
properties('MP2/aug-cc-pvtz', properties = ['dipole'])
--------------------------------------------------------------------------

    Molecular point group: c1
  Charge       = 0
  Multiplicity = 1
  Basis Set: AUG-CC-PVTZ
    Blend: AUG-CC-PVTZ
  Basis Set: (AUG-CC-PVTZ AUX)
    Blend: AUG-CC-PVTZ-JKFIT

    Orbital Energies [Eh]
    ---------------------

    Doubly Occupied:

       1A    -20.584334     2A    -11.301311     3A    -11.293771
       4A    -11.248691     5A    -11.245857     6A    -11.241198
       7A    -11.240125     8A    -11.239619     9A    -11.238557
      10A    -11.235510    11A    -11.234152    12A    -11.233227
      13A    -11.232755    14A    -11.227927    15A    -11.227491
      16A     -1.405293    17A     -1.159630    18A     -1.144041
      19A     -1.066453    20A     -1.017794    21A     -1.014203
      22A     -1.007780    23A     -0.960003    24A     -0.894445
      25A     -0.833403    26A     -0.831572    27A     -0.808710
      28A     -0.782026    29A     -0.721501    30A     -0.683962
      31A     -0.670534    32A     -0.664011    33A     -0.643740
      34A     -0.631241    35A     -0.619378    36A     -0.609776
      37A     -0.587071    38A     -0.584367    39A     -0.574033
      40A     -0.563452    41A     -0.533073    42A     -0.532363
      43A     -0.514564    44A     -0.508944    45A     -0.492222
      46A     -0.487683    47A     -0.480045    48A     -0.478876
      49A     -0.464336    50A     -0.340181    51A     -0.337509
      52A     -0.322844    53A     -0.312604

  @DF-RHF Final Energy:  -613.35147321262934

   => Energetics <=

    Nuclear Repulsion Energy =            869.9736192001583959
    One-Electron Energy =               -2558.0338128551784393
    Two-Electron Energy =                1074.7087204423908133
    Total Energy =                       -613.3514732126293438
  Basis Set: (AUG-CC-PVTZ AUX)
    Blend: AUG-CC-PVTZ-RI
    Molecular point group: c1

    Geometry (in Angstrom), charge = 0, multiplicity = 1:

       Center              X                  Y                   Z               Mass
    ------------   -----------------  -----------------  -----------------  -----------------
         O            0.829121128900    -0.234435328876    -0.194761272315    15.994914619570
         C           -1.389661871100     0.489008671124     0.169075727685    12.000000000000
         C            0.055921128900     0.863909671124     0.303550727685    12.000000000000
         C           -4.112439871100    -0.228737328876    -0.045103272315    12.000000000000
         C           -1.865687871100    -0.680641328876     0.774487727685    12.000000000000
         C           -2.281331871100     1.291556671124    -0.546570272315    12.000000000000
         C           -3.208546871100    -1.032693328876     0.664848727685    12.000000000000
         C           -3.628652871100     0.938947671124    -0.645201272315    12.000000000000
         C            2.195627128900    -0.124322328876    -0.101483272315    12.000000000000
         C           -5.571962871100    -0.594548328876    -0.122592272315    12.000000000000
         C            2.877660128900     0.997716671124     0.381490727685    12.000000000000
         C            2.910799128900    -1.246962328876    -0.540830272315    12.000000000000
         C            4.276801128900     0.981221671124     0.421485727685    12.000000000000
         C            4.300664128900    -1.246991328876    -0.495995272315    12.000000000000
         C            4.993672128900    -0.131483328876    -0.012379272315    12.000000000000
         H            0.273923128900     1.776962671124    -0.267770272315     1.007825032230
         H            0.318685128900     1.047854671124     1.355460727685     1.007825032230
         H           -1.173857871100    -1.321541328876     1.317072727685     1.007825032230
         H           -1.921949871100     2.195542671124    -1.035857272315     1.007825032230
         H           -3.563131871100    -1.949364328876     1.133986727685     1.007825032230
         H           -4.309756871100     1.573391671124    -1.210231272315     1.007825032230
         H           -6.040294871100    -0.157894328876    -1.009146272315     1.007825032230
         H           -5.727926871100    -1.877801128876    -0.176626972315     1.007825032230
         H           -6.117607871100    -0.231418328876     0.755268727685     1.007825032230
         H            2.346277128900     1.880308671124     0.720743727685     1.007825032230
         H            2.351527128900    -2.101511328876    -0.911917272315     1.007825032230
         H            4.803487128900     1.855309671124     0.797699727685     1.007825032230
         H            4.846131128900    -2.122958328876    -0.839131272315     1.007825032230
         H            6.079751128900    -0.132285328876     0.023120727685     1.007825032230

  Basis Set: AUG-CC-PVTZ
    Blend: AUG-CC-PVTZ
  Basis Set: (AUG-CC-PVTZ AUX)
    Blend: AUG-CC-PVTZ-JKFIT
	 Reference Energy          =    -613.3514732126293438 [Eh]
	 Singles Energy            =      -0.0000000000000000 [Eh]
	 Same-Spin Energy          =      -0.6726686287445592 [Eh]
	 Opposite-Spin Energy      =      -2.1181518693029204 [Eh]
	 Correlation Energy        =      -2.7908204980474798 [Eh]
	 Total Energy              =    -616.1422937106767677 [Eh]

	 ================> DF-SCS-MP2 Energies <==================
	-----------------------------------------------------------
	 SCS Same-Spin Scale       =       0.3333333333333333 [-]
	 SCS Opposite-Spin Scale   =       1.2000000000000000 [-]
	 SCS Same-Spin Energy      =      -0.2242228762481864 [Eh]
	 SCS Opposite-Spin Energy  =      -2.5417822431635044 [Eh]
	 SCS Correlation Energy    =      -2.7660051194116910 [Eh]
	 SCS Total Energy          =    -616.1174783320410597 [Eh]
	-----------------------------------------------------------

  Dipole Moment: [D]
     X:    -0.9075      Y:     0.8517      Z:     0.4788     Total:     1.3335

*** Psi4 exiting successfully. Buy a developer a beer!
