                               Psi4 1.4a3.dev225

  ==> Input File <==

--------------------------------------------------------------------------
#psi4
#
memory 32 gb

molecule  {
0 1
  O        0.8655410    -0.2383350    -0.1978900
  C       -1.3532420     0.4851090     0.1659470
  C        0.0923410     0.8600100     0.3004220
  C       -4.0724067    -0.2602796    -0.0036392
  C       -1.8292680    -0.6845410     0.7713590
  C       -2.2449120     1.2876570    -0.5496990
  C       -3.1721270    -1.0365930     0.6617200
  C       -3.5922330     0.9350480    -0.6483300
  C        2.2320470    -0.1282220    -0.1046120
  C       -5.5355430    -0.5984480    -0.1257210
  C        2.9140800     0.9938170     0.3783620
  C        2.9472190    -1.2508620    -0.5439590
  C        4.3132210     0.9773220     0.4183570
  C        4.3370840    -1.2508910    -0.4991240
  C        5.0300920    -0.1353830    -0.0155080
  H        0.3103430     1.7730630    -0.2708990
  H        0.3551050     1.0439550     1.3523320
  H       -1.1374380    -1.3254410     1.3139440
  H       -1.8855300     2.1916430    -1.0389860
  H       -3.5267120    -1.9532640     1.1308580
  H       -4.2733370     1.5694920    -1.2133600
  H       -6.0038750    -0.1617940    -1.0122750
  H       -5.6673980    -1.6833350    -0.1714030
  H       -6.0811880    -0.2353180     0.7521400
  H        2.3826970     1.8764090     0.7176150
  H        2.3879470    -2.1054110    -0.9150460
  H        4.8399070     1.8514100     0.7945710
  H        4.8825510    -2.1268580    -0.8422600
  H        6.1161710    -0.1361850     0.0199920
units angstrom
no_reorient  #important for SAPT in psi4, default
symmetry c1  #important for SAPT in psi4, default
}

set PROPERTIES_ORIGIN ["COM"]
properties('MP2/aug-cc-pvtz', properties = ['dipole'])
--------------------------------------------------------------------------

    Molecular point group: c1
  Charge       = 0
  Multiplicity = 1
  Basis Set: AUG-CC-PVTZ
    Blend: AUG-CC-PVTZ
  Basis Set: (AUG-CC-PVTZ AUX)
    Blend: AUG-CC-PVTZ-JKFIT

    Orbital Energies [Eh]
    ---------------------

    Doubly Occupied:

       1A    -20.583809     2A    -11.300936     3A    -11.293088
       4A    -11.243765     5A    -11.240918     6A    -11.239357
       7A    -11.238847     8A    -11.237496     9A    -11.236114
      10A    -11.235093    11A    -11.232892    12A    -11.227632
      13A    -11.227621    14A    -11.227215    15A    -11.225996
      16A     -1.404753    17A     -1.158969    18A     -1.143718
      19A     -1.067510    20A     -1.017805    21A     -1.013556
      22A     -1.007746    23A     -0.963992    24A     -0.900029
      25A     -0.833868    26A     -0.830992    27A     -0.807727
      28A     -0.782535    29A     -0.721114    30A     -0.684008
      31A     -0.670311    32A     -0.663632    33A     -0.643694
      34A     -0.631030    35A     -0.620140    36A     -0.609461
      37A     -0.586800    38A     -0.583993    39A     -0.577239
      40A     -0.564088    41A     -0.543701    42A     -0.532195
      43A     -0.521644    44A     -0.514805    45A     -0.492966
      46A     -0.488343    47A     -0.483269    48A     -0.475288
      49A     -0.464230    50A     -0.340285    51A     -0.339011
      52A     -0.319706    53A     -0.312195

  @DF-RHF Final Energy:  -613.36858361037298

   => Energetics <=

    Nuclear Repulsion Energy =            870.7620449050433535
    One-Electron Energy =               -2559.6470068169801380
    Two-Electron Energy =                1075.5163783015639183
    Total Energy =                       -613.3685836103729798
  Basis Set: (AUG-CC-PVTZ AUX)
    Blend: AUG-CC-PVTZ-RI
    Molecular point group: c1

    Geometry (in Angstrom), charge = 0, multiplicity = 1:

       Center              X                  Y                   Z               Mass
    ------------   -----------------  -----------------  -----------------  -----------------
         O            0.828779605787    -0.233770057746    -0.197504934150    15.994914619570
         C           -1.390003394213     0.489673942254     0.166332065850    12.000000000000
         C            0.055579605787     0.864574942254     0.300807065850    12.000000000000
         C           -4.109168094213    -0.255714657746    -0.003254134150    12.000000000000
         C           -1.866029394213    -0.679976057746     0.771744065850    12.000000000000
         C           -2.281673394213     1.292221942254    -0.549313934150    12.000000000000
         C           -3.208888394213    -1.032028057746     0.662105065850    12.000000000000
         C           -3.628994394213     0.939612942254    -0.647944934150    12.000000000000
         C            2.195285605787    -0.123657057746    -0.104226934150    12.000000000000
         C           -5.572304394213    -0.593883057746    -0.125335934150    12.000000000000
         C            2.877318605787     0.998381942254     0.378747065850    12.000000000000
         C            2.910457605787    -1.246297057746    -0.543573934150    12.000000000000
         C            4.276459605787     0.981886942254     0.418742065850    12.000000000000
         C            4.300322605787    -1.246326057746    -0.498738934150    12.000000000000
         C            4.993330605787    -0.130818057746    -0.015122934150    12.000000000000
         H            0.273581605787     1.777627942254    -0.270513934150     1.007825032230
         H            0.318343605787     1.048519942254     1.352717065850     1.007825032230
         H           -1.174199394213    -1.320876057746     1.314329065850     1.007825032230
         H           -1.922291394213     2.196207942254    -1.038600934150     1.007825032230
         H           -3.563473394213    -1.948699057746     1.131243065850     1.007825032230
         H           -4.310098394213     1.574056942254    -1.212974934150     1.007825032230
         H           -6.040636394213    -0.157229057746    -1.011889934150     1.007825032230
         H           -5.704159394213    -1.678770057746    -0.171017934150     1.007825032230
         H           -6.117949394213    -0.230753057746     0.752525065850     1.007825032230
         H            2.345935605787     1.880973942254     0.718000065850     1.007825032230
         H            2.351185605787    -2.100846057746    -0.914660934150     1.007825032230
         H            4.803145605787     1.855974942254     0.794956065850     1.007825032230
         H            4.845789605787    -2.122293057746    -0.841874934150     1.007825032230
         H            6.079409605787    -0.131620057746     0.020377065850     1.007825032230

  Basis Set: AUG-CC-PVTZ
    Blend: AUG-CC-PVTZ
  Basis Set: (AUG-CC-PVTZ AUX)
    Blend: AUG-CC-PVTZ-JKFIT
	 Reference Energy          =    -613.3685836103729798 [Eh]
	 Singles Energy            =      -0.0000000000000000 [Eh]
	 Same-Spin Energy          =      -0.6727111322246542 [Eh]
	 Opposite-Spin Energy      =      -2.1167237664299505 [Eh]
	 Correlation Energy        =      -2.7894348986546049 [Eh]
	 Total Energy              =    -616.1580185090275563 [Eh]

	 ================> DF-SCS-MP2 Energies <==================
	-----------------------------------------------------------
	 SCS Same-Spin Scale       =       0.3333333333333333 [-]
	 SCS Opposite-Spin Scale   =       1.2000000000000000 [-]
	 SCS Same-Spin Energy      =      -0.2242370440748847 [Eh]
	 SCS Opposite-Spin Energy  =      -2.5400685197159407 [Eh]
	 SCS Correlation Energy    =      -2.7643055637908254 [Eh]
	 SCS Total Energy          =    -616.1328891741637790 [Eh]
	-----------------------------------------------------------

  Dipole Moment: [D]
     X:    -1.0128      Y:     0.7383      Z:     0.4547     Total:     1.3333

*** Psi4 exiting successfully. Buy a developer a beer!
