                               Psi4 1.4a3.dev225

  ==> Input File <==

--------------------------------------------------------------------------
#psi4
#
memory 32 gb

molecule  {
0 1
  O        0.8655410    -0.2383350    -0.1978900
  C       -1.3532420     0.4851090     0.1659470
  C        0.0717985     0.9451586     0.2431383
  C       -4.0760200    -0.2326370    -0.0482320
  C       -1.8292680    -0.6845410     0.7713590
  C       -2.2449120     1.2876570    -0.5496990
  C       -3.1721270    -1.0365930     0.6617200
  C       -3.5922330     0.9350480    -0.6483300
  C        2.2320470    -0.1282220    -0.1046120
  C       -5.5355430    -0.5984480    -0.1257210
  C        2.9140800     0.9938170     0.3783620
  C        2.9472190    -1.2508620    -0.5439590
  C        4.3132210     0.9773220     0.4183570
  C        4.3370840    -1.2508910    -0.4991240
  C        5.0300920    -0.1353830    -0.0155080
  H        0.3103430     1.7730630    -0.2708990
  H        0.3551050     1.0439550     1.3523320
  H       -1.1374380    -1.3254410     1.3139440
  H       -1.8855300     2.1916430    -1.0389860
  H       -3.5267120    -1.9532640     1.1308580
  H       -4.2733370     1.5694920    -1.2133600
  H       -6.0038750    -0.1617940    -1.0122750
  H       -5.6673980    -1.6833350    -0.1714030
  H       -6.0811880    -0.2353180     0.7521400
  H        2.3826970     1.8764090     0.7176150
  H        2.3879470    -2.1054110    -0.9150460
  H        4.8399070     1.8514100     0.7945710
  H        4.8825510    -2.1268580    -0.8422600
  H        6.1161710    -0.1361850     0.0199920
units angstrom
no_reorient  #important for SAPT in psi4, default
symmetry c1  #important for SAPT in psi4, default
}

set PROPERTIES_ORIGIN ["COM"]
properties('MP2/aug-cc-pvtz', properties = ['dipole'])
--------------------------------------------------------------------------

    Molecular point group: c1
  Charge       = 0
  Multiplicity = 1
  Basis Set: AUG-CC-PVTZ
    Blend: AUG-CC-PVTZ
  Basis Set: (AUG-CC-PVTZ AUX)
    Blend: AUG-CC-PVTZ-JKFIT

    Orbital Energies [Eh]
    ---------------------

    Doubly Occupied:

       1A    -20.579420     2A    -11.298153     3A    -11.294999
       4A    -11.244707     5A    -11.241772     6A    -11.239502
       7A    -11.237791     8A    -11.237727     9A    -11.237463
      10A    -11.233829    11A    -11.232763    12A    -11.230701
      13A    -11.226513    14A    -11.225136    15A    -11.225064
      16A     -1.387659    17A     -1.159872    18A     -1.141155
      19A     -1.068777    20A     -1.015794    21A     -1.014377
      22A     -1.005251    23A     -0.966782    24A     -0.902386
      25A     -0.834437    26A     -0.829693    27A     -0.805711
      28A     -0.785843    29A     -0.717549    30A     -0.683627
      31A     -0.672644    32A     -0.655005    33A     -0.640853
      34A     -0.632478    35A     -0.621658    36A     -0.607106
      37A     -0.584907    38A     -0.584668    39A     -0.577626
      40A     -0.558502    41A     -0.545751    42A     -0.534980
      43A     -0.525590    44A     -0.512329    45A     -0.491624
      46A     -0.487117    47A     -0.484968    48A     -0.478606
      49A     -0.462877    50A     -0.338492    51A     -0.337804
      52A     -0.322341    53A     -0.309392

  @DF-RHF Final Energy:  -613.35767525012750

   => Energetics <=

    Nuclear Repulsion Energy =            869.8384086911248687
    One-Electron Energy =               -2557.8486291679137139
    Two-Electron Energy =                1074.6525452266614593
    Total Energy =                       -613.3576752501273859
  Basis Set: (AUG-CC-PVTZ AUX)
    Blend: AUG-CC-PVTZ-RI
    Molecular point group: c1

    Geometry (in Angstrom), charge = 0, multiplicity = 1:

       Center              X                  Y                   Z               Mass
    ------------   -----------------  -----------------  -----------------  -----------------
         O            0.830242821671    -0.240602283358    -0.191333856686    15.994914619570
         C           -1.388540178329     0.482841716642     0.172503143314    12.000000000000
         C            0.036500321671     0.942891316642     0.249694443314    12.000000000000
         C           -4.111318178329    -0.234904283358    -0.041675856686    12.000000000000
         C           -1.864566178329    -0.686808283358     0.777915143314    12.000000000000
         C           -2.280210178329     1.285389716642    -0.543142856686    12.000000000000
         C           -3.207425178329    -1.038860283358     0.668276143314    12.000000000000
         C           -3.627531178329     0.932780716642    -0.641773856686    12.000000000000
         C            2.196748821671    -0.130489283358    -0.098055856686    12.000000000000
         C           -5.570841178329    -0.600715283358    -0.119164856686    12.000000000000
         C            2.878781821671     0.991549716642     0.384918143314    12.000000000000
         C            2.911920821671    -1.253129283358    -0.537402856686    12.000000000000
         C            4.277922821671     0.975054716642     0.424913143314    12.000000000000
         C            4.301785821671    -1.253158283358    -0.492567856686    12.000000000000
         C            4.994793821671    -0.137650283358    -0.008951856686    12.000000000000
         H            0.275044821671     1.770795716642    -0.264342856686     1.007825032230
         H            0.319806821671     1.041687716642     1.358888143314     1.007825032230
         H           -1.172736178329    -1.327708283358     1.320500143314     1.007825032230
         H           -1.920828178329     2.189375716642    -1.032429856686     1.007825032230
         H           -3.562010178329    -1.955531283358     1.137414143314     1.007825032230
         H           -4.308635178329     1.567224716642    -1.206803856686     1.007825032230
         H           -6.039173178329    -0.164061283358    -1.005718856686     1.007825032230
         H           -5.702696178329    -1.685602283358    -0.164846856686     1.007825032230
         H           -6.116486178329    -0.237585283358     0.758696143314     1.007825032230
         H            2.347398821671     1.874141716642     0.724171143314     1.007825032230
         H            2.352648821671    -2.107678283358    -0.908489856686     1.007825032230
         H            4.804608821671     1.849142716642     0.801127143314     1.007825032230
         H            4.847252821671    -2.129125283358    -0.835703856686     1.007825032230
         H            6.080872821671    -0.138452283358     0.026548143314     1.007825032230

  Basis Set: AUG-CC-PVTZ
    Blend: AUG-CC-PVTZ
  Basis Set: (AUG-CC-PVTZ AUX)
    Blend: AUG-CC-PVTZ-JKFIT
	 Reference Energy          =    -613.3576752501274996 [Eh]
	 Singles Energy            =      -0.0000000000000000 [Eh]
	 Same-Spin Energy          =      -0.6729855578307115 [Eh]
	 Opposite-Spin Energy      =      -2.1179525873726242 [Eh]
	 Correlation Energy        =      -2.7909381452033357 [Eh]
	 Total Energy              =    -616.1486133953308126 [Eh]

	 ================> DF-SCS-MP2 Energies <==================
	-----------------------------------------------------------
	 SCS Same-Spin Scale       =       0.3333333333333333 [-]
	 SCS Opposite-Spin Scale   =       1.2000000000000000 [-]
	 SCS Same-Spin Energy      =      -0.2243285192769038 [Eh]
	 SCS Opposite-Spin Energy  =      -2.5415431048471491 [Eh]
	 SCS Correlation Energy    =      -2.7658716241240531 [Eh]
	 SCS Total Energy          =    -616.1235468742515877 [Eh]
	-----------------------------------------------------------

  Dipole Moment: [D]
     X:    -1.2345      Y:     0.8882      Z:     0.4190     Total:     1.5775

*** Psi4 exiting successfully. Buy a developer a beer!
