                               Psi4 1.4a3.dev225

  ==> Input File <==

--------------------------------------------------------------------------
#psi4
#
memory 32 gb

molecule  {
0 1
  O        0.8655410    -0.2383350    -0.1978900
  C       -1.3532420     0.4851090     0.1659470
  C        0.0923410     0.8600100     0.3004220
  C       -4.0578294    -0.2170725    -0.0533444
  C       -1.8292680    -0.6845410     0.7713590
  C       -2.2449120     1.2876570    -0.5496990
  C       -3.1721270    -1.0365930     0.6617200
  C       -3.5922330     0.9350480    -0.6483300
  C        2.2320470    -0.1282220    -0.1046120
  C       -5.5355430    -0.5984480    -0.1257210
  C        2.9140800     0.9938170     0.3783620
  C        2.9472190    -1.2508620    -0.5439590
  C        4.3132210     0.9773220     0.4183570
  C        4.3370840    -1.2508910    -0.4991240
  C        5.0300920    -0.1353830    -0.0155080
  H        0.3103430     1.7730630    -0.2708990
  H        0.3551050     1.0439550     1.3523320
  H       -1.1374380    -1.3254410     1.3139440
  H       -1.8855300     2.1916430    -1.0389860
  H       -3.5267120    -1.9532640     1.1308580
  H       -4.2733370     1.5694920    -1.2133600
  H       -6.0038750    -0.1617940    -1.0122750
  H       -5.6673980    -1.6833350    -0.1714030
  H       -6.0811880    -0.2353180     0.7521400
  H        2.3826970     1.8764090     0.7176150
  H        2.3879470    -2.1054110    -0.9150460
  H        4.8399070     1.8514100     0.7945710
  H        4.8825510    -2.1268580    -0.8422600
  H        6.1161710    -0.1361850     0.0199920
units angstrom
no_reorient  #important for SAPT in psi4, default
symmetry c1  #important for SAPT in psi4, default
}

set PROPERTIES_ORIGIN ["COM"]
properties('MP2/aug-cc-pvtz', properties = ['dipole'])
--------------------------------------------------------------------------

    Molecular point group: c1
  Charge       = 0
  Multiplicity = 1
  Basis Set: AUG-CC-PVTZ
    Blend: AUG-CC-PVTZ
  Basis Set: (AUG-CC-PVTZ AUX)
    Blend: AUG-CC-PVTZ-JKFIT

    Orbital Energies [Eh]
    ---------------------

    Doubly Occupied:

       1A    -20.583939     2A    -11.301063     3A    -11.293228
       4A    -11.242332     5A    -11.240994     6A    -11.239430
       7A    -11.239106     8A    -11.237636     9A    -11.234996
      10A    -11.232983    11A    -11.232220    12A    -11.230010
      13A    -11.227717    14A    -11.227292    15A    -11.226129
      16A     -1.404907    17A     -1.160364    18A     -1.143980
      19A     -1.066122    20A     -1.017597    21A     -1.014429
      22A     -1.007775    23A     -0.962534    24A     -0.899629
      25A     -0.834383    26A     -0.831285    27A     -0.809331
      28A     -0.782755    29A     -0.721215    30A     -0.684308
      31A     -0.670658    32A     -0.663715    33A     -0.643097
      34A     -0.630946    35A     -0.620641    36A     -0.609590
      37A     -0.586799    38A     -0.585321    39A     -0.575028
      40A     -0.562946    41A     -0.542629    42A     -0.530273
      43A     -0.523363    44A     -0.513620    45A     -0.492246
      46A     -0.487937    47A     -0.484145    48A     -0.478136
      49A     -0.464424    50A     -0.339990    51A     -0.337099
      52A     -0.324292    53A     -0.312366

  @DF-RHF Final Energy:  -613.37144970910845

   => Energetics <=

    Nuclear Repulsion Energy =            871.0111795734084126
    One-Electron Energy =               -2560.1473606550066506
    Two-Electron Energy =                1075.7647313724899050
    Total Energy =                       -613.3714497091084468
  Basis Set: (AUG-CC-PVTZ AUX)
    Blend: AUG-CC-PVTZ-RI
    Molecular point group: c1

    Geometry (in Angstrom), charge = 0, multiplicity = 1:

       Center              X                  Y                   Z               Mass
    ------------   -----------------  -----------------  -----------------  -----------------
         O            0.827896598935    -0.236387289013    -0.194494086314    15.994914619570
         C           -1.390886401065     0.487056710987     0.169342913686    12.000000000000
         C            0.054696598935     0.861957710987     0.303817913686    12.000000000000
         C           -4.095473801065    -0.215124789013    -0.049948486314    12.000000000000
         C           -1.866912401065    -0.682593289013     0.774754913686    12.000000000000
         C           -2.282556401065     1.289604710987    -0.546303086314    12.000000000000
         C           -3.209771401065    -1.034645289013     0.665115913686    12.000000000000
         C           -3.629877401065     0.936995710987    -0.644934086314    12.000000000000
         C            2.194402598935    -0.126274289013    -0.101216086314    12.000000000000
         C           -5.573187401065    -0.596500289013    -0.122325086314    12.000000000000
         C            2.876435598935     0.995764710987     0.381757913686    12.000000000000
         C            2.909574598935    -1.248914289013    -0.540563086314    12.000000000000
         C            4.275576598935     0.979269710987     0.421752913686    12.000000000000
         C            4.299439598935    -1.248943289013    -0.495728086314    12.000000000000
         C            4.992447598935    -0.133435289013    -0.012112086314    12.000000000000
         H            0.272698598935     1.775010710987    -0.267503086314     1.007825032230
         H            0.317460598935     1.045902710987     1.355727913686     1.007825032230
         H           -1.175082401065    -1.323493289013     1.317339913686     1.007825032230
         H           -1.923174401065     2.193590710987    -1.035590086314     1.007825032230
         H           -3.564356401065    -1.951316289013     1.134253913686     1.007825032230
         H           -4.310981401065     1.571439710987    -1.209964086314     1.007825032230
         H           -6.041519401065    -0.159846289013    -1.008879086314     1.007825032230
         H           -5.705042401065    -1.681387289013    -0.168007086314     1.007825032230
         H           -6.118832401065    -0.233370289013     0.755535913686     1.007825032230
         H            2.345052598935     1.878356710987     0.721010913686     1.007825032230
         H            2.350302598935    -2.103463289013    -0.911650086314     1.007825032230
         H            4.802262598935     1.853357710987     0.797966913686     1.007825032230
         H            4.844906598935    -2.124910289013    -0.838864086314     1.007825032230
         H            6.078526598935    -0.134237289013     0.023387913686     1.007825032230

  Basis Set: AUG-CC-PVTZ
    Blend: AUG-CC-PVTZ
  Basis Set: (AUG-CC-PVTZ AUX)
    Blend: AUG-CC-PVTZ-JKFIT
	 Reference Energy          =    -613.3714497091084468 [Eh]
	 Singles Energy            =      -0.0000000000000000 [Eh]
	 Same-Spin Energy          =      -0.6724404974278403 [Eh]
	 Opposite-Spin Energy      =      -2.1162541889210376 [Eh]
	 Correlation Energy        =      -2.7886946863488777 [Eh]
	 Total Energy              =    -616.1601443954573369 [Eh]

	 ================> DF-SCS-MP2 Energies <==================
	-----------------------------------------------------------
	 SCS Same-Spin Scale       =       0.3333333333333333 [-]
	 SCS Opposite-Spin Scale   =       1.2000000000000000 [-]
	 SCS Same-Spin Energy      =      -0.2241468324759467 [Eh]
	 SCS Opposite-Spin Energy  =      -2.5395050267052448 [Eh]
	 SCS Correlation Energy    =      -2.7636518591811914 [Eh]
	 SCS Total Energy          =    -616.1351015682896559 [Eh]
	-----------------------------------------------------------

  Dipole Moment: [D]
     X:    -0.9672      Y:     0.7362      Z:     0.4740     Total:     1.3047

*** Psi4 exiting successfully. Buy a developer a beer!
