                               Psi4 1.4a3.dev225

  ==> Input File <==

--------------------------------------------------------------------------
#psi4
#
memory 32 gb

molecule  {
0 1
  O        0.8655410    -0.2383350    -0.1978900
  C       -1.3532420     0.4851090     0.1659470
  C        0.0923410     0.8600100     0.3004220
  C       -4.0760200    -0.2326370    -0.0482320
  C       -1.8292680    -0.6845410     0.7713590
  C       -2.2449120     1.2876570    -0.5496990
  C       -3.1914132    -1.0416492     0.6601454
  C       -3.5922330     0.9350480    -0.6483300
  C        2.2320470    -0.1282220    -0.1046120
  C       -5.5355430    -0.5984480    -0.1257210
  C        2.9140800     0.9938170     0.3783620
  C        2.9472190    -1.2508620    -0.5439590
  C        4.3132210     0.9773220     0.4183570
  C        4.3370840    -1.2508910    -0.4991240
  C        5.0300920    -0.1353830    -0.0155080
  H        0.3103430     1.7730630    -0.2708990
  H        0.3551050     1.0439550     1.3523320
  H       -1.1374380    -1.3254410     1.3139440
  H       -1.8855300     2.1916430    -1.0389860
  H       -3.5267120    -1.9532640     1.1308580
  H       -4.2733370     1.5694920    -1.2133600
  H       -6.0038750    -0.1617940    -1.0122750
  H       -5.6673980    -1.6833350    -0.1714030
  H       -6.0811880    -0.2353180     0.7521400
  H        2.3826970     1.8764090     0.7176150
  H        2.3879470    -2.1054110    -0.9150460
  H        4.8399070     1.8514100     0.7945710
  H        4.8825510    -2.1268580    -0.8422600
  H        6.1161710    -0.1361850     0.0199920
units angstrom
no_reorient  #important for SAPT in psi4, default
symmetry c1  #important for SAPT in psi4, default
}

set PROPERTIES_ORIGIN ["COM"]
properties('MP2/aug-cc-pvtz', properties = ['dipole'])
--------------------------------------------------------------------------

    Molecular point group: c1
  Charge       = 0
  Multiplicity = 1
  Basis Set: AUG-CC-PVTZ
    Blend: AUG-CC-PVTZ
  Basis Set: (AUG-CC-PVTZ AUX)
    Blend: AUG-CC-PVTZ-JKFIT

    Orbital Energies [Eh]
    ---------------------

    Doubly Occupied:

       1A    -20.583927     2A    -11.301029     3A    -11.293254
       4A    -11.242812     5A    -11.240979     6A    -11.239415
       7A    -11.239261     8A    -11.237902     9A    -11.236961
      10A    -11.232967    11A    -11.232532    12A    -11.232294
      13A    -11.227698    14A    -11.227276    15A    -11.225223
      16A     -1.404883    17A     -1.158264    18A     -1.143702
      19A     -1.067902    20A     -1.017785    21A     -1.012243
      22A     -1.007247    23A     -0.963495    24A     -0.899849
      25A     -0.834410    26A     -0.831632    27A     -0.808924
      28A     -0.781706    29A     -0.721194    30A     -0.683797
      31A     -0.670191    32A     -0.663688    33A     -0.643664
      34A     -0.632319    35A     -0.620994    36A     -0.609471
      37A     -0.586835    38A     -0.583155    39A     -0.576863
      40A     -0.564392    41A     -0.542959    42A     -0.531443
      43A     -0.522788    44A     -0.513844    45A     -0.491249
      46A     -0.488359    47A     -0.483954    48A     -0.478335
      49A     -0.464353    50A     -0.339976    51A     -0.334724
      52A     -0.323541    53A     -0.312326

  @DF-RHF Final Energy:  -613.37095966482332

   => Energetics <=

    Nuclear Repulsion Energy =            870.5424722948755516
    One-Electron Energy =               -2559.2068972437909906
    Two-Electron Energy =                1075.2934652840922354
    Total Energy =                       -613.3709596648232036
  Basis Set: (AUG-CC-PVTZ AUX)
    Blend: AUG-CC-PVTZ-RI
    Molecular point group: c1

    Geometry (in Angstrom), charge = 0, multiplicity = 1:

       Center              X                  Y                   Z               Mass
    ------------   -----------------  -----------------  -----------------  -----------------
         O            0.830166722427    -0.235138208635    -0.194708385371    15.994914619570
         C           -1.388616277573     0.488305791365     0.169128614629    12.000000000000
         C            0.056966722427     0.863206791365     0.303603614629    12.000000000000
         C           -4.111394277573    -0.229440208635    -0.045050385371    12.000000000000
         C           -1.864642277573    -0.681344208635     0.774540614629    12.000000000000
         C           -2.280286277573     1.290853791365    -0.546517385371    12.000000000000
         C           -3.226787477573    -1.038452408635     0.663327014629    12.000000000000
         C           -3.627607277573     0.938244791365    -0.645148385371    12.000000000000
         C            2.196672722427    -0.125025208635    -0.101430385371    12.000000000000
         C           -5.570917277573    -0.595251208635    -0.122539385371    12.000000000000
         C            2.878705722427     0.997013791365     0.381543614629    12.000000000000
         C            2.911844722427    -1.247665208635    -0.540777385371    12.000000000000
         C            4.277846722427     0.980518791365     0.421538614629    12.000000000000
         C            4.301709722427    -1.247694208635    -0.495942385371    12.000000000000
         C            4.994717722427    -0.132186208635    -0.012326385371    12.000000000000
         H            0.274968722427     1.776259791365    -0.267717385371     1.007825032230
         H            0.319730722427     1.047151791365     1.355513614629     1.007825032230
         H           -1.172812277573    -1.322244208635     1.317125614629     1.007825032230
         H           -1.920904277573     2.194839791365    -1.035804385371     1.007825032230
         H           -3.562086277573    -1.950067208635     1.134039614629     1.007825032230
         H           -4.308711277573     1.572688791365    -1.210178385371     1.007825032230
         H           -6.039249277573    -0.158597208635    -1.009093385371     1.007825032230
         H           -5.702772277573    -1.680138208635    -0.168221385371     1.007825032230
         H           -6.116562277573    -0.232121208635     0.755321614629     1.007825032230
         H            2.347322722427     1.879605791365     0.720796614629     1.007825032230
         H            2.352572722427    -2.102214208635    -0.911864385371     1.007825032230
         H            4.804532722427     1.854606791365     0.797752614629     1.007825032230
         H            4.847176722427    -2.123661208635    -0.839078385371     1.007825032230
         H            6.080796722427    -0.132988208635     0.023173614629     1.007825032230

  Basis Set: AUG-CC-PVTZ
    Blend: AUG-CC-PVTZ
  Basis Set: (AUG-CC-PVTZ AUX)
    Blend: AUG-CC-PVTZ-JKFIT
	 Reference Energy          =    -613.3709596648233173 [Eh]
	 Singles Energy            =      -0.0000000000000000 [Eh]
	 Same-Spin Energy          =      -0.6726736248399048 [Eh]
	 Opposite-Spin Energy      =      -2.1166180222926432 [Eh]
	 Correlation Energy        =      -2.7892916471325480 [Eh]
	 Total Energy              =    -616.1602513119559035 [Eh]

	 ================> DF-SCS-MP2 Energies <==================
	-----------------------------------------------------------
	 SCS Same-Spin Scale       =       0.3333333333333333 [-]
	 SCS Opposite-Spin Scale   =       1.2000000000000000 [-]
	 SCS Same-Spin Energy      =      -0.2242245416133016 [Eh]
	 SCS Opposite-Spin Energy  =      -2.5399416267511716 [Eh]
	 SCS Correlation Energy    =      -2.7641661683644734 [Eh]
	 SCS Total Energy          =    -616.1351258331877716 [Eh]
	-----------------------------------------------------------

  Dipole Moment: [D]
     X:    -0.9876      Y:     0.7290      Z:     0.4751     Total:     1.3162

*** Psi4 exiting successfully. Buy a developer a beer!
