                               Psi4 1.4a3.dev225

  ==> Input File <==

--------------------------------------------------------------------------
#psi4
#
memory 32 gb

molecule  {
0 1
  O        0.8655410    -0.2383350    -0.1978900
  C       -1.3532420     0.4851090     0.1659470
  C        0.0923410     0.8600100     0.3004220
  C       -4.0760200    -0.2326370    -0.0482320
  C       -1.8292680    -0.6845410     0.7713590
  C       -2.2449120     1.2876570    -0.5496990
  C       -3.1721270    -1.0365930     0.6617200
  C       -3.5922330     0.9350480    -0.6483300
  C        2.2320470    -0.1282220    -0.1046120
  C       -5.5355430    -0.5984480    -0.1257210
  C        2.9140800     0.9938170     0.3783620
  C        2.9472190    -1.2508620    -0.5439590
  C        4.3132210     0.9773220     0.4183570
  C        4.1371880    -1.2508868    -0.5055724
  C        5.0300920    -0.1353830    -0.0155080
  H        0.3103430     1.7730630    -0.2708990
  H        0.3551050     1.0439550     1.3523320
  H       -1.1374380    -1.3254410     1.3139440
  H       -1.8855300     2.1916430    -1.0389860
  H       -3.5267120    -1.9532640     1.1308580
  H       -4.2733370     1.5694920    -1.2133600
  H       -6.0038750    -0.1617940    -1.0122750
  H       -5.6673980    -1.6833350    -0.1714030
  H       -6.0811880    -0.2353180     0.7521400
  H        2.3826970     1.8764090     0.7176150
  H        2.3879470    -2.1054110    -0.9150460
  H        4.8399070     1.8514100     0.7945710
  H        4.8825510    -2.1268580    -0.8422600
  H        6.1161710    -0.1361850     0.0199920
units angstrom
no_reorient  #important for SAPT in psi4, default
symmetry c1  #important for SAPT in psi4, default
}

set PROPERTIES_ORIGIN ["COM"]
properties('MP2/aug-cc-pvtz', properties = ['dipole'])
--------------------------------------------------------------------------

    Molecular point group: c1
  Charge       = 0
  Multiplicity = 1
  Basis Set: AUG-CC-PVTZ
    Blend: AUG-CC-PVTZ
  Basis Set: (AUG-CC-PVTZ AUX)
    Blend: AUG-CC-PVTZ-JKFIT

    Orbital Energies [Eh]
    ---------------------

    Doubly Occupied:

       1A    -20.587969     2A    -11.305025     3A    -11.293850
       4A    -11.244403     5A    -11.239708     6A    -11.238140
       7A    -11.238077     8A    -11.235633     9A    -11.233193
      10A    -11.232823    11A    -11.232703    12A    -11.232242
      13A    -11.226977    14A    -11.226303    15A    -11.205370
      16A     -1.407816    17A     -1.166421    18A     -1.155243
      19A     -1.066973    20A     -1.044784    21A     -1.013789
      22A     -0.997665    23A     -0.962474    24A     -0.902727
      25A     -0.834295    26A     -0.819832    27A     -0.813583
      28A     -0.780726    29A     -0.722235    30A     -0.684884
      31A     -0.671751    32A     -0.664659    33A     -0.648134
      34A     -0.629669    35A     -0.621748    36A     -0.600146
      37A     -0.593653    38A     -0.584149    39A     -0.577559
      40A     -0.565578    41A     -0.545625    42A     -0.535312
      43A     -0.527092    44A     -0.518907    45A     -0.489313
      46A     -0.487452    47A     -0.484324    48A     -0.466915
      49A     -0.444915    50A     -0.370699    51A     -0.337340
      52A     -0.322918    53A     -0.301135

  @DF-RHF Final Energy:  -613.30888247710357

   => Energetics <=

    Nuclear Repulsion Energy =            873.7463842264940013
    One-Electron Energy =               -2565.4408203882212547
    Two-Electron Energy =                1078.3855536846235736
    Total Energy =                       -613.3088824771036798
  Basis Set: (AUG-CC-PVTZ AUX)
    Blend: AUG-CC-PVTZ-RI
    Molecular point group: c1

    Geometry (in Angstrom), charge = 0, multiplicity = 1:

       Center              X                  Y                   Z               Mass
    ------------   -----------------  -----------------  -----------------  -----------------
         O            0.841106998807    -0.235444737819    -0.194413159314    15.994914619570
         C           -1.377676001193     0.487999262181     0.169423840686    12.000000000000
         C            0.067906998807     0.862900262181     0.303898840686    12.000000000000
         C           -4.100454001193    -0.229746737819    -0.044755159314    12.000000000000
         C           -1.853702001193    -0.681650737819     0.774835840686    12.000000000000
         C           -2.269346001193     1.290547262181    -0.546222159314    12.000000000000
         C           -3.196561001193    -1.033702737819     0.665196840686    12.000000000000
         C           -3.616667001193     0.937938262181    -0.644853159314    12.000000000000
         C            2.207612998807    -0.125331737819    -0.101135159314    12.000000000000
         C           -5.559977001193    -0.595557737819    -0.122244159314    12.000000000000
         C            2.889645998807     0.996707262181     0.381838840686    12.000000000000
         C            2.922784998807    -1.247971737819    -0.540482159314    12.000000000000
         C            4.288786998807     0.980212262181     0.421833840686    12.000000000000
         C            4.112753998807    -1.247996537819    -0.502095559314    12.000000000000
         C            5.005657998807    -0.132492737819    -0.012031159314    12.000000000000
         H            0.285908998807     1.775953262181    -0.267422159314     1.007825032230
         H            0.330670998807     1.046845262181     1.355808840686     1.007825032230
         H           -1.161872001193    -1.322550737819     1.317420840686     1.007825032230
         H           -1.909964001193     2.194533262181    -1.035509159314     1.007825032230
         H           -3.551146001193    -1.950373737819     1.134334840686     1.007825032230
         H           -4.297771001193     1.572382262181    -1.209883159314     1.007825032230
         H           -6.028309001193    -0.158903737819    -1.008798159314     1.007825032230
         H           -5.691832001193    -1.680444737819    -0.167926159314     1.007825032230
         H           -6.105622001193    -0.232427737819     0.755616840686     1.007825032230
         H            2.358262998807     1.879299262181     0.721091840686     1.007825032230
         H            2.363512998807    -2.102520737819    -0.911569159314     1.007825032230
         H            4.815472998807     1.854300262181     0.798047840686     1.007825032230
         H            4.858116998807    -2.123967737819    -0.838783159314     1.007825032230
         H            6.091736998807    -0.133294737819     0.023468840686     1.007825032230

  Basis Set: AUG-CC-PVTZ
    Blend: AUG-CC-PVTZ
  Basis Set: (AUG-CC-PVTZ AUX)
    Blend: AUG-CC-PVTZ-JKFIT
	 Reference Energy          =    -613.3088824771035661 [Eh]
	 Singles Energy            =      -0.0000000000000000 [Eh]
	 Same-Spin Energy          =      -0.6718230413244595 [Eh]
	 Opposite-Spin Energy      =      -2.1177029933670743 [Eh]
	 Correlation Energy        =      -2.7895260346915336 [Eh]
	 Total Energy              =    -616.0984085117951281 [Eh]

	 ================> DF-SCS-MP2 Energies <==================
	-----------------------------------------------------------
	 SCS Same-Spin Scale       =       0.3333333333333333 [-]
	 SCS Opposite-Spin Scale   =       1.2000000000000000 [-]
	 SCS Same-Spin Energy      =      -0.2239410137748198 [Eh]
	 SCS Opposite-Spin Energy  =      -2.5412435920404892 [Eh]
	 SCS Correlation Energy    =      -2.7651846058153091 [Eh]
	 SCS Total Energy          =    -616.0740670829188730 [Eh]
	-----------------------------------------------------------

  Dipole Moment: [D]
     X:    -1.1244      Y:     0.7238      Z:     0.4634     Total:     1.4152

*** Psi4 exiting successfully. Buy a developer a beer!
