                               Psi4 1.4a3.dev225

  ==> Input File <==

--------------------------------------------------------------------------
#psi4
#
memory 32 gb

molecule  {
0 1
  O        0.8655410    -0.2383350    -0.1978900
  C       -1.3532420     0.4851090     0.1659470
  C        0.0923410     0.8600100     0.3004220
  C       -4.0760200    -0.2326370    -0.0482320
  C       -1.8292680    -0.6845410     0.7713590
  C       -2.2449120     1.2876570    -0.5496990
  C       -3.1721270    -1.0365930     0.6617200
  C       -3.5922330     0.9350480    -0.6483300
  C        2.2320470    -0.1282220    -0.1046120
  C       -5.5355430    -0.5984480    -0.1257210
  C        2.9140800     0.9938170     0.3783620
  C        2.9472190    -1.2508620    -0.5439590
  C        4.3132210     0.9773220     0.4183570
  C        4.3370840    -1.2508910    -0.4991240
  C        5.0300920    -0.1353830    -0.0155080
  H        0.3103430     1.7730630    -0.2708990
  H        0.3551050     1.0439550     1.3523320
  H       -1.1374380    -1.3254410     1.3139440
  H       -1.8855300     2.1916430    -1.0389860
  H       -3.5267120    -1.9532640     1.1308580
  H       -4.2733370     1.5694920    -1.2133600
  H       -6.0038750    -0.1617940    -1.0122750
  H       -5.6673980    -1.6833350    -0.1714030
  H       -6.0811880    -0.2353180     0.7521400
  H        2.3826970     1.8764090     0.7176150
  H        2.3879470    -2.1054110    -0.9150460
  H        4.8156947     1.8112273     0.7772761
  H        4.8825510    -2.1268580    -0.8422600
  H        6.1161710    -0.1361850     0.0199920
units angstrom
no_reorient  #important for SAPT in psi4, default
symmetry c1  #important for SAPT in psi4, default
}

set PROPERTIES_ORIGIN ["COM"]
properties('MP2/aug-cc-pvtz', properties = ['dipole'])
--------------------------------------------------------------------------

    Molecular point group: c1
  Charge       = 0
  Multiplicity = 1
  Basis Set: AUG-CC-PVTZ
    Blend: AUG-CC-PVTZ
  Basis Set: (AUG-CC-PVTZ AUX)
    Blend: AUG-CC-PVTZ-JKFIT

    Orbital Energies [Eh]
    ---------------------

    Doubly Occupied:

       1A    -20.583714     2A    -11.300729     3A    -11.293090
       4A    -11.243808     5A    -11.239082     6A    -11.239068
       7A    -11.237511     8A    -11.235111     9A    -11.234920
      10A    -11.232446    11A    -11.232231    12A    -11.232064
      13A    -11.227535    14A    -11.226838    15A    -11.225838
      16A     -1.404689    17A     -1.158799    18A     -1.143843
      19A     -1.067041    20A     -1.019110    21A     -1.013358
      22A     -1.008127    23A     -0.964196    24A     -0.899601
      25A     -0.834890    26A     -0.832245    27A     -0.809524
      28A     -0.782361    29A     -0.723424    30A     -0.683859
      31A     -0.670438    32A     -0.663765    33A     -0.644401
      34A     -0.632040    35A     -0.620652    36A     -0.611609
      37A     -0.589658    38A     -0.583516    39A     -0.576961
      40A     -0.563837    41A     -0.543265    42A     -0.532085
      43A     -0.522740    44A     -0.514118    45A     -0.492104
      46A     -0.486558    47A     -0.485004    48A     -0.479526
      49A     -0.464022    50A     -0.339718    51A     -0.336715
      52A     -0.322192    53A     -0.312080

  @DF-RHF Final Energy:  -613.37081763288825

   => Energetics <=

    Nuclear Repulsion Energy =            871.0142758154639751
    One-Electron Energy =               -2560.1380761950695160
    Two-Electron Energy =                1075.7529827467174073
    Total Energy =                       -613.3708176328882473
  Basis Set: (AUG-CC-PVTZ AUX)
    Blend: AUG-CC-PVTZ-RI
    Molecular point group: c1

    Geometry (in Angstrom), charge = 0, multiplicity = 1:

       Center              X                  Y                   Z               Mass
    ------------   -----------------  -----------------  -----------------  -----------------
         O            0.829121654422    -0.235240060298    -0.194715780292    15.994914619570
         C           -1.389661345578     0.488203939702     0.169121219708    12.000000000000
         C            0.055921654422     0.863104939702     0.303596219708    12.000000000000
         C           -4.112439345578    -0.229542060298    -0.045057780292    12.000000000000
         C           -1.865687345578    -0.681446060298     0.774533219708    12.000000000000
         C           -2.281331345578     1.290751939702    -0.546524780292    12.000000000000
         C           -3.208546345578    -1.033498060298     0.664894219708    12.000000000000
         C           -3.628652345578     0.938142939702    -0.645155780292    12.000000000000
         C            2.195627654422    -0.125127060298    -0.101437780292    12.000000000000
         C           -5.571962345578    -0.595353060298    -0.122546780292    12.000000000000
         C            2.877660654422     0.996911939702     0.381536219708    12.000000000000
         C            2.910799654422    -1.247767060298    -0.540784780292    12.000000000000
         C            4.276801654422     0.980416939702     0.421531219708    12.000000000000
         C            4.300664654422    -1.247796060298    -0.495949780292    12.000000000000
         C            4.993672654422    -0.132288060298    -0.012333780292    12.000000000000
         H            0.273923654422     1.776157939702    -0.267724780292     1.007825032230
         H            0.318685654422     1.047049939702     1.355506219708     1.007825032230
         H           -1.173857345578    -1.322346060298     1.317118219708     1.007825032230
         H           -1.921949345578     2.194737939702    -1.035811780292     1.007825032230
         H           -3.563131345578    -1.950169060298     1.134032219708     1.007825032230
         H           -4.309756345578     1.572586939702    -1.210185780292     1.007825032230
         H           -6.040294345578    -0.158699060298    -1.009100780292     1.007825032230
         H           -5.703817345578    -1.680240060298    -0.168228780292     1.007825032230
         H           -6.117607345578    -0.232223060298     0.755314219708     1.007825032230
         H            2.346277654422     1.879503939702     0.720789219708     1.007825032230
         H            2.351527654422    -2.102316060298    -0.911871780292     1.007825032230
         H            4.779275354422     1.814322239702     0.780450319708     1.007825032230
         H            4.846131654422    -2.123763060298    -0.839085780292     1.007825032230
         H            6.079751654422    -0.133090060298     0.023166219708     1.007825032230

  Basis Set: AUG-CC-PVTZ
    Blend: AUG-CC-PVTZ
  Basis Set: (AUG-CC-PVTZ AUX)
    Blend: AUG-CC-PVTZ-JKFIT
	 Reference Energy          =    -613.3708176328882473 [Eh]
	 Singles Energy            =      -0.0000000000000000 [Eh]
	 Same-Spin Energy          =      -0.6725773555515335 [Eh]
	 Opposite-Spin Energy      =      -2.1162201435512400 [Eh]
	 Correlation Energy        =      -2.7887974991027735 [Eh]
	 Total Energy              =    -616.1596151319910177 [Eh]

	 ================> DF-SCS-MP2 Energies <==================
	-----------------------------------------------------------
	 SCS Same-Spin Scale       =       0.3333333333333333 [-]
	 SCS Opposite-Spin Scale   =       1.2000000000000000 [-]
	 SCS Same-Spin Energy      =      -0.2241924518505112 [Eh]
	 SCS Opposite-Spin Energy  =      -2.5394641722614879 [Eh]
	 SCS Correlation Energy    =      -2.7636566241119991 [Eh]
	 SCS Total Energy          =    -616.1344742570001927 [Eh]
	-----------------------------------------------------------

  Dipole Moment: [D]
     X:    -0.9871      Y:     0.7466      Z:     0.4774     Total:     1.3265

*** Psi4 exiting successfully. Buy a developer a beer!
