                               Psi4 1.4a3.dev225

  ==> Input File <==

--------------------------------------------------------------------------
#psi4
#
memory 32 gb

molecule  {
0 1
  O        0.8655410    -0.2383350    -0.1978900
  C       -1.3532420     0.4851090     0.1659470
  C        0.0923410     0.8600100     0.3004220
  C       -4.0897541    -0.1818880    -0.0469683
  C       -1.8292680    -0.6845410     0.7713590
  C       -2.2449120     1.2876570    -0.5496990
  C       -3.1721270    -1.0365930     0.6617200
  C       -3.5922330     0.9350480    -0.6483300
  C        2.2320470    -0.1282220    -0.1046120
  C       -5.5355430    -0.5984480    -0.1257210
  C        2.9140800     0.9938170     0.3783620
  C        2.9472190    -1.2508620    -0.5439590
  C        4.3132210     0.9773220     0.4183570
  C        4.3370840    -1.2508910    -0.4991240
  C        5.0300920    -0.1353830    -0.0155080
  H        0.3103430     1.7730630    -0.2708990
  H        0.3551050     1.0439550     1.3523320
  H       -1.1374380    -1.3254410     1.3139440
  H       -1.8855300     2.1916430    -1.0389860
  H       -3.5267120    -1.9532640     1.1308580
  H       -4.2733370     1.5694920    -1.2133600
  H       -6.0038750    -0.1617940    -1.0122750
  H       -5.6673980    -1.6833350    -0.1714030
  H       -6.0811880    -0.2353180     0.7521400
  H        2.3826970     1.8764090     0.7176150
  H        2.3879470    -2.1054110    -0.9150460
  H        4.8399070     1.8514100     0.7945710
  H        4.8825510    -2.1268580    -0.8422600
  H        6.1161710    -0.1361850     0.0199920
units angstrom
no_reorient  #important for SAPT in psi4, default
symmetry c1  #important for SAPT in psi4, default
}

set PROPERTIES_ORIGIN ["COM"]
properties('MP2/aug-cc-pvtz', properties = ['dipole'])
--------------------------------------------------------------------------

    Molecular point group: c1
  Charge       = 0
  Multiplicity = 1
  Basis Set: AUG-CC-PVTZ
    Blend: AUG-CC-PVTZ
  Basis Set: (AUG-CC-PVTZ AUX)
    Blend: AUG-CC-PVTZ-JKFIT

    Orbital Energies [Eh]
    ---------------------

    Doubly Occupied:

       1A    -20.583910     2A    -11.301047     3A    -11.293189
       4A    -11.243661     5A    -11.240960     6A    -11.239394
       7A    -11.239266     8A    -11.237640     9A    -11.236174
      10A    -11.234239    11A    -11.232949    12A    -11.228137
      13A    -11.227680    14A    -11.227257    15A    -11.226026
      16A     -1.404888    17A     -1.158993    18A     -1.143774
      19A     -1.067435    20A     -1.017747    21A     -1.012873
      22A     -1.008613    23A     -0.964178    24A     -0.899874
      25A     -0.834473    26A     -0.829452    27A     -0.809708
      28A     -0.781556    29A     -0.721129    30A     -0.684065
      31A     -0.670385    32A     -0.663672    33A     -0.643802
      34A     -0.631014    35A     -0.620576    36A     -0.609250
      37A     -0.586843    38A     -0.583915    39A     -0.577217
      40A     -0.563884    41A     -0.543530    42A     -0.531566
      43A     -0.524007    44A     -0.513503    45A     -0.494130
      46A     -0.486799    47A     -0.481220    48A     -0.478549
      49A     -0.463761    50A     -0.339977    51A     -0.337723
      52A     -0.321827    53A     -0.312349

  @DF-RHF Final Energy:  -613.36933617640534

   => Energetics <=

    Nuclear Repulsion Energy =            870.7067228818301601
    One-Electron Energy =               -2559.5325471248179383
    Two-Electron Energy =                1075.4564880665825513
    Total Energy =                       -613.3693361764053407
  Basis Set: (AUG-CC-PVTZ AUX)
    Blend: AUG-CC-PVTZ-RI
    Molecular point group: c1

    Geometry (in Angstrom), charge = 0, multiplicity = 1:

       Center              X                  Y                   Z               Mass
    ------------   -----------------  -----------------  -----------------  -----------------
         O            0.829830408957    -0.238518558491    -0.194880312843    15.994914619570
         C           -1.388952591043     0.484925441509     0.168956687157    12.000000000000
         C            0.056630408957     0.859826441509     0.303431687157    12.000000000000
         C           -4.125464691043    -0.182071558491    -0.043958612843    12.000000000000
         C           -1.864978591043    -0.684724558491     0.774368687157    12.000000000000
         C           -2.280622591043     1.287473441509    -0.546689312843    12.000000000000
         C           -3.207837591043    -1.036776558491     0.664729687157    12.000000000000
         C           -3.627943591043     0.934864441509    -0.645320312843    12.000000000000
         C            2.196336408957    -0.128405558491    -0.101602312843    12.000000000000
         C           -5.571253591043    -0.598631558491    -0.122711312843    12.000000000000
         C            2.878369408957     0.993633441509     0.381371687157    12.000000000000
         C            2.911508408957    -1.251045558491    -0.540949312843    12.000000000000
         C            4.277510408957     0.977138441509     0.421366687157    12.000000000000
         C            4.301373408957    -1.251074558491    -0.496114312843    12.000000000000
         C            4.994381408957    -0.135566558491    -0.012498312843    12.000000000000
         H            0.274632408957     1.772879441509    -0.267889312843     1.007825032230
         H            0.319394408957     1.043771441509     1.355341687157     1.007825032230
         H           -1.173148591043    -1.325624558491     1.316953687157     1.007825032230
         H           -1.921240591043     2.191459441509    -1.035976312843     1.007825032230
         H           -3.562422591043    -1.953447558491     1.133867687157     1.007825032230
         H           -4.309047591043     1.569308441509    -1.210350312843     1.007825032230
         H           -6.039585591043    -0.161977558491    -1.009265312843     1.007825032230
         H           -5.703108591043    -1.683518558491    -0.168393312843     1.007825032230
         H           -6.116898591043    -0.235501558491     0.755149687157     1.007825032230
         H            2.346986408957     1.876225441509     0.720624687157     1.007825032230
         H            2.352236408957    -2.105594558491    -0.912036312843     1.007825032230
         H            4.804196408957     1.851226441509     0.797580687157     1.007825032230
         H            4.846840408957    -2.127041558491    -0.839250312843     1.007825032230
         H            6.080460408957    -0.136368558491     0.023001687157     1.007825032230

  Basis Set: AUG-CC-PVTZ
    Blend: AUG-CC-PVTZ
  Basis Set: (AUG-CC-PVTZ AUX)
    Blend: AUG-CC-PVTZ-JKFIT
	 Reference Energy          =    -613.3693361764053407 [Eh]
	 Singles Energy            =      -0.0000000000000000 [Eh]
	 Same-Spin Energy          =      -0.6724708426644483 [Eh]
	 Opposite-Spin Energy      =      -2.1165321870857361 [Eh]
	 Correlation Energy        =      -2.7890030297501847 [Eh]
	 Total Energy              =    -616.1583392061555742 [Eh]

	 ================> DF-SCS-MP2 Energies <==================
	-----------------------------------------------------------
	 SCS Same-Spin Scale       =       0.3333333333333333 [-]
	 SCS Opposite-Spin Scale   =       1.2000000000000000 [-]
	 SCS Same-Spin Energy      =      -0.2241569475548161 [Eh]
	 SCS Opposite-Spin Energy  =      -2.5398386245028832 [Eh]
	 SCS Correlation Energy    =      -2.7639955720576994 [Eh]
	 SCS Total Energy          =    -616.1333317484630925 [Eh]
	-----------------------------------------------------------

  Dipole Moment: [D]
     X:    -1.0075      Y:     0.7105      Z:     0.4676     Total:     1.3185

*** Psi4 exiting successfully. Buy a developer a beer!
