                               Psi4 1.4a3.dev225

  ==> Input File <==

--------------------------------------------------------------------------
#psi4
#
memory 32 gb

molecule  {
0 1
  O        0.8655410    -0.2383350    -0.1978900
  C       -1.3532420     0.4851090     0.1659470
  C        0.0923410     0.8600100     0.3004220
  C       -4.0760200    -0.2326370    -0.0482320
  C       -1.8292680    -0.6845410     0.7713590
  C       -2.2449120     1.2876570    -0.5496990
  C       -3.1721270    -1.0365930     0.6617200
  C       -3.5922330     0.9350480    -0.6483300
  C        2.2320470    -0.1282220    -0.1046120
  C       -5.5355430    -0.5984480    -0.1257210
  C        2.9238298     1.0098568     0.3852662
  C        2.9472190    -1.2508620    -0.5439590
  C        4.3132210     0.9773220     0.4183570
  C        4.3370840    -1.2508910    -0.4991240
  C        5.0300920    -0.1353830    -0.0155080
  H        0.3103430     1.7730630    -0.2708990
  H        0.3551050     1.0439550     1.3523320
  H       -1.1374380    -1.3254410     1.3139440
  H       -1.8855300     2.1916430    -1.0389860
  H       -3.5267120    -1.9532640     1.1308580
  H       -4.2733370     1.5694920    -1.2133600
  H       -6.0038750    -0.1617940    -1.0122750
  H       -5.6673980    -1.6833350    -0.1714030
  H       -6.0811880    -0.2353180     0.7521400
  H        2.3826970     1.8764090     0.7176150
  H        2.3879470    -2.1054110    -0.9150460
  H        4.8399070     1.8514100     0.7945710
  H        4.8825510    -2.1268580    -0.8422600
  H        6.1161710    -0.1361850     0.0199920
units angstrom
no_reorient  #important for SAPT in psi4, default
symmetry c1  #important for SAPT in psi4, default
}

set PROPERTIES_ORIGIN ["COM"]
properties('MP2/aug-cc-pvtz', properties = ['dipole'])
--------------------------------------------------------------------------

    Molecular point group: c1
  Charge       = 0
  Multiplicity = 1
  Basis Set: AUG-CC-PVTZ
    Blend: AUG-CC-PVTZ
  Basis Set: (AUG-CC-PVTZ AUX)
    Blend: AUG-CC-PVTZ-JKFIT

    Orbital Energies [Eh]
    ---------------------

    Doubly Occupied:

       1A    -20.584612     2A    -11.303363     3A    -11.293597
       4A    -11.244005     5A    -11.239993     6A    -11.239556
       7A    -11.239317     8A    -11.237747     9A    -11.235149
      10A    -11.233476    11A    -11.232415    12A    -11.232256
      13A    -11.227132    14A    -11.226825    15A    -11.225985
      16A     -1.405155    17A     -1.158861    18A     -1.143000
      19A     -1.067231    20A     -1.019123    21A     -1.013485
      22A     -1.006747    23A     -0.963702    24A     -0.899674
      25A     -0.832970    26A     -0.830396    27A     -0.809543
      28A     -0.782745    29A     -0.720818    30A     -0.684267
      31A     -0.670851    32A     -0.664844    33A     -0.643021
      34A     -0.630570    35A     -0.620651    36A     -0.609281
      37A     -0.588073    38A     -0.583719    39A     -0.577123
      40A     -0.564805    41A     -0.543312    42A     -0.531804
      43A     -0.522879    44A     -0.515598    45A     -0.490529
      46A     -0.486745    47A     -0.485300    48A     -0.477846
      49A     -0.464622    50A     -0.340930    51A     -0.336913
      52A     -0.322428    53A     -0.310366

  @DF-RHF Final Energy:  -613.37093668514171

   => Energetics <=

    Nuclear Repulsion Energy =            870.4397052856288610
    One-Electron Energy =               -2558.9905649824677312
    Two-Electron Energy =                1075.1799230116971557
    Total Energy =                       -613.3709366851417144
  Basis Set: (AUG-CC-PVTZ AUX)
    Blend: AUG-CC-PVTZ-RI
    Molecular point group: c1

    Geometry (in Angstrom), charge = 0, multiplicity = 1:

       Center              X                  Y                   Z               Mass
    ------------   -----------------  -----------------  -----------------  -----------------
         O            0.828407892812    -0.236416079883    -0.195221981064    15.994914619570
         C           -1.390375107188     0.487027920117     0.168615018936    12.000000000000
         C            0.055207892812     0.861928920117     0.303090018936    12.000000000000
         C           -4.113153107188    -0.230718079883    -0.045563981064    12.000000000000
         C           -1.866401107188    -0.682622079883     0.774027018936    12.000000000000
         C           -2.282045107188     1.289575920117    -0.547030981064    12.000000000000
         C           -3.209260107188    -1.034674079883     0.664388018936    12.000000000000
         C           -3.629366107188     0.936966920117    -0.645661981064    12.000000000000
         C            2.194913892812    -0.126303079883    -0.101943981064    12.000000000000
         C           -5.572676107188    -0.596529079883    -0.123052981064    12.000000000000
         C            2.886696692812     1.011775720117     0.387934218936    12.000000000000
         C            2.910085892812    -1.248943079883    -0.541290981064    12.000000000000
         C            4.276087892812     0.979240920117     0.421025018936    12.000000000000
         C            4.299950892812    -1.248972079883    -0.496455981064    12.000000000000
         C            4.992958892812    -0.133464079883    -0.012839981064    12.000000000000
         H            0.273209892812     1.774981920117    -0.268230981064     1.007825032230
         H            0.317971892812     1.045873920117     1.355000018936     1.007825032230
         H           -1.174571107188    -1.323522079883     1.316612018936     1.007825032230
         H           -1.922663107188     2.193561920117    -1.036317981064     1.007825032230
         H           -3.563845107188    -1.951345079883     1.133526018936     1.007825032230
         H           -4.310470107188     1.571410920117    -1.210691981064     1.007825032230
         H           -6.041008107188    -0.159875079883    -1.009606981064     1.007825032230
         H           -5.704531107188    -1.681416079883    -0.168734981064     1.007825032230
         H           -6.118321107188    -0.233399079883     0.754808018936     1.007825032230
         H            2.345563892812     1.878327920117     0.720283018936     1.007825032230
         H            2.350813892812    -2.103492079883    -0.912377981064     1.007825032230
         H            4.802773892812     1.853328920117     0.797239018936     1.007825032230
         H            4.845417892812    -2.124939079883    -0.839591981064     1.007825032230
         H            6.079037892812    -0.134266079883     0.022660018936     1.007825032230

  Basis Set: AUG-CC-PVTZ
    Blend: AUG-CC-PVTZ
  Basis Set: (AUG-CC-PVTZ AUX)
    Blend: AUG-CC-PVTZ-JKFIT
	 Reference Energy          =    -613.3709366851417144 [Eh]
	 Singles Energy            =      -0.0000000000000000 [Eh]
	 Same-Spin Energy          =      -0.6726691857631808 [Eh]
	 Opposite-Spin Energy      =      -2.1165971550151834 [Eh]
	 Correlation Energy        =      -2.7892663407783642 [Eh]
	 Total Energy              =    -616.1602030259200546 [Eh]

	 ================> DF-SCS-MP2 Energies <==================
	-----------------------------------------------------------
	 SCS Same-Spin Scale       =       0.3333333333333333 [-]
	 SCS Opposite-Spin Scale   =       1.2000000000000000 [-]
	 SCS Same-Spin Energy      =      -0.2242230619210603 [Eh]
	 SCS Opposite-Spin Energy  =      -2.5399165860182200 [Eh]
	 SCS Correlation Energy    =      -2.7641396479392801 [Eh]
	 SCS Total Energy          =    -616.1350763330809741 [Eh]
	-----------------------------------------------------------

  Dipole Moment: [D]
     X:    -1.0417      Y:     0.7317      Z:     0.4706     Total:     1.3572

*** Psi4 exiting successfully. Buy a developer a beer!
