                               Psi4 1.4a3.dev225

  ==> Input File <==

--------------------------------------------------------------------------
#psi4
#
memory 32 gb

molecule  {
0 1
  O        0.8655410    -0.2383350    -0.1978900
  C       -1.3532420     0.4851090     0.1659470
  C        0.0923410     0.8600100     0.3004220
  C       -4.0760200    -0.2326370    -0.0482320
  C       -1.8292680    -0.6845410     0.7713590
  C       -2.2449120     1.2876570    -0.5496990
  C       -3.1721270    -1.0365930     0.6617200
  C       -3.5922330     0.9350480    -0.6483300
  C        2.2320470    -0.1282220    -0.1046120
  C       -5.5355430    -0.5984480    -0.1257210
  C        2.9140800     0.9938170     0.3783620
  C        2.9472190    -1.2508620    -0.5439590
  C        4.3132210     0.9773220     0.4183570
  C        4.3370840    -1.2508910    -0.4991240
  C        5.0300920    -0.1353830    -0.0155080
  H        0.3103430     1.7730630    -0.2708990
  H        0.3551050     1.0439550     1.3523320
  H       -1.1374380    -1.3254410     1.3139440
  H       -1.8855300     2.1916430    -1.0389860
  H       -3.5267120    -1.9532640     1.1308580
  H       -4.2733370     1.5694920    -1.2133600
  H       -6.0038750    -0.1617940    -1.0122750
  H       -5.6673980    -1.6833350    -0.1714030
  H       -6.0811880    -0.2353180     0.7521400
  H        2.3826970     1.8764090     0.7176150
  H        2.3776532    -2.1211396    -0.9218761
  H        4.8399070     1.8514100     0.7945710
  H        4.8825510    -2.1268580    -0.8422600
  H        6.1161710    -0.1361850     0.0199920
units angstrom
no_reorient  #important for SAPT in psi4, default
symmetry c1  #important for SAPT in psi4, default
}

set PROPERTIES_ORIGIN ["COM"]
properties('MP2/aug-cc-pvtz', properties = ['dipole'])
--------------------------------------------------------------------------

    Molecular point group: c1
  Charge       = 0
  Multiplicity = 1
  Basis Set: AUG-CC-PVTZ
    Blend: AUG-CC-PVTZ
  Basis Set: (AUG-CC-PVTZ AUX)
    Blend: AUG-CC-PVTZ-JKFIT

    Orbital Energies [Eh]
    ---------------------

    Doubly Occupied:

       1A    -20.583891     2A    -11.301204     3A    -11.293168
       4A    -11.243830     5A    -11.241023     6A    -11.239559
       7A    -11.239100     8A    -11.237543     9A    -11.234950
      10A    -11.233081    11A    -11.232253    12A    -11.232091
      13A    -11.229930    14A    -11.227388    15A    -11.225863
      16A     -1.404848    17A     -1.158823    18A     -1.143737
      19A     -1.067011    20A     -1.017239    21A     -1.013408
      22A     -1.008366    23A     -0.963983    24A     -0.899519
      25A     -0.832787    26A     -0.830730    27A     -0.808827
      28A     -0.782384    29A     -0.720711    30A     -0.683951
      31A     -0.670400    32A     -0.662425    33A     -0.643793
      34A     -0.630985    35A     -0.620475    36A     -0.609188
      37A     -0.585386    38A     -0.583542    39A     -0.576962
      40A     -0.563735    41A     -0.543337    42A     -0.531269
      43A     -0.522858    44A     -0.514007    45A     -0.491009
      46A     -0.486611    47A     -0.485093    48A     -0.478640
      49A     -0.464253    50A     -0.340031    51A     -0.336742
      52A     -0.322240    53A     -0.312407

  @DF-RHF Final Energy:  -613.37093667435340

   => Energetics <=

    Nuclear Repulsion Energy =            870.6469026861074099
    One-Electron Energy =               -2559.4224990748402888
    Two-Electron Energy =                1075.4046597143797044
    Total Energy =                       -613.3709366743532883
  Basis Set: (AUG-CC-PVTZ AUX)
    Blend: AUG-CC-PVTZ-RI
    Molecular point group: c1

    Geometry (in Angstrom), charge = 0, multiplicity = 1:

       Center              X                  Y                   Z               Mass
    ------------   -----------------  -----------------  -----------------  -----------------
         O            0.829050846262    -0.235364466651    -0.194769018301    15.994914619570
         C           -1.389732153738     0.488079533349     0.169067981699    12.000000000000
         C            0.055850846262     0.862980533349     0.303542981699    12.000000000000
         C           -4.112510153738    -0.229666466651    -0.045111018301    12.000000000000
         C           -1.865758153738    -0.681570466651     0.774479981699    12.000000000000
         C           -2.281402153738     1.290627533349    -0.546578018301    12.000000000000
         C           -3.208617153738    -1.033622466651     0.664840981699    12.000000000000
         C           -3.628723153738     0.938018533349    -0.645209018301    12.000000000000
         C            2.195556846262    -0.125251466651    -0.101491018301    12.000000000000
         C           -5.572033153738    -0.595477466651    -0.122600018301    12.000000000000
         C            2.877589846262     0.996787533349     0.381482981699    12.000000000000
         C            2.910728846262    -1.247891466651    -0.540838018301    12.000000000000
         C            4.276730846262     0.980292533349     0.421477981699    12.000000000000
         C            4.300593846262    -1.247920466651    -0.496003018301    12.000000000000
         C            4.993601846262    -0.132412466651    -0.012387018301    12.000000000000
         H            0.273852846262     1.776033533349    -0.267778018301     1.007825032230
         H            0.318614846262     1.046925533349     1.355452981699     1.007825032230
         H           -1.173928153738    -1.322470466651     1.317064981699     1.007825032230
         H           -1.922020153738     2.194613533349    -1.035865018301     1.007825032230
         H           -3.563202153738    -1.950293466651     1.133978981699     1.007825032230
         H           -4.309827153738     1.572462533349    -1.210239018301     1.007825032230
         H           -6.040365153738    -0.158823466651    -1.009154018301     1.007825032230
         H           -5.703888153738    -1.680364466651    -0.168282018301     1.007825032230
         H           -6.117678153738    -0.232347466651     0.755260981699     1.007825032230
         H            2.346206846262     1.879379533349     0.720735981699     1.007825032230
         H            2.341163046262    -2.118169066651    -0.918755118301     1.007825032230
         H            4.803416846262     1.854380533349     0.797691981699     1.007825032230
         H            4.846060846262    -2.123887466651    -0.839139018301     1.007825032230
         H            6.079680846262    -0.133214466651     0.023112981699     1.007825032230

  Basis Set: AUG-CC-PVTZ
    Blend: AUG-CC-PVTZ
  Basis Set: (AUG-CC-PVTZ AUX)
    Blend: AUG-CC-PVTZ-JKFIT
	 Reference Energy          =    -613.3709366743534019 [Eh]
	 Singles Energy            =      -0.0000000000000000 [Eh]
	 Same-Spin Energy          =      -0.6726991770412343 [Eh]
	 Opposite-Spin Energy      =      -2.1166791799193918 [Eh]
	 Correlation Energy        =      -2.7893783569606261 [Eh]
	 Total Energy              =    -616.1603150313139849 [Eh]

	 ================> DF-SCS-MP2 Energies <==================
	-----------------------------------------------------------
	 SCS Same-Spin Scale       =       0.3333333333333333 [-]
	 SCS Opposite-Spin Scale   =       1.2000000000000000 [-]
	 SCS Same-Spin Energy      =      -0.2242330590137447 [Eh]
	 SCS Opposite-Spin Energy  =      -2.5400150159032702 [Eh]
	 SCS Correlation Energy    =      -2.7642480749170151 [Eh]
	 SCS Total Energy          =    -616.1351847492703655 [Eh]
	-----------------------------------------------------------

  Dipole Moment: [D]
     X:    -1.0008      Y:     0.7343      Z:     0.4725     Total:     1.3282

*** Psi4 exiting successfully. Buy a developer a beer!
