                               Psi4 1.4a3.dev225

  ==> Input File <==

--------------------------------------------------------------------------
#psi4
#
memory 32 gb

molecule  {
0 1
  O        0.8655410    -0.2383350    -0.1978900
  C       -1.3532420     0.4851090     0.1659470
  C        0.0923410     0.8600100     0.3004220
  C       -4.0640641    -0.2838317    -0.0495901
  C       -1.8292680    -0.6845410     0.7713590
  C       -2.2449120     1.2876570    -0.5496990
  C       -3.1721270    -1.0365930     0.6617200
  C       -3.5922330     0.9350480    -0.6483300
  C        2.2320470    -0.1282220    -0.1046120
  C       -5.5355430    -0.5984480    -0.1257210
  C        2.9140800     0.9938170     0.3783620
  C        2.9472190    -1.2508620    -0.5439590
  C        4.3132210     0.9773220     0.4183570
  C        4.3370840    -1.2508910    -0.4991240
  C        5.0300920    -0.1353830    -0.0155080
  H        0.3103430     1.7730630    -0.2708990
  H        0.3551050     1.0439550     1.3523320
  H       -1.1374380    -1.3254410     1.3139440
  H       -1.8855300     2.1916430    -1.0389860
  H       -3.5267120    -1.9532640     1.1308580
  H       -4.2733370     1.5694920    -1.2133600
  H       -6.0038750    -0.1617940    -1.0122750
  H       -5.6673980    -1.6833350    -0.1714030
  H       -6.0811880    -0.2353180     0.7521400
  H        2.3826970     1.8764090     0.7176150
  H        2.3879470    -2.1054110    -0.9150460
  H        4.8399070     1.8514100     0.7945710
  H        4.8825510    -2.1268580    -0.8422600
  H        6.1161710    -0.1361850     0.0199920
units angstrom
no_reorient  #important for SAPT in psi4, default
symmetry c1  #important for SAPT in psi4, default
}

set PROPERTIES_ORIGIN ["COM"]
properties('MP2/aug-cc-pvtz', properties = ['dipole'])
--------------------------------------------------------------------------

    Molecular point group: c1
  Charge       = 0
  Multiplicity = 1
  Basis Set: AUG-CC-PVTZ
    Blend: AUG-CC-PVTZ
  Basis Set: (AUG-CC-PVTZ AUX)
    Blend: AUG-CC-PVTZ-JKFIT

    Orbital Energies [Eh]
    ---------------------

    Doubly Occupied:

       1A    -20.583928     2A    -11.301011     3A    -11.293225
       4A    -11.243751     5A    -11.240974     6A    -11.239411
       7A    -11.239122     8A    -11.237571     9A    -11.236003
      10A    -11.235131    11A    -11.232961    12A    -11.228294
      13A    -11.227694    14A    -11.227272    15A    -11.225892
      16A     -1.404871    17A     -1.158874    18A     -1.143746
      19A     -1.067399    20A     -1.017846    21A     -1.013572
      22A     -1.007837    23A     -0.963991    24A     -0.899903
      25A     -0.833668    26A     -0.831162    27A     -0.807883
      28A     -0.782595    29A     -0.721192    30A     -0.684051
      31A     -0.670422    32A     -0.663710    33A     -0.643749
      34A     -0.630986    35A     -0.620257    36A     -0.609529
      37A     -0.586865    38A     -0.583838    39A     -0.577046
      40A     -0.563745    41A     -0.543528    42A     -0.532745
      43A     -0.521473    44A     -0.514642    45A     -0.492932
      46A     -0.488493    47A     -0.482553    48A     -0.476016
      49A     -0.464350    50A     -0.340218    51A     -0.338802
      52A     -0.320161    53A     -0.312269

  @DF-RHF Final Energy:  -613.36865031954346

   => Energetics <=

    Nuclear Repulsion Energy =            870.7550568858680435
    One-Electron Energy =               -2559.6291065604086725
    Two-Electron Energy =                1075.5053993549970528
    Total Energy =                       -613.3686503195435762
  Basis Set: (AUG-CC-PVTZ AUX)
    Blend: AUG-CC-PVTZ-RI
    Molecular point group: c1

    Geometry (in Angstrom), charge = 0, multiplicity = 1:

       Center              X                  Y                   Z               Mass
    ------------   -----------------  -----------------  -----------------  -----------------
         O            0.828274260286    -0.232343410447    -0.194721499664    15.994914619570
         C           -1.390508739714     0.491100589553     0.169115500336    12.000000000000
         C            0.055074260286     0.866001589553     0.303590500336    12.000000000000
         C           -4.101330839714    -0.277840110447    -0.046421599664    12.000000000000
         C           -1.866534739714    -0.678549410447     0.774527500336    12.000000000000
         C           -2.282178739714     1.293648589553    -0.546530499664    12.000000000000
         C           -3.209393739714    -1.030601410447     0.664888500336    12.000000000000
         C           -3.629499739714     0.941039589553    -0.645161499664    12.000000000000
         C            2.194780260286    -0.122230410447    -0.101443499664    12.000000000000
         C           -5.572809739714    -0.592456410447    -0.122552499664    12.000000000000
         C            2.876813260286     0.999808589553     0.381530500336    12.000000000000
         C            2.909952260286    -1.244870410447    -0.540790499664    12.000000000000
         C            4.275954260286     0.983313589553     0.421525500336    12.000000000000
         C            4.299817260286    -1.244899410447    -0.495955499664    12.000000000000
         C            4.992825260286    -0.129391410447    -0.012339499664    12.000000000000
         H            0.273076260286     1.779054589553    -0.267730499664     1.007825032230
         H            0.317838260286     1.049946589553     1.355500500336     1.007825032230
         H           -1.174704739714    -1.319449410447     1.317112500336     1.007825032230
         H           -1.922796739714     2.197634589553    -1.035817499664     1.007825032230
         H           -3.563978739714    -1.947272410447     1.134026500336     1.007825032230
         H           -4.310603739714     1.575483589553    -1.210191499664     1.007825032230
         H           -6.041141739714    -0.155802410447    -1.009106499664     1.007825032230
         H           -5.704664739714    -1.677343410447    -0.168234499664     1.007825032230
         H           -6.118454739714    -0.229326410447     0.755308500336     1.007825032230
         H            2.345430260286     1.882400589553     0.720783500336     1.007825032230
         H            2.350680260286    -2.099419410447    -0.911877499664     1.007825032230
         H            4.802640260286     1.857401589553     0.797739500336     1.007825032230
         H            4.845284260286    -2.120866410447    -0.839091499664     1.007825032230
         H            6.078904260286    -0.130193410447     0.023160500336     1.007825032230

  Basis Set: AUG-CC-PVTZ
    Blend: AUG-CC-PVTZ
  Basis Set: (AUG-CC-PVTZ AUX)
    Blend: AUG-CC-PVTZ-JKFIT
	 Reference Energy          =    -613.3686503195434625 [Eh]
	 Singles Energy            =      -0.0000000000000000 [Eh]
	 Same-Spin Energy          =      -0.6727399313746525 [Eh]
	 Opposite-Spin Energy      =      -2.1167864798967027 [Eh]
	 Correlation Energy        =      -2.7895264112713551 [Eh]
	 Total Energy              =    -616.1581767308148301 [Eh]

	 ================> DF-SCS-MP2 Energies <==================
	-----------------------------------------------------------
	 SCS Same-Spin Scale       =       0.3333333333333333 [-]
	 SCS Opposite-Spin Scale   =       1.2000000000000000 [-]
	 SCS Same-Spin Energy      =      -0.2242466437915508 [Eh]
	 SCS Opposite-Spin Energy  =      -2.5401437758760430 [Eh]
	 SCS Correlation Energy    =      -2.7643904196675937 [Eh]
	 SCS Total Energy          =    -616.1330407392110828 [Eh]
	-----------------------------------------------------------

  Dipole Moment: [D]
     X:    -0.9953      Y:     0.7530      Z:     0.4757     Total:     1.3357

*** Psi4 exiting successfully. Buy a developer a beer!
