                               Psi4 1.4a3.dev225

  ==> Input File <==

--------------------------------------------------------------------------
#psi4
#
memory 32 gb

molecule  {
0 1
  O        0.8655410    -0.2383350    -0.1978900
  C       -1.3532420     0.4851090     0.1659470
  C        0.0923410     0.8600100     0.3004220
  C       -4.0760200    -0.2326370    -0.0482320
  C       -1.8292680    -0.6845410     0.7713590
  C       -2.2449120     1.2876570    -0.5496990
  C       -3.1721270    -1.0365930     0.6617200
  C       -3.5922330     0.9350480    -0.6483300
  C        2.2320470    -0.1282220    -0.1046120
  C       -5.5355430    -0.5984480    -0.1257210
  C        2.9140800     0.9938170     0.3783620
  C        2.9472190    -1.2508620    -0.5439590
  C        4.3132210     0.9773220     0.4183570
  C        4.3170944    -1.2508906    -0.4997688
  C        5.0300920    -0.1353830    -0.0155080
  H        0.3103430     1.7730630    -0.2708990
  H        0.3551050     1.0439550     1.3523320
  H       -1.1374380    -1.3254410     1.3139440
  H       -1.8855300     2.1916430    -1.0389860
  H       -3.5267120    -1.9532640     1.1308580
  H       -4.2733370     1.5694920    -1.2133600
  H       -6.0038750    -0.1617940    -1.0122750
  H       -5.6673980    -1.6833350    -0.1714030
  H       -6.0811880    -0.2353180     0.7521400
  H        2.3826970     1.8764090     0.7176150
  H        2.3879470    -2.1054110    -0.9150460
  H        4.8399070     1.8514100     0.7945710
  H        4.8825510    -2.1268580    -0.8422600
  H        6.1161710    -0.1361850     0.0199920
units angstrom
no_reorient  #important for SAPT in psi4, default
symmetry c1  #important for SAPT in psi4, default
}

set PROPERTIES_ORIGIN ["COM"]
properties('MP2/aug-cc-pvtz', properties = ['dipole'])
--------------------------------------------------------------------------

    Molecular point group: c1
  Charge       = 0
  Multiplicity = 1
  Basis Set: AUG-CC-PVTZ
    Blend: AUG-CC-PVTZ
  Basis Set: (AUG-CC-PVTZ AUX)
    Blend: AUG-CC-PVTZ-JKFIT

    Orbital Energies [Eh]
    ---------------------

    Doubly Occupied:

       1A    -20.584305     2A    -11.301405     3A    -11.293244
       4A    -11.243907     5A    -11.240654     6A    -11.239179
       7A    -11.239031     8A    -11.237617     9A    -11.235036
      10A    -11.232327    11A    -11.232266    12A    -11.232166
      13A    -11.227848    14A    -11.225933    15A    -11.225911
      16A     -1.405153    17A     -1.159030    18A     -1.144634
      19A     -1.067003    20A     -1.019989    21A     -1.013406
      22A     -1.007057    23A     -0.964237    24A     -0.899833
      25A     -0.832929    26A     -0.829993    27A     -0.809948
      28A     -0.782327    29A     -0.721092    30A     -0.684139
      31A     -0.670662    32A     -0.663805    33A     -0.643892
      34A     -0.630451    35A     -0.620675    36A     -0.608157
      37A     -0.587613    38A     -0.583621    39A     -0.577060
      40A     -0.564265    41A     -0.543473    42A     -0.531455
      43A     -0.522905    44A     -0.516141    45A     -0.490069
      46A     -0.486751    47A     -0.485169    48A     -0.477775
      49A     -0.464257    50A     -0.342199    51A     -0.336821
      52A     -0.322299    53A     -0.311363

  @DF-RHF Final Energy:  -613.37127665953165

   => Energetics <=

    Nuclear Repulsion Energy =            871.0115360335864807
    One-Electron Energy =               -2560.1406692279383606
    Two-Electron Energy =                1075.7578565348201209
    Total Energy =                       -613.3712766595317589
  Basis Set: (AUG-CC-PVTZ AUX)
    Blend: AUG-CC-PVTZ-RI
    Molecular point group: c1

    Geometry (in Angstrom), charge = 0, multiplicity = 1:

       Center              X                  Y                   Z               Mass
    ------------   -----------------  -----------------  -----------------  -----------------
         O            0.830209330250    -0.235444507637    -0.194764707170    15.994914619570
         C           -1.388573669750     0.487999492363     0.169072292830    12.000000000000
         C            0.057009330250     0.862900492363     0.303547292830    12.000000000000
         C           -4.111351669750    -0.229746507637    -0.045106707170    12.000000000000
         C           -1.864599669750    -0.681650507637     0.774484292830    12.000000000000
         C           -2.280243669750     1.290547492363    -0.546573707170    12.000000000000
         C           -3.207458669750    -1.033702507637     0.664845292830    12.000000000000
         C           -3.627564669750     0.937938492363    -0.645204707170    12.000000000000
         C            2.196715330250    -0.125331507637    -0.101486707170    12.000000000000
         C           -5.570874669750    -0.595557507637    -0.122595707170    12.000000000000
         C            2.878748330250     0.996707492363     0.381487292830    12.000000000000
         C            2.911887330250    -1.247971507637    -0.540833707170    12.000000000000
         C            4.277889330250     0.980212492363     0.421482292830    12.000000000000
         C            4.281762730250    -1.248000107637    -0.496643507170    12.000000000000
         C            4.994760330250    -0.132492507637    -0.012382707170    12.000000000000
         H            0.275011330250     1.775953492363    -0.267773707170     1.007825032230
         H            0.319773330250     1.046845492363     1.355457292830     1.007825032230
         H           -1.172769669750    -1.322550507637     1.317069292830     1.007825032230
         H           -1.920861669750     2.194533492363    -1.035860707170     1.007825032230
         H           -3.562043669750    -1.950373507637     1.133983292830     1.007825032230
         H           -4.308668669750     1.572382492363    -1.210234707170     1.007825032230
         H           -6.039206669750    -0.158903507637    -1.009149707170     1.007825032230
         H           -5.702729669750    -1.680444507637    -0.168277707170     1.007825032230
         H           -6.116519669750    -0.232427507637     0.755265292830     1.007825032230
         H            2.347365330250     1.879299492363     0.720740292830     1.007825032230
         H            2.352615330250    -2.102520507637    -0.911920707170     1.007825032230
         H            4.804575330250     1.854300492363     0.797696292830     1.007825032230
         H            4.847219330250    -2.123967507637    -0.839134707170     1.007825032230
         H            6.080839330250    -0.133294507637     0.023117292830     1.007825032230

  Basis Set: AUG-CC-PVTZ
    Blend: AUG-CC-PVTZ
  Basis Set: (AUG-CC-PVTZ AUX)
    Blend: AUG-CC-PVTZ-JKFIT
	 Reference Energy          =    -613.3712766595316452 [Eh]
	 Singles Energy            =      -0.0000000000000000 [Eh]
	 Same-Spin Energy          =      -0.6725964971809528 [Eh]
	 Opposite-Spin Energy      =      -2.1164440758803353 [Eh]
	 Correlation Energy        =      -2.7890405730612882 [Eh]
	 Total Energy              =    -616.1603172325928881 [Eh]

	 ================> DF-SCS-MP2 Energies <==================
	-----------------------------------------------------------
	 SCS Same-Spin Scale       =       0.3333333333333333 [-]
	 SCS Opposite-Spin Scale   =       1.2000000000000000 [-]
	 SCS Same-Spin Energy      =      -0.2241988323936509 [Eh]
	 SCS Opposite-Spin Energy  =      -2.5397328910564023 [Eh]
	 SCS Correlation Energy    =      -2.7639317234500531 [Eh]
	 SCS Total Energy          =    -616.1352083829816593 [Eh]
	-----------------------------------------------------------

  Dipole Moment: [D]
     X:    -1.0074      Y:     0.7305      Z:     0.4699     Total:     1.3301

*** Psi4 exiting successfully. Buy a developer a beer!
