                               Psi4 1.4a3.dev225

  ==> Input File <==

--------------------------------------------------------------------------
#psi4
#
memory 32 gb

molecule  {
0 1
  O        0.8655410    -0.2383350    -0.1978900
  C       -1.3532420     0.4851090     0.1659470
  C        0.0923410     0.8600100     0.3004220
  C       -4.0760200    -0.2326370    -0.0482320
  C       -1.8292680    -0.6845410     0.7713590
  C       -2.2449120     1.2876570    -0.5496990
  C       -3.1721270    -1.0365930     0.6617200
  C       -3.5922330     0.9350480    -0.6483300
  C        2.2320470    -0.1282220    -0.1046120
  C       -5.5355430    -0.5984480    -0.1257210
  C        2.9140800     0.9938170     0.3783620
  C        2.9472190    -1.2508620    -0.5439590
  C        4.3132210     0.9773220     0.4183570
  C        4.3370840    -1.2508910    -0.4991240
  C        5.0300920    -0.1353830    -0.0155080
  H        0.3103430     1.7730630    -0.2708990
  H        0.3551050     1.0439550     1.3523320
  H       -1.1374380    -1.3254410     1.3139440
  H       -1.8855300     2.1916430    -1.0389860
  H       -3.5267120    -1.9532640     1.1308580
  H       -4.2733370     1.5694920    -1.2133600
  H       -6.0038750    -0.1617940    -1.0122750
  H       -5.6673980    -1.6833350    -0.1714030
  H       -6.0811880    -0.2353180     0.7521400
  H        2.3826970     1.8764090     0.7176150
  H        2.3879470    -2.1054110    -0.9150460
  H        4.8883316     1.9317754     0.8291609
  H        4.8825510    -2.1268580    -0.8422600
  H        6.1161710    -0.1361850     0.0199920
units angstrom
no_reorient  #important for SAPT in psi4, default
symmetry c1  #important for SAPT in psi4, default
}

set PROPERTIES_ORIGIN ["COM"]
properties('MP2/aug-cc-pvtz', properties = ['dipole'])
--------------------------------------------------------------------------

    Molecular point group: c1
  Charge       = 0
  Multiplicity = 1
  Basis Set: AUG-CC-PVTZ
    Blend: AUG-CC-PVTZ
  Basis Set: (AUG-CC-PVTZ AUX)
    Blend: AUG-CC-PVTZ-JKFIT

    Orbital Energies [Eh]
    ---------------------

    Doubly Occupied:

       1A    -20.584388     2A    -11.301747     3A    -11.293427
       4A    -11.252282     5A    -11.243956     6A    -11.240173
       7A    -11.239252     8A    -11.237685     9A    -11.235099
      10A    -11.234018    11A    -11.232374    12A    -11.232219
      13A    -11.228326    14A    -11.228121    15A    -11.225958
      16A     -1.405315    17A     -1.158990    18A     -1.143871
      19A     -1.067095    20A     -1.015989    21A     -1.013569
      22A     -1.008758    23A     -0.963967    24A     -0.899512
      25A     -0.832776    26A     -0.828104    27A     -0.807799
      28A     -0.782593    29A     -0.717597    30A     -0.684204
      31A     -0.670817    32A     -0.663818    33A     -0.643233
      34A     -0.629835    35A     -0.620538    36A     -0.606308
      37A     -0.583679    38A     -0.578641    39A     -0.576912
      40A     -0.564371    41A     -0.543521    42A     -0.531205
      43A     -0.523217    44A     -0.513930    45A     -0.489631
      46A     -0.486751    47A     -0.485300    48A     -0.476461
      49A     -0.464728    50A     -0.340571    51A     -0.336873
      52A     -0.322395    53A     -0.312930

  @DF-RHF Final Energy:  -613.36422774790776

   => Energetics <=

    Nuclear Repulsion Energy =            870.2494536506886789
    One-Electron Energy =               -2558.6177031924808034
    Two-Electron Energy =                1075.0040217938842488
    Total Energy =                       -613.3642277479077620
  Basis Set: (AUG-CC-PVTZ AUX)
    Blend: AUG-CC-PVTZ-RI
    Molecular point group: c1

    Geometry (in Angstrom), charge = 0, multiplicity = 1:

       Center              X                  Y                   Z               Mass
    ------------   -----------------  -----------------  -----------------  -----------------
         O            0.828752125719    -0.235853329629    -0.194979735979    15.994914619570
         C           -1.390030874281     0.487590670371     0.168857264021    12.000000000000
         C            0.055552125719     0.862491670371     0.303332264021    12.000000000000
         C           -4.112808874281    -0.230155329629    -0.045321735979    12.000000000000
         C           -1.866056874281    -0.682059329629     0.774269264021    12.000000000000
         C           -2.281700874281     1.290138670371    -0.546788735979    12.000000000000
         C           -3.208915874281    -1.034111329629     0.664630264021    12.000000000000
         C           -3.629021874281     0.937529670371    -0.645419735979    12.000000000000
         C            2.195258125719    -0.125740329629    -0.101701735979    12.000000000000
         C           -5.572331874281    -0.595966329629    -0.122810735979    12.000000000000
         C            2.877291125719     0.996298670371     0.381272264021    12.000000000000
         C            2.910430125719    -1.248380329629    -0.541048735979    12.000000000000
         C            4.276432125719     0.979803670371     0.421267264021    12.000000000000
         C            4.300295125719    -1.248409329629    -0.496213735979    12.000000000000
         C            4.993303125719    -0.132901329629    -0.012597735979    12.000000000000
         H            0.273554125719     1.775544670371    -0.267988735979     1.007825032230
         H            0.318316125719     1.046436670371     1.355242264021     1.007825032230
         H           -1.174226874281    -1.322959329629     1.316854264021     1.007825032230
         H           -1.922318874281     2.194124670371    -1.036075735979     1.007825032230
         H           -3.563500874281    -1.950782329629     1.133768264021     1.007825032230
         H           -4.310125874281     1.571973670371    -1.210449735979     1.007825032230
         H           -6.040663874281    -0.159312329629    -1.009364735979     1.007825032230
         H           -5.704186874281    -1.680853329629    -0.168492735979     1.007825032230
         H           -6.117976874281    -0.232836329629     0.755050264021     1.007825032230
         H            2.345908125719     1.878890670371     0.720525264021     1.007825032230
         H            2.351158125719    -2.102929329629    -0.912135735979     1.007825032230
         H            4.851542725719     1.934257070371     0.832071164021     1.007825032230
         H            4.845762125719    -2.124376329629    -0.839349735979     1.007825032230
         H            6.079382125719    -0.133703329629     0.022902264021     1.007825032230

  Basis Set: AUG-CC-PVTZ
    Blend: AUG-CC-PVTZ
  Basis Set: (AUG-CC-PVTZ AUX)
    Blend: AUG-CC-PVTZ-JKFIT
	 Reference Energy          =    -613.3642277479077620 [Eh]
	 Singles Energy            =      -0.0000000000000000 [Eh]
	 Same-Spin Energy          =      -0.6728585470438955 [Eh]
	 Opposite-Spin Energy      =      -2.1174574707181333 [Eh]
	 Correlation Energy        =      -2.7903160177620290 [Eh]
	 Total Energy              =    -616.1545437656698141 [Eh]

	 ================> DF-SCS-MP2 Energies <==================
	-----------------------------------------------------------
	 SCS Same-Spin Scale       =       0.3333333333333333 [-]
	 SCS Opposite-Spin Scale   =       1.2000000000000000 [-]
	 SCS Same-Spin Energy      =      -0.2242861823479652 [Eh]
	 SCS Opposite-Spin Energy  =      -2.5409489648617600 [Eh]
	 SCS Correlation Energy    =      -2.7652351472097250 [Eh]
	 SCS Total Energy          =    -616.1294628951175127 [Eh]
	-----------------------------------------------------------

  Dipole Moment: [D]
     X:    -1.0381      Y:     0.6933      Z:     0.4548     Total:     1.3286

*** Psi4 exiting successfully. Buy a developer a beer!
