                               Psi4 1.4a3.dev225

  ==> Input File <==

--------------------------------------------------------------------------
#psi4
#
memory 32 gb

molecule  {
0 1
  O        0.8655410    -0.2383350    -0.1978900
  C       -1.3532420     0.4851090     0.1659470
  C        0.0589161     0.9869180     0.2143378
  C       -4.0760200    -0.2326370    -0.0482320
  C       -1.8292680    -0.6845410     0.7713590
  C       -2.2449120     1.2876570    -0.5496990
  C       -3.1721270    -1.0365930     0.6617200
  C       -3.5922330     0.9350480    -0.6483300
  C        2.2320470    -0.1282220    -0.1046120
  C       -5.5355430    -0.5984480    -0.1257210
  C        2.9140800     0.9938170     0.3783620
  C        2.9472190    -1.2508620    -0.5439590
  C        4.3132210     0.9773220     0.4183570
  C        4.3370840    -1.2508910    -0.4991240
  C        5.0300920    -0.1353830    -0.0155080
  H        0.3103430     1.7730630    -0.2708990
  H        0.3551050     1.0439550     1.3523320
  H       -1.1374380    -1.3254410     1.3139440
  H       -1.8855300     2.1916430    -1.0389860
  H       -3.5267120    -1.9532640     1.1308580
  H       -4.2733370     1.5694920    -1.2133600
  H       -6.0038750    -0.1617940    -1.0122750
  H       -5.6673980    -1.6833350    -0.1714030
  H       -6.0811880    -0.2353180     0.7521400
  H        2.3826970     1.8764090     0.7176150
  H        2.3879470    -2.1054110    -0.9150460
  H        4.8399070     1.8514100     0.7945710
  H        4.8825510    -2.1268580    -0.8422600
  H        6.1161710    -0.1361850     0.0199920
units angstrom
no_reorient  #important for SAPT in psi4, default
symmetry c1  #important for SAPT in psi4, default
}

set PROPERTIES_ORIGIN ["COM"]
properties('MP2/aug-cc-pvtz', properties = ['dipole'])
--------------------------------------------------------------------------

    Molecular point group: c1
  Charge       = 0
  Multiplicity = 1
  Basis Set: AUG-CC-PVTZ
    Blend: AUG-CC-PVTZ
  Basis Set: (AUG-CC-PVTZ AUX)
    Blend: AUG-CC-PVTZ-JKFIT

    Orbital Energies [Eh]
    ---------------------

    Doubly Occupied:

       1A    -20.577041     2A    -11.297096     3A    -11.296631
       4A    -11.245317     5A    -11.243806     6A    -11.239032
       7A    -11.238683     8A    -11.237891     9A    -11.236918
      10A    -11.234862    11A    -11.233160    12A    -11.229489
      13A    -11.226951    14A    -11.223986    15A    -11.223789
      16A     -1.379431    17A     -1.160716    18A     -1.139785
      19A     -1.070168    20A     -1.015428    21A     -1.014606
      22A     -1.003834    23A     -0.968628    24A     -0.905107
      25A     -0.835420    26A     -0.828490    27A     -0.804342
      28A     -0.788883    29A     -0.718001    30A     -0.685345
      31A     -0.671951    32A     -0.650799    33A     -0.639235
      34A     -0.634300    35A     -0.620838    36A     -0.606055
      37A     -0.585452    38A     -0.583886    39A     -0.578047
      40A     -0.557138    41A     -0.547646    42A     -0.536831
      43A     -0.522970    44A     -0.511309    45A     -0.492685
      46A     -0.487992    47A     -0.483797    48A     -0.477006
      49A     -0.460018    50A     -0.338687    51A     -0.337500
      52A     -0.322453    53A     -0.307855

  @DF-RHF Final Energy:  -613.33980535084231

   => Energetics <=

    Nuclear Repulsion Energy =            869.3801867862250674
    One-Electron Energy =               -2556.9254196006058919
    Two-Electron Energy =                1074.2054274635383990
    Total Energy =                       -613.3398053508424255
  Basis Set: (AUG-CC-PVTZ AUX)
    Blend: AUG-CC-PVTZ-RI
    Molecular point group: c1

    Geometry (in Angstrom), charge = 0, multiplicity = 1:

       Center              X                  Y                   Z               Mass
    ------------   -----------------  -----------------  -----------------  -----------------
         O            0.831023161477    -0.243131821497    -0.189589292272    15.994914619570
         C           -1.387759838523     0.480312178503     0.174247707728    12.000000000000
         C            0.024398261477     0.982121178503     0.222638507728    12.000000000000
         C           -4.110537838523    -0.237433821497    -0.039931292272    12.000000000000
         C           -1.863785838523    -0.689337821497     0.779659707728    12.000000000000
         C           -2.279429838523     1.282860178503    -0.541398292272    12.000000000000
         C           -3.206644838523    -1.041389821497     0.670020707728    12.000000000000
         C           -3.626750838523     0.930251178503    -0.640029292272    12.000000000000
         C            2.197529161477    -0.133018821497    -0.096311292272    12.000000000000
         C           -5.570060838523    -0.603244821497    -0.117420292272    12.000000000000
         C            2.879562161477     0.989020178503     0.386662707728    12.000000000000
         C            2.912701161477    -1.255658821497    -0.535658292272    12.000000000000
         C            4.278703161477     0.972525178503     0.426657707728    12.000000000000
         C            4.302566161477    -1.255687821497    -0.490823292272    12.000000000000
         C            4.995574161477    -0.140179821497    -0.007207292272    12.000000000000
         H            0.275825161477     1.768266178503    -0.262598292272     1.007825032230
         H            0.320587161477     1.039158178503     1.360632707728     1.007825032230
         H           -1.171955838523    -1.330237821497     1.322244707728     1.007825032230
         H           -1.920047838523     2.186846178503    -1.030685292272     1.007825032230
         H           -3.561229838523    -1.958060821497     1.139158707728     1.007825032230
         H           -4.307854838523     1.564695178503    -1.205059292272     1.007825032230
         H           -6.038392838523    -0.166590821497    -1.003974292272     1.007825032230
         H           -5.701915838523    -1.688131821497    -0.163102292272     1.007825032230
         H           -6.115705838523    -0.240114821497     0.760440707728     1.007825032230
         H            2.348179161477     1.871612178503     0.725915707728     1.007825032230
         H            2.353429161477    -2.110207821497    -0.906745292272     1.007825032230
         H            4.805389161477     1.846613178503     0.802871707728     1.007825032230
         H            4.848033161477    -2.131654821497    -0.833959292272     1.007825032230
         H            6.081653161477    -0.140981821497     0.028292707728     1.007825032230

  Basis Set: AUG-CC-PVTZ
    Blend: AUG-CC-PVTZ
  Basis Set: (AUG-CC-PVTZ AUX)
    Blend: AUG-CC-PVTZ-JKFIT
	 Reference Energy          =    -613.3398053508423118 [Eh]
	 Singles Energy            =      -0.0000000000000000 [Eh]
	 Same-Spin Energy          =      -0.6733816766034356 [Eh]
	 Opposite-Spin Energy      =      -2.1192378953763860 [Eh]
	 Correlation Energy        =      -2.7926195719798215 [Eh]
	 Total Energy              =    -616.1324249228221106 [Eh]

	 ================> DF-SCS-MP2 Energies <==================
	-----------------------------------------------------------
	 SCS Same-Spin Scale       =       0.3333333333333333 [-]
	 SCS Opposite-Spin Scale   =       1.2000000000000000 [-]
	 SCS Same-Spin Energy      =      -0.2244605588678119 [Eh]
	 SCS Opposite-Spin Energy  =      -2.5430854744516629 [Eh]
	 SCS Correlation Energy    =      -2.7675460333194746 [Eh]
	 SCS Total Energy          =    -616.1073513841618023 [Eh]
	-----------------------------------------------------------

  Dipole Moment: [D]
     X:    -1.3606      Y:     0.9468      Z:     0.3958     Total:     1.7042

*** Psi4 exiting successfully. Buy a developer a beer!
