                               Psi4 1.4a3.dev225

  ==> Input File <==

--------------------------------------------------------------------------
#psi4
#
memory 32 gb

molecule  {
0 1
  O        0.8655410    -0.2383350    -0.1978900
  C       -1.3532420     0.4851090     0.1659470
  C        0.0999050     0.8168978     0.3291168
  C       -4.0760200    -0.2326370    -0.0482320
  C       -1.8292680    -0.6845410     0.7713590
  C       -2.2449120     1.2876570    -0.5496990
  C       -3.1721270    -1.0365930     0.6617200
  C       -3.5922330     0.9350480    -0.6483300
  C        2.2320470    -0.1282220    -0.1046120
  C       -5.5355430    -0.5984480    -0.1257210
  C        2.9140800     0.9938170     0.3783620
  C        2.9472190    -1.2508620    -0.5439590
  C        4.3132210     0.9773220     0.4183570
  C        4.3370840    -1.2508910    -0.4991240
  C        5.0300920    -0.1353830    -0.0155080
  H        0.3103430     1.7730630    -0.2708990
  H        0.3551050     1.0439550     1.3523320
  H       -1.1374380    -1.3254410     1.3139440
  H       -1.8855300     2.1916430    -1.0389860
  H       -3.5267120    -1.9532640     1.1308580
  H       -4.2733370     1.5694920    -1.2133600
  H       -6.0038750    -0.1617940    -1.0122750
  H       -5.6673980    -1.6833350    -0.1714030
  H       -6.0811880    -0.2353180     0.7521400
  H        2.3826970     1.8764090     0.7176150
  H        2.3879470    -2.1054110    -0.9150460
  H        4.8399070     1.8514100     0.7945710
  H        4.8825510    -2.1268580    -0.8422600
  H        6.1161710    -0.1361850     0.0199920
units angstrom
no_reorient  #important for SAPT in psi4, default
symmetry c1  #important for SAPT in psi4, default
}

set PROPERTIES_ORIGIN ["COM"]
properties('MP2/aug-cc-pvtz', properties = ['dipole'])
--------------------------------------------------------------------------

    Molecular point group: c1
  Charge       = 0
  Multiplicity = 1
  Basis Set: AUG-CC-PVTZ
    Blend: AUG-CC-PVTZ
  Basis Set: (AUG-CC-PVTZ AUX)
    Blend: AUG-CC-PVTZ-JKFIT

    Orbital Energies [Eh]
    ---------------------

    Doubly Occupied:

       1A    -20.586125     2A    -11.302362     3A    -11.293517
       4A    -11.243574     5A    -11.241605     6A    -11.240134
       7A    -11.238617     8A    -11.237429     9A    -11.233985
      10A    -11.233963    11A    -11.232130    12A    -11.231412
      13A    -11.228942    14A    -11.228322    15A    -11.225658
      16A     -1.413646    17A     -1.158639    18A     -1.144917
      19A     -1.066623    20A     -1.018701    21A     -1.013415
      22A     -1.009639    23A     -0.963160    24A     -0.899071
      25A     -0.833775    26A     -0.830764    27A     -0.810791
      28A     -0.781787    29A     -0.724690    30A     -0.685684
      31A     -0.669527    32A     -0.666946    33A     -0.644767
      34A     -0.631410    35A     -0.619490    36A     -0.610594
      37A     -0.587689    38A     -0.583168    39A     -0.576785
      40A     -0.567023    41A     -0.542829    42A     -0.533979
      43A     -0.517764    44A     -0.513663    45A     -0.491873
      46A     -0.487105    47A     -0.485137    48A     -0.478010
      49A     -0.459746    50A     -0.340625    51A     -0.336351
      52A     -0.322293    53A     -0.313683

  @DF-RHF Final Energy:  -613.36912204428882

   => Energetics <=

    Nuclear Repulsion Energy =            871.1765317748155439
    One-Electron Energy =               -2560.4242342240640937
    Two-Electron Energy =                1075.8785804049598482
    Total Energy =                       -613.3691220442888152
  Basis Set: (AUG-CC-PVTZ AUX)
    Blend: AUG-CC-PVTZ-RI
    Molecular point group: c1

    Geometry (in Angstrom), charge = 0, multiplicity = 1:

       Center              X                  Y                   Z               Mass
    ------------   -----------------  -----------------  -----------------  -----------------
         O            0.828540295683    -0.232833000624    -0.196541927082    15.994914619570
         C           -1.390242704317     0.490610999376     0.167295072918    12.000000000000
         C            0.062904295683     0.822399799376     0.330464872918    12.000000000000
         C           -4.113020704317    -0.227135000624    -0.046883927082    12.000000000000
         C           -1.866268704317    -0.679039000624     0.772707072918    12.000000000000
         C           -2.281912704317     1.293158999376    -0.548350927082    12.000000000000
         C           -3.209127704317    -1.031091000624     0.663068072918    12.000000000000
         C           -3.629233704317     0.940549999376    -0.646981927082    12.000000000000
         C            2.195046295683    -0.122720000624    -0.103263927082    12.000000000000
         C           -5.572543704317    -0.592946000624    -0.124372927082    12.000000000000
         C            2.877079295683     0.999318999376     0.379710072918    12.000000000000
         C            2.910218295683    -1.245360000624    -0.542610927082    12.000000000000
         C            4.276220295683     0.982823999376     0.419705072918    12.000000000000
         C            4.300083295683    -1.245389000624    -0.497775927082    12.000000000000
         C            4.993091295683    -0.129881000624    -0.014159927082    12.000000000000
         H            0.273342295683     1.778564999376    -0.269550927082     1.007825032230
         H            0.318104295683     1.049456999376     1.353680072918     1.007825032230
         H           -1.174438704317    -1.319939000624     1.315292072918     1.007825032230
         H           -1.922530704317     2.197144999376    -1.037637927082     1.007825032230
         H           -3.563712704317    -1.947762000624     1.132206072918     1.007825032230
         H           -4.310337704317     1.574993999376    -1.212011927082     1.007825032230
         H           -6.040875704317    -0.156292000624    -1.010926927082     1.007825032230
         H           -5.704398704317    -1.677833000624    -0.170054927082     1.007825032230
         H           -6.118188704317    -0.229816000624     0.753488072918     1.007825032230
         H            2.345696295683     1.881910999376     0.718963072918     1.007825032230
         H            2.350946295683    -2.099909000624    -0.913697927082     1.007825032230
         H            4.802906295683     1.856911999376     0.795919072918     1.007825032230
         H            4.845550295683    -2.121356000624    -0.840911927082     1.007825032230
         H            6.079170295683    -0.130683000624     0.021340072918     1.007825032230

  Basis Set: AUG-CC-PVTZ
    Blend: AUG-CC-PVTZ
  Basis Set: (AUG-CC-PVTZ AUX)
    Blend: AUG-CC-PVTZ-JKFIT
	 Reference Energy          =    -613.3691220442888152 [Eh]
	 Singles Energy            =      -0.0000000000000000 [Eh]
	 Same-Spin Energy          =      -0.6727068890498895 [Eh]
	 Opposite-Spin Energy      =      -2.1163493792744248 [Eh]
	 Correlation Energy        =      -2.7890562683243143 [Eh]
	 Total Energy              =    -616.1581783126131313 [Eh]

	 ================> DF-SCS-MP2 Energies <==================
	-----------------------------------------------------------
	 SCS Same-Spin Scale       =       0.3333333333333333 [-]
	 SCS Opposite-Spin Scale   =       1.2000000000000000 [-]
	 SCS Same-Spin Energy      =      -0.2242356296832965 [Eh]
	 SCS Opposite-Spin Energy  =      -2.5396192551293097 [Eh]
	 SCS Correlation Energy    =      -2.7638548848126061 [Eh]
	 SCS Total Energy          =    -616.1329769291014600 [Eh]
	-----------------------------------------------------------

  Dipole Moment: [D]
     X:    -0.8974      Y:     0.6324      Z:     0.5018     Total:     1.2071

*** Psi4 exiting successfully. Buy a developer a beer!
