                               Psi4 1.4a3.dev225

  ==> Input File <==

--------------------------------------------------------------------------
#psi4
#
memory 32 gb

molecule  {
0 1
  O        0.8655410    -0.2383350    -0.1978900
  C       -1.3532420     0.4851090     0.1659470
  C        0.0923410     0.8600100     0.3004220
  C       -4.0760200    -0.2326370    -0.0482320
  C       -1.8292680    -0.6845410     0.7713590
  C       -2.2449120     1.2876570    -0.5496990
  C       -3.1721270    -1.0365930     0.6617200
  C       -3.5922330     0.9350480    -0.6483300
  C        2.3314940    -0.1202086    -0.0978237
  C       -5.5355430    -0.5984480    -0.1257210
  C        2.9140800     0.9938170     0.3783620
  C        2.9472190    -1.2508620    -0.5439590
  C        4.3132210     0.9773220     0.4183570
  C        4.3370840    -1.2508910    -0.4991240
  C        5.0300920    -0.1353830    -0.0155080
  H        0.3103430     1.7730630    -0.2708990
  H        0.3551050     1.0439550     1.3523320
  H       -1.1374380    -1.3254410     1.3139440
  H       -1.8855300     2.1916430    -1.0389860
  H       -3.5267120    -1.9532640     1.1308580
  H       -4.2733370     1.5694920    -1.2133600
  H       -6.0038750    -0.1617940    -1.0122750
  H       -5.6673980    -1.6833350    -0.1714030
  H       -6.0811880    -0.2353180     0.7521400
  H        2.3826970     1.8764090     0.7176150
  H        2.3879470    -2.1054110    -0.9150460
  H        4.8399070     1.8514100     0.7945710
  H        4.8825510    -2.1268580    -0.8422600
  H        6.1161710    -0.1361850     0.0199920
units angstrom
no_reorient  #important for SAPT in psi4, default
symmetry c1  #important for SAPT in psi4, default
}

set PROPERTIES_ORIGIN ["COM"]
properties('MP2/aug-cc-pvtz', properties = ['dipole'])
--------------------------------------------------------------------------

    Molecular point group: c1
  Charge       = 0
  Multiplicity = 1
  Basis Set: AUG-CC-PVTZ
    Blend: AUG-CC-PVTZ
  Basis Set: (AUG-CC-PVTZ AUX)
    Blend: AUG-CC-PVTZ-JKFIT

    Orbital Energies [Eh]
    ---------------------

    Doubly Occupied:

       1A    -20.568237     2A    -11.294958     3A    -11.284157
       4A    -11.245248     5A    -11.243583     6A    -11.240140
       7A    -11.234681     8A    -11.233710     9A    -11.233295
      10A    -11.233057    11A    -11.230726    12A    -11.230627
      13A    -11.228770    14A    -11.228499    15A    -11.223313
      16A     -1.364649    17A     -1.163278    18A     -1.150497
      19A     -1.060438    20A     -1.028661    21A     -1.014530
      22A     -1.008972    23A     -0.959484    24A     -0.891166
      25A     -0.839969    26A     -0.828246    27A     -0.810301
      28A     -0.778841    29A     -0.718996    30A     -0.677651
      31A     -0.661122    32A     -0.652666    33A     -0.645646
      34A     -0.629738    35A     -0.614293    36A     -0.605742
      37A     -0.597672    38A     -0.579750    39A     -0.574315
      40A     -0.559281    41A     -0.539786    42A     -0.528917
      43A     -0.522390    44A     -0.509840    45A     -0.498746
      46A     -0.484338    47A     -0.481488    48A     -0.472245
      49A     -0.455397    50A     -0.346323    51A     -0.333224
      52A     -0.326784    53A     -0.317602

  @DF-RHF Final Energy:  -613.35891752539726

   => Energetics <=

    Nuclear Repulsion Energy =            870.4485367261459032
    One-Electron Energy =               -2559.2429370320714952
    Two-Electron Energy =                1075.4354827805282184
    Total Energy =                       -613.3589175253973735
  Basis Set: (AUG-CC-PVTZ AUX)
    Blend: AUG-CC-PVTZ-RI
    Molecular point group: c1

    Geometry (in Angstrom), charge = 0, multiplicity = 1:

       Center              X                  Y                   Z               Mass
    ------------   -----------------  -----------------  -----------------  -----------------
         O            0.822974565503    -0.235929887914    -0.195214960525    15.994914619570
         C           -1.395808434497     0.487514112086     0.168622039475    12.000000000000
         C            0.049774565503     0.862415112086     0.303097039475    12.000000000000
         C           -4.118586434497    -0.230231887914    -0.045556960525    12.000000000000
         C           -1.871834434497    -0.682135887914     0.774034039475    12.000000000000
         C           -2.287478434497     1.290062112086    -0.547023960525    12.000000000000
         C           -3.214693434497    -1.034187887914     0.664395039475    12.000000000000
         C           -3.634799434497     0.937453112086    -0.645654960525    12.000000000000
         C            2.288927565503    -0.117803487914    -0.095148660525    12.000000000000
         C           -5.578109434497    -0.596042887914    -0.123045960525    12.000000000000
         C            2.871513565503     0.996222112086     0.381037039475    12.000000000000
         C            2.904652565503    -1.248456887914    -0.541283960525    12.000000000000
         C            4.270654565503     0.979727112086     0.421032039475    12.000000000000
         C            4.294517565503    -1.248485887914    -0.496448960525    12.000000000000
         C            4.987525565503    -0.132977887914    -0.012832960525    12.000000000000
         H            0.267776565503     1.775468112086    -0.268223960525     1.007825032230
         H            0.312538565503     1.046360112086     1.355007039475     1.007825032230
         H           -1.180004434497    -1.323035887914     1.316619039475     1.007825032230
         H           -1.928096434497     2.194048112086    -1.036310960525     1.007825032230
         H           -3.569278434497    -1.950858887914     1.133533039475     1.007825032230
         H           -4.315903434497     1.571897112086    -1.210684960525     1.007825032230
         H           -6.046441434497    -0.159388887914    -1.009599960525     1.007825032230
         H           -5.709964434497    -1.680929887914    -0.168727960525     1.007825032230
         H           -6.123754434497    -0.232912887914     0.754815039475     1.007825032230
         H            2.340130565503     1.878814112086     0.720290039475     1.007825032230
         H            2.345380565503    -2.103005887914    -0.912370960525     1.007825032230
         H            4.797340565503     1.853815112086     0.797246039475     1.007825032230
         H            4.839984565503    -2.124452887914    -0.839584960525     1.007825032230
         H            6.073604565503    -0.133779887914     0.022667039475     1.007825032230

  Basis Set: AUG-CC-PVTZ
    Blend: AUG-CC-PVTZ
  Basis Set: (AUG-CC-PVTZ AUX)
    Blend: AUG-CC-PVTZ-JKFIT
	 Reference Energy          =    -613.3589175253972599 [Eh]
	 Singles Energy            =      -0.0000000000000000 [Eh]
	 Same-Spin Energy          =      -0.6731188863691229 [Eh]
	 Opposite-Spin Energy      =      -2.1179639609012959 [Eh]
	 Correlation Energy        =      -2.7910828472704186 [Eh]
	 Total Energy              =    -616.1500003726677051 [Eh]

	 ================> DF-SCS-MP2 Energies <==================
	-----------------------------------------------------------
	 SCS Same-Spin Scale       =       0.3333333333333333 [-]
	 SCS Opposite-Spin Scale   =       1.2000000000000000 [-]
	 SCS Same-Spin Energy      =      -0.2243729621230409 [Eh]
	 SCS Opposite-Spin Energy  =      -2.5415567530815548 [Eh]
	 SCS Correlation Energy    =      -2.7659297152045959 [Eh]
	 SCS Total Energy          =    -616.1248472406018664 [Eh]
	-----------------------------------------------------------

  Dipole Moment: [D]
     X:    -0.1447      Y:     0.6828      Z:     0.4716     Total:     0.8424

*** Psi4 exiting successfully. Buy a developer a beer!
