                               Psi4 1.4a3.dev225

  ==> Input File <==

--------------------------------------------------------------------------
#psi4
#
memory 32 gb

molecule  {
0 1
  O        0.8655410    -0.2383350    -0.1978900
  C       -1.3532420     0.4851090     0.1659470
  C        0.0923410     0.8600100     0.3004220
  C       -4.0760200    -0.2326370    -0.0482320
  C       -1.8292680    -0.6845410     0.7713590
  C       -2.2449120     1.2876570    -0.5496990
  C       -3.1721270    -1.0365930     0.6617200
  C       -3.5922330     0.9350480    -0.6483300
  C        2.2320470    -0.1282220    -0.1046120
  C       -5.5355430    -0.5984480    -0.1257210
  C        2.9140800     0.9938170     0.3783620
  C        2.9472190    -1.2508620    -0.5439590
  C        4.3132210     0.9773220     0.4183570
  C        4.2871100    -1.2508900    -0.5007361
  C        5.0300920    -0.1353830    -0.0155080
  H        0.3103430     1.7730630    -0.2708990
  H        0.3551050     1.0439550     1.3523320
  H       -1.1374380    -1.3254410     1.3139440
  H       -1.8855300     2.1916430    -1.0389860
  H       -3.5267120    -1.9532640     1.1308580
  H       -4.2733370     1.5694920    -1.2133600
  H       -6.0038750    -0.1617940    -1.0122750
  H       -5.6673980    -1.6833350    -0.1714030
  H       -6.0811880    -0.2353180     0.7521400
  H        2.3826970     1.8764090     0.7176150
  H        2.3879470    -2.1054110    -0.9150460
  H        4.8399070     1.8514100     0.7945710
  H        4.8825510    -2.1268580    -0.8422600
  H        6.1161710    -0.1361850     0.0199920
units angstrom
no_reorient  #important for SAPT in psi4, default
symmetry c1  #important for SAPT in psi4, default
}

set PROPERTIES_ORIGIN ["COM"]
properties('MP2/aug-cc-pvtz', properties = ['dipole'])
--------------------------------------------------------------------------

    Molecular point group: c1
  Charge       = 0
  Multiplicity = 1
  Basis Set: AUG-CC-PVTZ
    Blend: AUG-CC-PVTZ
  Basis Set: (AUG-CC-PVTZ AUX)
    Blend: AUG-CC-PVTZ-JKFIT

    Orbital Energies [Eh]
    ---------------------

    Doubly Occupied:

       1A    -20.584856     2A    -11.301938     3A    -11.293298
       4A    -11.243948     5A    -11.240164     6A    -11.239221
       7A    -11.238323     8A    -11.237664     9A    -11.235095
      10A    -11.232372    11A    -11.232222    12A    -11.231227
      13A    -11.228688    14A    -11.225958    15A    -11.223063
      16A     -1.405544    17A     -1.159340    18A     -1.146158
      19A     -1.066938    20A     -1.023613    21A     -1.013399
      22A     -1.005160    23A     -0.964334    24A     -0.900282
      25A     -0.833018    26A     -0.827539    27A     -0.811501
      28A     -0.782131    29A     -0.721008    30A     -0.684360
      31A     -0.670804    32A     -0.663960    33A     -0.644307
      34A     -0.629794    35A     -0.620828    36A     -0.606013
      37A     -0.589107    38A     -0.583674    39A     -0.577143
      40A     -0.564574    41A     -0.543682    42A     -0.531387
      43A     -0.522797    44A     -0.518501    45A     -0.488561
      46A     -0.486921    47A     -0.485137    48A     -0.475223
      49A     -0.464354    50A     -0.346050    51A     -0.336874
      52A     -0.322370    53A     -0.309714

  @DF-RHF Final Energy:  -613.36873260464779

   => Energetics <=

    Nuclear Repulsion Energy =            871.4235731470624842
    One-Electron Energy =               -2560.9563271358920247
    Two-Electron Energy =                1076.1640213841815239
    Total Energy =                       -613.3687326046479029
  Basis Set: (AUG-CC-PVTZ AUX)
    Blend: AUG-CC-PVTZ-RI
    Molecular point group: c1

    Geometry (in Angstrom), charge = 0, multiplicity = 1:

       Center              X                  Y                   Z               Mass
    ------------   -----------------  -----------------  -----------------  -----------------
         O            0.832025608343    -0.235444543982    -0.194706113842    15.994914619570
         C           -1.386757391657     0.487999456018     0.169130886158    12.000000000000
         C            0.058825608343     0.862900456018     0.303605886158    12.000000000000
         C           -4.109535391657    -0.229746543982    -0.045048113842    12.000000000000
         C           -1.862783391657    -0.681650543982     0.774542886158    12.000000000000
         C           -2.278427391657     1.290547456018    -0.546515113842    12.000000000000
         C           -3.205642391657    -1.033702543982     0.664903886158    12.000000000000
         C           -3.625748391657     0.937938456018    -0.645146113842    12.000000000000
         C            2.198531608343    -0.125331543982    -0.101428113842    12.000000000000
         C           -5.569058391657    -0.595557543982    -0.122537113842    12.000000000000
         C            2.880564608343     0.996707456018     0.381545886158    12.000000000000
         C            2.913703608343    -1.247971543982    -0.540775113842    12.000000000000
         C            4.279705608343     0.980212456018     0.421540886158    12.000000000000
         C            4.253594608343    -1.247999543982    -0.497552213842    12.000000000000
         C            4.996576608343    -0.132492543982    -0.012324113842    12.000000000000
         H            0.276827608343     1.775953456018    -0.267715113842     1.007825032230
         H            0.321589608343     1.046845456018     1.355515886158     1.007825032230
         H           -1.170953391657    -1.322550543982     1.317127886158     1.007825032230
         H           -1.919045391657     2.194533456018    -1.035802113842     1.007825032230
         H           -3.560227391657    -1.950373543982     1.134041886158     1.007825032230
         H           -4.306852391657     1.572382456018    -1.210176113842     1.007825032230
         H           -6.037390391657    -0.158903543982    -1.009091113842     1.007825032230
         H           -5.700913391657    -1.680444543982    -0.168219113842     1.007825032230
         H           -6.114703391657    -0.232427543982     0.755323886158     1.007825032230
         H            2.349181608343     1.879299456018     0.720798886158     1.007825032230
         H            2.354431608343    -2.102520543982    -0.911862113842     1.007825032230
         H            4.806391608343     1.854300456018     0.797754886158     1.007825032230
         H            4.849035608343    -2.123967543982    -0.839076113842     1.007825032230
         H            6.082655608343    -0.133294543982     0.023175886158     1.007825032230

  Basis Set: AUG-CC-PVTZ
    Blend: AUG-CC-PVTZ
  Basis Set: (AUG-CC-PVTZ AUX)
    Blend: AUG-CC-PVTZ-JKFIT
	 Reference Energy          =    -613.3687326046477892 [Eh]
	 Singles Energy            =      -0.0000000000000000 [Eh]
	 Same-Spin Energy          =      -0.6724829250214529 [Eh]
	 Opposite-Spin Energy      =      -2.1164090416076111 [Eh]
	 Correlation Energy        =      -2.7888919666290639 [Eh]
	 Total Energy              =    -616.1576245712768696 [Eh]

	 ================> DF-SCS-MP2 Energies <==================
	-----------------------------------------------------------
	 SCS Same-Spin Scale       =       0.3333333333333333 [-]
	 SCS Opposite-Spin Scale   =       1.2000000000000000 [-]
	 SCS Same-Spin Energy      =      -0.2241609750071510 [Eh]
	 SCS Opposite-Spin Energy  =      -2.5396908499291331 [Eh]
	 SCS Correlation Energy    =      -2.7638518249362840 [Eh]
	 SCS Total Energy          =    -616.1325844295840852 [Eh]
	-----------------------------------------------------------

  Dipole Moment: [D]
     X:    -1.0269      Y:     0.7252      Z:     0.4678     Total:     1.3414

*** Psi4 exiting successfully. Buy a developer a beer!
