                               Psi4 1.4a3.dev225

  ==> Input File <==

--------------------------------------------------------------------------
#psi4
#
memory 32 gb

molecule  {
0 1
  O        0.8655410    -0.2383350    -0.1978900
  C       -1.3532420     0.4851090     0.1659470
  C        0.0923410     0.8600100     0.3004220
  C       -4.0760200    -0.2326370    -0.0482320
  C       -1.8292680    -0.6845410     0.7713590
  C       -2.2449120     1.2876570    -0.5496990
  C       -3.1721270    -1.0365930     0.6617200
  C       -3.5922330     0.9350480    -0.6483300
  C        2.2320470    -0.1282220    -0.1046120
  C       -5.5355430    -0.5984480    -0.1257210
  C        2.9140800     0.9938170     0.3783620
  C        2.9472190    -1.2508620    -0.5439590
  C        4.3132210     0.9773220     0.4183570
  C        4.3370840    -1.2508910    -0.4991240
  C        5.0300920    -0.1353830    -0.0155080
  H        0.3103430     1.7730630    -0.2708990
  H        0.3551050     1.0439550     1.3523320
  H       -1.1374380    -1.3254410     1.3139440
  H       -1.8855300     2.1916430    -1.0389860
  H       -3.5267120    -1.9532640     1.1308580
  H       -4.2733370     1.5694920    -1.2133600
  H       -6.0038750    -0.1617940    -1.0122750
  H       -5.6794525    -1.7825179    -0.1755794
  H       -6.0811880    -0.2353180     0.7521400
  H        2.3826970     1.8764090     0.7176150
  H        2.3879470    -2.1054110    -0.9150460
  H        4.8399070     1.8514100     0.7945710
  H        4.8825510    -2.1268580    -0.8422600
  H        6.1161710    -0.1361850     0.0199920
units angstrom
no_reorient  #important for SAPT in psi4, default
symmetry c1  #important for SAPT in psi4, default
}

set PROPERTIES_ORIGIN ["COM"]
properties('MP2/aug-cc-pvtz', properties = ['dipole'])
--------------------------------------------------------------------------

    Molecular point group: c1
  Charge       = 0
  Multiplicity = 1
  Basis Set: AUG-CC-PVTZ
    Blend: AUG-CC-PVTZ
  Basis Set: (AUG-CC-PVTZ AUX)
    Blend: AUG-CC-PVTZ-JKFIT

    Orbital Energies [Eh]
    ---------------------

    Doubly Occupied:

       1A    -20.584081     2A    -11.301141     3A    -11.293429
       4A    -11.244780     5A    -11.241060     6A    -11.239540
       7A    -11.239489     8A    -11.237989     9A    -11.237638
      10A    -11.235184    11A    -11.233096    12A    -11.233064
      13A    -11.232357    14A    -11.227783    15A    -11.227355
      16A     -1.405043    17A     -1.159141    18A     -1.143852
      19A     -1.066470    20A     -1.017708    21A     -1.013727
      22A     -1.007890    23A     -0.961458    24A     -0.896470
      25A     -0.833087    26A     -0.831468    27A     -0.808746
      28A     -0.782068    29A     -0.721299    30A     -0.683786
      31A     -0.670428    32A     -0.663820    33A     -0.643581
      34A     -0.631004    35A     -0.619659    36A     -0.609546
      37A     -0.586892    38A     -0.583869    39A     -0.574316
      40A     -0.563387    41A     -0.536284    42A     -0.532254
      43A     -0.517883    44A     -0.514150    45A     -0.491704
      46A     -0.487000    47A     -0.483532    48A     -0.479100
      49A     -0.464314    50A     -0.340042    51A     -0.337072
      52A     -0.322492    53A     -0.312438

  @DF-RHF Final Energy:  -613.36503339183150

   => Energetics <=

    Nuclear Repulsion Energy =            870.3385902986769906
    One-Electron Energy =               -2558.7973194672727004
    Two-Electron Energy =                1075.0936957767642070
    Total Energy =                       -613.3650333918315027
  Basis Set: (AUG-CC-PVTZ AUX)
    Blend: AUG-CC-PVTZ-RI
    Molecular point group: c1

    Geometry (in Angstrom), charge = 0, multiplicity = 1:

       Center              X                  Y                   Z               Mass
    ------------   -----------------  -----------------  -----------------  -----------------
         O            0.829059803544    -0.234939906142    -0.194782518579    15.994914619570
         C           -1.389723196456     0.488504093858     0.169054481421    12.000000000000
         C            0.055859803544     0.863405093858     0.303529481421    12.000000000000
         C           -4.112501196456    -0.229241906142    -0.045124518579    12.000000000000
         C           -1.865749196456    -0.681145906142     0.774466481421    12.000000000000
         C           -2.281393196456     1.291052093858    -0.546591518579    12.000000000000
         C           -3.208608196456    -1.033197906142     0.664827481421    12.000000000000
         C           -3.628714196456     0.938443093858    -0.645222518579    12.000000000000
         C            2.195565803544    -0.124826906142    -0.101504518579    12.000000000000
         C           -5.572024196456    -0.595052906142    -0.122613518579    12.000000000000
         C            2.877598803544     0.997212093858     0.381469481421    12.000000000000
         C            2.910737803544    -1.247466906142    -0.540851518579    12.000000000000
         C            4.276739803544     0.980717093858     0.421464481421    12.000000000000
         C            4.300602803544    -1.247495906142    -0.496016518579    12.000000000000
         C            4.993610803544    -0.131987906142    -0.012400518579    12.000000000000
         H            0.273861803544     1.776458093858    -0.267791518579     1.007825032230
         H            0.318623803544     1.047350093858     1.355439481421     1.007825032230
         H           -1.173919196456    -1.322045906142     1.317051481421     1.007825032230
         H           -1.922011196456     2.195038093858    -1.035878518579     1.007825032230
         H           -3.563193196456    -1.949868906142     1.133965481421     1.007825032230
         H           -4.309818196456     1.572887093858    -1.210252518579     1.007825032230
         H           -6.040356196456    -0.158398906142    -1.009167518579     1.007825032230
         H           -5.715933696456    -1.779122806142    -0.172471918579     1.007825032230
         H           -6.117669196456    -0.231922906142     0.755247481421     1.007825032230
         H            2.346215803544     1.879804093858     0.720722481421     1.007825032230
         H            2.351465803544    -2.102015906142    -0.911938518579     1.007825032230
         H            4.803425803544     1.854805093858     0.797678481421     1.007825032230
         H            4.846069803544    -2.123462906142    -0.839152518579     1.007825032230
         H            6.079689803544    -0.132789906142     0.023099481421     1.007825032230

  Basis Set: AUG-CC-PVTZ
    Blend: AUG-CC-PVTZ
  Basis Set: (AUG-CC-PVTZ AUX)
    Blend: AUG-CC-PVTZ-JKFIT
	 Reference Energy          =    -613.3650333918315027 [Eh]
	 Singles Energy            =      -0.0000000000000000 [Eh]
	 Same-Spin Energy          =      -0.6726607396432130 [Eh]
	 Opposite-Spin Energy      =      -2.1172578223546119 [Eh]
	 Correlation Energy        =      -2.7899185619978248 [Eh]
	 Total Energy              =    -616.1549519538293680 [Eh]

	 ================> DF-SCS-MP2 Energies <==================
	-----------------------------------------------------------
	 SCS Same-Spin Scale       =       0.3333333333333333 [-]
	 SCS Opposite-Spin Scale   =       1.2000000000000000 [-]
	 SCS Same-Spin Energy      =      -0.2242202465477377 [Eh]
	 SCS Opposite-Spin Energy  =      -2.5407093868255344 [Eh]
	 SCS Correlation Energy    =      -2.7649296333732720 [Eh]
	 SCS Total Energy          =    -616.1299630252048019 [Eh]
	-----------------------------------------------------------

  Dipole Moment: [D]
     X:    -0.9604      Y:     0.7849      Z:     0.4745     Total:     1.3280

*** Psi4 exiting successfully. Buy a developer a beer!
