                               Psi4 1.4a3.dev225

  ==> Input File <==

--------------------------------------------------------------------------
#psi4
#
memory 32 gb

molecule  {
0 1
  O        0.8655410    -0.2383350    -0.1978900
  C       -1.3532420     0.4851090     0.1659470
  C        0.0923410     0.8600100     0.3004220
  C       -4.0760200    -0.2326370    -0.0482320
  C       -1.8292680    -0.6845410     0.7713590
  C       -2.2449120     1.2876570    -0.5496990
  C       -3.1592385    -1.0480565     0.6718431
  C       -3.5922330     0.9350480    -0.6483300
  C        2.2320470    -0.1282220    -0.1046120
  C       -5.5355430    -0.5984480    -0.1257210
  C        2.9140800     0.9938170     0.3783620
  C        2.9472190    -1.2508620    -0.5439590
  C        4.3132210     0.9773220     0.4183570
  C        4.3370840    -1.2508910    -0.4991240
  C        5.0300920    -0.1353830    -0.0155080
  H        0.3103430     1.7730630    -0.2708990
  H        0.3551050     1.0439550     1.3523320
  H       -1.1374380    -1.3254410     1.3139440
  H       -1.8855300     2.1916430    -1.0389860
  H       -3.5267120    -1.9532640     1.1308580
  H       -4.2733370     1.5694920    -1.2133600
  H       -6.0038750    -0.1617940    -1.0122750
  H       -5.6673980    -1.6833350    -0.1714030
  H       -6.0811880    -0.2353180     0.7521400
  H        2.3826970     1.8764090     0.7176150
  H        2.3879470    -2.1054110    -0.9150460
  H        4.8399070     1.8514100     0.7945710
  H        4.8825510    -2.1268580    -0.8422600
  H        6.1161710    -0.1361850     0.0199920
units angstrom
no_reorient  #important for SAPT in psi4, default
symmetry c1  #important for SAPT in psi4, default
}

set PROPERTIES_ORIGIN ["COM"]
properties('MP2/aug-cc-pvtz', properties = ['dipole'])
--------------------------------------------------------------------------

    Molecular point group: c1
  Charge       = 0
  Multiplicity = 1
  Basis Set: AUG-CC-PVTZ
    Blend: AUG-CC-PVTZ
  Basis Set: (AUG-CC-PVTZ AUX)
    Blend: AUG-CC-PVTZ-JKFIT

    Orbital Energies [Eh]
    ---------------------

    Doubly Occupied:

       1A    -20.583786     2A    -11.300955     3A    -11.293162
       4A    -11.246049     5A    -11.240905     6A    -11.239338
       7A    -11.239076     8A    -11.237652     9A    -11.234079
      10A    -11.232884    11A    -11.232231    12A    -11.231922
      13A    -11.227614    14A    -11.227199    15A    -11.226135
      16A     -1.404765    17A     -1.158009    18A     -1.143490
      19A     -1.065735    20A     -1.017654    21A     -1.014694
      22A     -1.008519    23A     -0.964225    24A     -0.898678
      25A     -0.832786    26A     -0.830561    27A     -0.809003
      28A     -0.782684    29A     -0.721119    30A     -0.684306
      31A     -0.670398    32A     -0.663614    33A     -0.643582
      34A     -0.631884    35A     -0.619857    36A     -0.609608
      37A     -0.586707    38A     -0.584821    39A     -0.576740
      40A     -0.563525    41A     -0.544036    42A     -0.531532
      43A     -0.522856    44A     -0.513924    45A     -0.492312
      46A     -0.485444    47A     -0.483996    48A     -0.479448
      49A     -0.463952    50A     -0.339866    51A     -0.338144
      52A     -0.320364    53A     -0.312255

  @DF-RHF Final Energy:  -613.37110017881491

   => Energetics <=

    Nuclear Repulsion Energy =            870.5860172751530399
    One-Electron Energy =               -2559.2980746356438431
    Two-Electron Energy =                1075.3409571816757762
    Total Energy =                       -613.3711001788149133
  Basis Set: (AUG-CC-PVTZ AUX)
    Blend: AUG-CC-PVTZ-RI
    Molecular point group: c1

    Geometry (in Angstrom), charge = 0, multiplicity = 1:

       Center              X                  Y                   Z               Mass
    ------------   -----------------  -----------------  -----------------  -----------------
         O            0.828217768879    -0.234750092194    -0.195416963039    15.994914619570
         C           -1.390565231121     0.488693907806     0.168420036961    12.000000000000
         C            0.055017768879     0.863594907806     0.302895036961    12.000000000000
         C           -4.113343231121    -0.229052092194    -0.045758963039    12.000000000000
         C           -1.866591231121    -0.680956092194     0.773832036961    12.000000000000
         C           -2.282235231121     1.291241907806    -0.547225963039    12.000000000000
         C           -3.196561731121    -1.044471592194     0.674316136961    12.000000000000
         C           -3.629556231121     0.938632907806    -0.645856963039    12.000000000000
         C            2.194723768879    -0.124637092194    -0.102138963039    12.000000000000
         C           -5.572866231121    -0.594863092194    -0.123247963039    12.000000000000
         C            2.876756768879     0.997401907806     0.380835036961    12.000000000000
         C            2.909895768879    -1.247277092194    -0.541485963039    12.000000000000
         C            4.275897768879     0.980906907806     0.420830036961    12.000000000000
         C            4.299760768879    -1.247306092194    -0.496650963039    12.000000000000
         C            4.992768768879    -0.131798092194    -0.013034963039    12.000000000000
         H            0.273019768879     1.776647907806    -0.268425963039     1.007825032230
         H            0.317781768879     1.047539907806     1.354805036961     1.007825032230
         H           -1.174761231121    -1.321856092194     1.316417036961     1.007825032230
         H           -1.922853231121     2.195227907806    -1.036512963039     1.007825032230
         H           -3.564035231121    -1.949679092194     1.133331036961     1.007825032230
         H           -4.310660231121     1.573076907806    -1.210886963039     1.007825032230
         H           -6.041198231121    -0.158209092194    -1.009801963039     1.007825032230
         H           -5.704721231121    -1.679750092194    -0.168929963039     1.007825032230
         H           -6.118511231121    -0.231733092194     0.754613036961     1.007825032230
         H            2.345373768879     1.879993907806     0.720088036961     1.007825032230
         H            2.350623768879    -2.101826092194    -0.912572963039     1.007825032230
         H            4.802583768879     1.854994907806     0.797044036961     1.007825032230
         H            4.845227768879    -2.123273092194    -0.839786963039     1.007825032230
         H            6.078847768879    -0.132600092194     0.022465036961     1.007825032230

  Basis Set: AUG-CC-PVTZ
    Blend: AUG-CC-PVTZ
  Basis Set: (AUG-CC-PVTZ AUX)
    Blend: AUG-CC-PVTZ-JKFIT
	 Reference Energy          =    -613.3711001788149133 [Eh]
	 Singles Energy            =      -0.0000000000000000 [Eh]
	 Same-Spin Energy          =      -0.6725835996466201 [Eh]
	 Opposite-Spin Energy      =      -2.1165358455704899 [Eh]
	 Correlation Energy        =      -2.7891194452171097 [Eh]
	 Total Energy              =    -616.1602196240320382 [Eh]

	 ================> DF-SCS-MP2 Energies <==================
	-----------------------------------------------------------
	 SCS Same-Spin Scale       =       0.3333333333333333 [-]
	 SCS Opposite-Spin Scale   =       1.2000000000000000 [-]
	 SCS Same-Spin Energy      =      -0.2241945332155400 [Eh]
	 SCS Opposite-Spin Energy  =      -2.5398430146845876 [Eh]
	 SCS Correlation Energy    =      -2.7640375479001276 [Eh]
	 SCS Total Energy          =    -616.1351377267150156 [Eh]
	-----------------------------------------------------------

  Dipole Moment: [D]
     X:    -1.0178      Y:     0.7268      Z:     0.4720     Total:     1.3368

*** Psi4 exiting successfully. Buy a developer a beer!
