                               Psi4 1.4a3.dev225

  ==> Input File <==

--------------------------------------------------------------------------
#psi4
#
memory 32 gb

molecule  {
0 1
  O        0.8655410    -0.2383350    -0.1978900
  C       -1.3532420     0.4851090     0.1659470
  C        0.0923410     0.8600100     0.3004220
  C       -4.0760200    -0.2326370    -0.0482320
  C       -1.8292680    -0.6845410     0.7713590
  C       -2.2449120     1.2876570    -0.5496990
  C       -3.1721270    -1.0365930     0.6617200
  C       -3.5922330     0.9350480    -0.6483300
  C        2.2320470    -0.1282220    -0.1046120
  C       -5.5355430    -0.5984480    -0.1257210
  C        2.9140800     0.9938170     0.3783620
  C        2.9472190    -1.2508620    -0.5439590
  C        4.3132210     0.9773220     0.4183570
  C        4.3370840    -1.2508910    -0.4991240
  C        5.0300920    -0.1353830    -0.0155080
  H        0.3103430     1.7730630    -0.2708990
  H        0.3551050     1.0439550     1.3523320
  H       -1.1374380    -1.3254410     1.3139440
  H       -1.8855300     2.1916430    -1.0389860
  H       -3.5267120    -1.9532640     1.1308580
  H       -4.2733370     1.5694920    -1.2133600
  H       -5.9610505    -0.2017218    -0.9312081
  H       -5.6673980    -1.6833350    -0.1714030
  H       -6.0811880    -0.2353180     0.7521400
  H        2.3826970     1.8764090     0.7176150
  H        2.3879470    -2.1054110    -0.9150460
  H        4.8399070     1.8514100     0.7945710
  H        4.8825510    -2.1268580    -0.8422600
  H        6.1161710    -0.1361850     0.0199920
units angstrom
no_reorient  #important for SAPT in psi4, default
symmetry c1  #important for SAPT in psi4, default
}

set PROPERTIES_ORIGIN ["COM"]
properties('MP2/aug-cc-pvtz', properties = ['dipole'])
--------------------------------------------------------------------------

    Molecular point group: c1
  Charge       = 0
  Multiplicity = 1
  Basis Set: AUG-CC-PVTZ
    Blend: AUG-CC-PVTZ
  Basis Set: (AUG-CC-PVTZ AUX)
    Blend: AUG-CC-PVTZ-JKFIT

    Orbital Energies [Eh]
    ---------------------

    Doubly Occupied:

       1A    -20.583774     2A    -11.300930     3A    -11.293010
       4A    -11.243102     5A    -11.240884     6A    -11.239321
       7A    -11.238857     8A    -11.237394     9A    -11.234608
      10A    -11.232861    11A    -11.232136    12A    -11.231457
      13A    -11.227598    14A    -11.227185    15A    -11.213507
      16A     -1.404732    17A     -1.158719    18A     -1.143664
      19A     -1.068332    20A     -1.017913    21A     -1.013135
      22A     -1.009336    23A     -0.968097    24A     -0.903526
      25A     -0.832780    26A     -0.831790    27A     -0.808977
      28A     -0.783231    29A     -0.721077    30A     -0.684538
      31A     -0.671034    32A     -0.663611    33A     -0.644378
      34A     -0.630820    35A     -0.623076    36A     -0.609671
      37A     -0.586689    38A     -0.583734    39A     -0.579953
      40A     -0.564597    41A     -0.552646    42A     -0.531880
      43A     -0.523379    44A     -0.514269    45A     -0.491066
      46A     -0.487248    47A     -0.484904    48A     -0.478604
      49A     -0.464074    50A     -0.339862    51A     -0.336481
      52A     -0.322037    53A     -0.312223

  @DF-RHF Final Energy:  -613.36562278644828

   => Energetics <=

    Nuclear Repulsion Energy =            871.2083197165435422
    One-Electron Energy =               -2560.5024778354313639
    Two-Electron Energy =                1075.9285353324396510
    Total Energy =                       -613.3656227864482844
  Basis Set: (AUG-CC-PVTZ AUX)
    Blend: AUG-CC-PVTZ-RI
    Molecular point group: c1

    Geometry (in Angstrom), charge = 0, multiplicity = 1:

       Center              X                  Y                   Z               Mass
    ------------   -----------------  -----------------  -----------------  -----------------
         O            0.828780615339    -0.235241357061    -0.195216180342    15.994914619570
         C           -1.390002384661     0.488202642939     0.168620819658    12.000000000000
         C            0.055580615339     0.863103642939     0.303095819658    12.000000000000
         C           -4.112780384661    -0.229543357061    -0.045558180342    12.000000000000
         C           -1.866028384661    -0.681447357061     0.774032819658    12.000000000000
         C           -2.281672384661     1.290750642939    -0.547025180342    12.000000000000
         C           -3.208887384661    -1.033499357061     0.664393819658    12.000000000000
         C           -3.628993384661     0.938141642939    -0.645656180342    12.000000000000
         C            2.195286615339    -0.125128357061    -0.101938180342    12.000000000000
         C           -5.572303384661    -0.595354357061    -0.123047180342    12.000000000000
         C            2.877319615339     0.996910642939     0.381035819658    12.000000000000
         C            2.910458615339    -1.247768357061    -0.541285180342    12.000000000000
         C            4.276460615339     0.980415642939     0.421030819658    12.000000000000
         C            4.300323615339    -1.247797357061    -0.496450180342    12.000000000000
         C            4.993331615339    -0.132289357061    -0.012834180342    12.000000000000
         H            0.273582615339     1.776156642939    -0.268225180342     1.007825032230
         H            0.318344615339     1.047048642939     1.355005819658     1.007825032230
         H           -1.174198384661    -1.322347357061     1.316617819658     1.007825032230
         H           -1.922290384661     2.194736642939    -1.036312180342     1.007825032230
         H           -3.563472384661    -1.950170357061     1.133531819658     1.007825032230
         H           -4.310097384661     1.572585642939    -1.210686180342     1.007825032230
         H           -5.997810884661    -0.198628157061    -0.928534280342     1.007825032230
         H           -5.704158384661    -1.680241357061    -0.168729180342     1.007825032230
         H           -6.117948384661    -0.232224357061     0.754813819658     1.007825032230
         H            2.345936615339     1.879502642939     0.720288819658     1.007825032230
         H            2.351186615339    -2.102317357061    -0.912372180342     1.007825032230
         H            4.803146615339     1.854503642939     0.797244819658     1.007825032230
         H            4.845790615339    -2.123764357061    -0.839586180342     1.007825032230
         H            6.079410615339    -0.133091357061     0.022665819658     1.007825032230

  Basis Set: AUG-CC-PVTZ
    Blend: AUG-CC-PVTZ
  Basis Set: (AUG-CC-PVTZ AUX)
    Blend: AUG-CC-PVTZ-JKFIT
	 Reference Energy          =    -613.3656227864482844 [Eh]
	 Singles Energy            =      -0.0000000000000000 [Eh]
	 Same-Spin Energy          =      -0.6726548511186722 [Eh]
	 Opposite-Spin Energy      =      -2.1159957378543144 [Eh]
	 Correlation Energy        =      -2.7886505889729865 [Eh]
	 Total Energy              =    -616.1542733754213259 [Eh]

	 ================> DF-SCS-MP2 Energies <==================
	-----------------------------------------------------------
	 SCS Same-Spin Scale       =       0.3333333333333333 [-]
	 SCS Opposite-Spin Scale   =       1.2000000000000000 [-]
	 SCS Same-Spin Energy      =      -0.2242182837062240 [Eh]
	 SCS Opposite-Spin Energy  =      -2.5391948854251774 [Eh]
	 SCS Correlation Energy    =      -2.7634131691314012 [Eh]
	 SCS Total Energy          =    -616.1290359555796385 [Eh]
	-----------------------------------------------------------

  Dipole Moment: [D]
     X:    -1.0452      Y:     0.7412      Z:     0.4421     Total:     1.3554

*** Psi4 exiting successfully. Buy a developer a beer!
