                               Psi4 1.4a3.dev225

  ==> Input File <==

--------------------------------------------------------------------------
#psi4
#
memory 32 gb

molecule  {
0 1
  O        0.8655410    -0.2383350    -0.1978900
  C       -1.3532420     0.4851090     0.1659470
  C        0.0923410     0.8600100     0.3004220
  C       -4.0760200    -0.2326370    -0.0482320
  C       -1.8292680    -0.6845410     0.7713590
  C       -2.2449120     1.2876570    -0.5496990
  C       -3.1399059    -1.0652517     0.6870277
  C       -3.5922330     0.9350480    -0.6483300
  C        2.2320470    -0.1282220    -0.1046120
  C       -5.5355430    -0.5984480    -0.1257210
  C        2.9140800     0.9938170     0.3783620
  C        2.9472190    -1.2508620    -0.5439590
  C        4.3132210     0.9773220     0.4183570
  C        4.3370840    -1.2508910    -0.4991240
  C        5.0300920    -0.1353830    -0.0155080
  H        0.3103430     1.7730630    -0.2708990
  H        0.3551050     1.0439550     1.3523320
  H       -1.1374380    -1.3254410     1.3139440
  H       -1.8855300     2.1916430    -1.0389860
  H       -3.5267120    -1.9532640     1.1308580
  H       -4.2733370     1.5694920    -1.2133600
  H       -6.0038750    -0.1617940    -1.0122750
  H       -5.6673980    -1.6833350    -0.1714030
  H       -6.0811880    -0.2353180     0.7521400
  H        2.3826970     1.8764090     0.7176150
  H        2.3879470    -2.1054110    -0.9150460
  H        4.8399070     1.8514100     0.7945710
  H        4.8825510    -2.1268580    -0.8422600
  H        6.1161710    -0.1361850     0.0199920
units angstrom
no_reorient  #important for SAPT in psi4, default
symmetry c1  #important for SAPT in psi4, default
}

set PROPERTIES_ORIGIN ["COM"]
properties('MP2/aug-cc-pvtz', properties = ['dipole'])
--------------------------------------------------------------------------

    Molecular point group: c1
  Charge       = 0
  Multiplicity = 1
  Basis Set: AUG-CC-PVTZ
    Blend: AUG-CC-PVTZ
  Basis Set: (AUG-CC-PVTZ AUX)
    Blend: AUG-CC-PVTZ-JKFIT

    Orbital Energies [Eh]
    ---------------------

    Doubly Occupied:

       1A    -20.583618     2A    -11.300864     3A    -11.293144
       4A    -11.249123     5A    -11.240825     6A    -11.239255
       7A    -11.239086     8A    -11.237812     9A    -11.233292
      10A    -11.232793    11A    -11.231819    12A    -11.231438
      13A    -11.227520    14A    -11.227115    15A    -11.226523
      16A     -1.404625    17A     -1.156959    18A     -1.143141
      19A     -1.063945    20A     -1.017811    21A     -1.016708
      22A     -1.008543    23A     -0.964455    24A     -0.897535
      25A     -0.832790    26A     -0.829278    27A     -0.809098
      28A     -0.782808    29A     -0.721083    30A     -0.684972
      31A     -0.670322    32A     -0.663519    33A     -0.643322
      34A     -0.633353    35A     -0.618803    36A     -0.609988
      37A     -0.586832    38A     -0.586355    39A     -0.576419
      40A     -0.562936    41A     -0.545024    42A     -0.531081
      43A     -0.522859    44A     -0.513802    45A     -0.494078
      46A     -0.485734    47A     -0.480172    48A     -0.479496
      49A     -0.463426    50A     -0.340591    51A     -0.339763
      52A     -0.317506    53A     -0.312159

  @DF-RHF Final Energy:  -613.36865396722396

   => Energetics <=

    Nuclear Repulsion Energy =            870.3570348980906601
    One-Electron Energy =               -2558.8403444543660044
    Two-Electron Energy =                1075.1146555890513810
    Total Energy =                       -613.3686539672239633
  Basis Set: (AUG-CC-PVTZ AUX)
    Blend: AUG-CC-PVTZ-RI
    Molecular point group: c1

    Geometry (in Angstrom), charge = 0, multiplicity = 1:

       Center              X                  Y                   Z               Mass
    ------------   -----------------  -----------------  -----------------  -----------------
         O            0.827046714002    -0.233708508402    -0.196336756543    15.994914619570
         C           -1.391736285998     0.489735491598     0.167500243457    12.000000000000
         C            0.053846714002     0.864636491598     0.301975243457    12.000000000000
         C           -4.114514285998    -0.228010508402    -0.046678756543    12.000000000000
         C           -1.867762285998    -0.679914508402     0.772912243457    12.000000000000
         C           -2.283406285998     1.292283491598    -0.548145756543    12.000000000000
         C           -3.178400185998    -1.060625208402     0.688580943457    12.000000000000
         C           -3.630727285998     0.939674491598    -0.646776756543    12.000000000000
         C            2.193552714002    -0.123595508402    -0.103058756543    12.000000000000
         C           -5.574037285998    -0.593821508402    -0.124167756543    12.000000000000
         C            2.875585714002     0.998443491598     0.379915243457    12.000000000000
         C            2.908724714002    -1.246235508402    -0.542405756543    12.000000000000
         C            4.274726714002     0.981948491598     0.419910243457    12.000000000000
         C            4.298589714002    -1.246264508402    -0.497570756543    12.000000000000
         C            4.991597714002    -0.130756508402    -0.013954756543    12.000000000000
         H            0.271848714002     1.777689491598    -0.269345756543     1.007825032230
         H            0.316610714002     1.048581491598     1.353885243457     1.007825032230
         H           -1.175932285998    -1.320814508402     1.315497243457     1.007825032230
         H           -1.924024285998     2.196269491598    -1.037432756543     1.007825032230
         H           -3.565206285998    -1.948637508402     1.132411243457     1.007825032230
         H           -4.311831285998     1.574118491598    -1.211806756543     1.007825032230
         H           -6.042369285998    -0.157167508402    -1.010721756543     1.007825032230
         H           -5.705892285998    -1.678708508402    -0.169849756543     1.007825032230
         H           -6.119682285998    -0.230691508402     0.753693243457     1.007825032230
         H            2.344202714002     1.881035491598     0.719168243457     1.007825032230
         H            2.349452714002    -2.100784508402    -0.913492756543     1.007825032230
         H            4.801412714002     1.856036491598     0.796124243457     1.007825032230
         H            4.844056714002    -2.122231508402    -0.840706756543     1.007825032230
         H            6.077676714002    -0.131558508402     0.021545243457     1.007825032230

  Basis Set: AUG-CC-PVTZ
    Blend: AUG-CC-PVTZ
  Basis Set: (AUG-CC-PVTZ AUX)
    Blend: AUG-CC-PVTZ-JKFIT
	 Reference Energy          =    -613.3686539672239633 [Eh]
	 Singles Energy            =      -0.0000000000000000 [Eh]
	 Same-Spin Energy          =      -0.6724624107052569 [Eh]
	 Opposite-Spin Energy      =      -2.1166414413710819 [Eh]
	 Correlation Energy        =      -2.7891038520763387 [Eh]
	 Total Energy              =    -616.1577578193002864 [Eh]

	 ================> DF-SCS-MP2 Energies <==================
	-----------------------------------------------------------
	 SCS Same-Spin Scale       =       0.3333333333333333 [-]
	 SCS Opposite-Spin Scale   =       1.2000000000000000 [-]
	 SCS Same-Spin Energy      =      -0.2241541369017523 [Eh]
	 SCS Opposite-Spin Energy  =      -2.5399697296452981 [Eh]
	 SCS Correlation Energy    =      -2.7641238665470502 [Eh]
	 SCS Total Energy          =    -616.1327778337710015 [Eh]
	-----------------------------------------------------------

  Dipole Moment: [D]
     X:    -1.0385      Y:     0.7204      Z:     0.4725     Total:     1.3494

*** Psi4 exiting successfully. Buy a developer a beer!
