                               Psi4 1.4a3.dev225

  ==> Input File <==

--------------------------------------------------------------------------
#psi4
#
memory 32 gb

molecule  {
0 1
  O        0.8655410    -0.2383350    -0.1978900
  C       -1.3532420     0.4851090     0.1659470
  C        0.0923410     0.8600100     0.3004220
  C       -4.0539009    -0.3354096    -0.0510410
  C       -1.8292680    -0.6845410     0.7713590
  C       -2.2449120     1.2876570    -0.5496990
  C       -3.1721270    -1.0365930     0.6617200
  C       -3.5922330     0.9350480    -0.6483300
  C        2.2320470    -0.1282220    -0.1046120
  C       -5.5355430    -0.5984480    -0.1257210
  C        2.9140800     0.9938170     0.3783620
  C        2.9472190    -1.2508620    -0.5439590
  C        4.3132210     0.9773220     0.4183570
  C        4.3370840    -1.2508910    -0.4991240
  C        5.0300920    -0.1353830    -0.0155080
  H        0.3103430     1.7730630    -0.2708990
  H        0.3551050     1.0439550     1.3523320
  H       -1.1374380    -1.3254410     1.3139440
  H       -1.8855300     2.1916430    -1.0389860
  H       -3.5267120    -1.9532640     1.1308580
  H       -4.2733370     1.5694920    -1.2133600
  H       -6.0038750    -0.1617940    -1.0122750
  H       -5.6673980    -1.6833350    -0.1714030
  H       -6.0811880    -0.2353180     0.7521400
  H        2.3826970     1.8764090     0.7176150
  H        2.3879470    -2.1054110    -0.9150460
  H        4.8399070     1.8514100     0.7945710
  H        4.8825510    -2.1268580    -0.8422600
  H        6.1161710    -0.1361850     0.0199920
units angstrom
no_reorient  #important for SAPT in psi4, default
symmetry c1  #important for SAPT in psi4, default
}

set PROPERTIES_ORIGIN ["COM"]
properties('MP2/aug-cc-pvtz', properties = ['dipole'])
--------------------------------------------------------------------------

    Molecular point group: c1
  Charge       = 0
  Multiplicity = 1
  Basis Set: AUG-CC-PVTZ
    Blend: AUG-CC-PVTZ
  Basis Set: (AUG-CC-PVTZ AUX)
    Blend: AUG-CC-PVTZ-JKFIT

    Orbital Energies [Eh]
    ---------------------

    Doubly Occupied:

       1A    -20.583999     2A    -11.301029     3A    -11.293334
       4A    -11.243454     5A    -11.241005     6A    -11.239993
       7A    -11.239441     8A    -11.239274     9A    -11.236967
      10A    -11.235254    11A    -11.232997    12A    -11.227727
      13A    -11.227302    14A    -11.226108    15A    -11.224405
      16A     -1.404921    17A     -1.159108    18A     -1.143826
      19A     -1.068537    20A     -1.018053    21A     -1.013449
      22A     -1.007184    23A     -0.963980    24A     -0.900999
      25A     -0.835464    26A     -0.829802    27A     -0.806691
      28A     -0.782065    29A     -0.721238    30A     -0.684367
      31A     -0.670064    32A     -0.663763    33A     -0.643783
      34A     -0.630873    35A     -0.619734    36A     -0.609697
      37A     -0.587238    38A     -0.584664    39A     -0.577283
      40A     -0.563272    41A     -0.544139    42A     -0.533978
      43A     -0.520212    44A     -0.515232    45A     -0.496507
      46A     -0.488228    47A     -0.481473    48A     -0.469439
      49A     -0.463828    50A     -0.343472    51A     -0.339752
      52A     -0.317077    53A     -0.312148

  @DF-RHF Final Energy:  -613.36060333588478

   => Energetics <=

    Nuclear Repulsion Energy =            870.7370389266460506
    One-Electron Energy =               -2559.5796187302898943
    Two-Electron Energy =                1075.4819764677590683
    Total Energy =                       -613.3606033358846616
  Basis Set: (AUG-CC-PVTZ AUX)
    Blend: AUG-CC-PVTZ-RI
    Molecular point group: c1

    Geometry (in Angstrom), charge = 0, multiplicity = 1:

       Center              X                  Y                   Z               Mass
    ------------   -----------------  -----------------  -----------------  -----------------
         O            0.827658633577    -0.229219125491    -0.194633612700    15.994914619570
         C           -1.391124366423     0.494224874509     0.169203387300    12.000000000000
         C            0.054458633577     0.869125874509     0.303678387300    12.000000000000
         C           -4.091783266423    -0.326293725491    -0.047784612700    12.000000000000
         C           -1.867150366423    -0.675425125491     0.774615387300    12.000000000000
         C           -2.282794366423     1.296772874509    -0.546442612700    12.000000000000
         C           -3.210009366423    -1.027477125491     0.664976387300    12.000000000000
         C           -3.630115366423     0.944163874509    -0.645073612700    12.000000000000
         C            2.194164633577    -0.119106125491    -0.101355612700    12.000000000000
         C           -5.573425366423    -0.589332125491    -0.122464612700    12.000000000000
         C            2.876197633577     1.002932874509     0.381618387300    12.000000000000
         C            2.909336633577    -1.241746125491    -0.540702612700    12.000000000000
         C            4.275338633577     0.986437874509     0.421613387300    12.000000000000
         C            4.299201633577    -1.241775125491    -0.495867612700    12.000000000000
         C            4.992209633577    -0.126267125491    -0.012251612700    12.000000000000
         H            0.272460633577     1.782178874509    -0.267642612700     1.007825032230
         H            0.317222633577     1.053070874509     1.355588387300     1.007825032230
         H           -1.175320366423    -1.316325125491     1.317200387300     1.007825032230
         H           -1.923412366423     2.200758874509    -1.035729612700     1.007825032230
         H           -3.564594366423    -1.944148125491     1.134114387300     1.007825032230
         H           -4.311219366423     1.578607874509    -1.210103612700     1.007825032230
         H           -6.041757366423    -0.152678125491    -1.009018612700     1.007825032230
         H           -5.705280366423    -1.674219125491    -0.168146612700     1.007825032230
         H           -6.119070366423    -0.226202125491     0.755396387300     1.007825032230
         H            2.344814633577     1.885524874509     0.720871387300     1.007825032230
         H            2.350064633577    -2.096295125491    -0.911789612700     1.007825032230
         H            4.802024633577     1.860525874509     0.797827387300     1.007825032230
         H            4.844668633577    -2.117742125491    -0.839003612700     1.007825032230
         H            6.078288633577    -0.127069125491     0.023248387300     1.007825032230

  Basis Set: AUG-CC-PVTZ
    Blend: AUG-CC-PVTZ
  Basis Set: (AUG-CC-PVTZ AUX)
    Blend: AUG-CC-PVTZ-JKFIT
	 Reference Energy          =    -613.3606033358847753 [Eh]
	 Singles Energy            =      -0.0000000000000000 [Eh]
	 Same-Spin Energy          =      -0.6727417210173209 [Eh]
	 Opposite-Spin Energy      =      -2.1173145737790331 [Eh]
	 Correlation Energy        =      -2.7900562947963539 [Eh]
	 Total Energy              =    -616.1506596306811616 [Eh]

	 ================> DF-SCS-MP2 Energies <==================
	-----------------------------------------------------------
	 SCS Same-Spin Scale       =       0.3333333333333333 [-]
	 SCS Opposite-Spin Scale   =       1.2000000000000000 [-]
	 SCS Same-Spin Energy      =      -0.2242472403391070 [Eh]
	 SCS Opposite-Spin Energy  =      -2.5407774885348395 [Eh]
	 SCS Correlation Energy    =      -2.7650247288739465 [Eh]
	 SCS Total Energy          =    -616.1256280647587573 [Eh]
	-----------------------------------------------------------

  Dipole Moment: [D]
     X:    -0.9858      Y:     0.7729      Z:     0.4807     Total:     1.3417

*** Psi4 exiting successfully. Buy a developer a beer!
