                               Psi4 1.4a3.dev225

  ==> Input File <==

--------------------------------------------------------------------------
#psi4
#
memory 32 gb

molecule  {
0 1
  O        0.8655410    -0.2383350    -0.1978900
  C       -1.3532420     0.4851090     0.1659470
  C        0.0923410     0.8600100     0.3004220
  C       -4.0760200    -0.2326370    -0.0482320
  C       -1.8292680    -0.6845410     0.7713590
  C       -2.2449120     1.2876570    -0.5496990
  C       -3.1721270    -1.0365930     0.6617200
  C       -3.5922330     0.9350480    -0.6483300
  C        2.2320470    -0.1282220    -0.1046120
  C       -5.5355430    -0.5984480    -0.1257210
  C        2.9140800     0.9938170     0.3783620
  C        2.9472190    -1.2508620    -0.5439590
  C        4.3132210     0.9773220     0.4183570
  C        4.3370840    -1.2508910    -0.4991240
  C        5.0300920    -0.1353830    -0.0155080
  H        0.3103430     1.7730630    -0.2708990
  H        0.3551050     1.0439550     1.3523320
  H       -1.1374380    -1.3254410     1.3139440
  H       -1.8855300     2.1916430    -1.0389860
  H       -3.5267120    -1.9532640     1.1308580
  H       -4.2733370     1.5694920    -1.2133600
  H       -6.0038750    -0.1617940    -1.0122750
  H       -5.6673980    -1.6833350    -0.1714030
  H       -6.0562852    -0.2518909     0.7120752
  H        2.3826970     1.8764090     0.7176150
  H        2.3879470    -2.1054110    -0.9150460
  H        4.8399070     1.8514100     0.7945710
  H        4.8825510    -2.1268580    -0.8422600
  H        6.1161710    -0.1361850     0.0199920
units angstrom
no_reorient  #important for SAPT in psi4, default
symmetry c1  #important for SAPT in psi4, default
}

set PROPERTIES_ORIGIN ["COM"]
properties('MP2/aug-cc-pvtz', properties = ['dipole'])
--------------------------------------------------------------------------

    Molecular point group: c1
  Charge       = 0
  Multiplicity = 1
  Basis Set: AUG-CC-PVTZ
    Blend: AUG-CC-PVTZ
  Basis Set: (AUG-CC-PVTZ AUX)
    Blend: AUG-CC-PVTZ-JKFIT

    Orbital Energies [Eh]
    ---------------------

    Doubly Occupied:

       1A    -20.583824     2A    -11.300964     3A    -11.293079
       4A    -11.243525     5A    -11.240916     6A    -11.239351
       7A    -11.238941     8A    -11.237415     9A    -11.234840
      10A    -11.232896    11A    -11.232046    12A    -11.231913
      13A    -11.227630    14A    -11.227214    15A    -11.219776
      16A     -1.404784    17A     -1.158759    18A     -1.143686
      19A     -1.067563    20A     -1.017793    21A     -1.013286
      22A     -1.008699    23A     -0.965894    24A     -0.901429
      25A     -0.832893    26A     -0.831428    27A     -0.808999
      28A     -0.782724    29A     -0.721092    30A     -0.684260
      31A     -0.670409    32A     -0.663623    33A     -0.644043
      34A     -0.630936    35A     -0.620353    36A     -0.609383
      37A     -0.587282    38A     -0.585055    39A     -0.583400
      40A     -0.563838    41A     -0.543007    42A     -0.531956
      43A     -0.522701    44A     -0.513963    45A     -0.491770
      46A     -0.486426    47A     -0.485279    48A     -0.478897
      49A     -0.464243    50A     -0.339899    51A     -0.336623
      52A     -0.322461    53A     -0.312262

  @DF-RHF Final Energy:  -613.37061977362816

   => Energetics <=

    Nuclear Repulsion Energy =            870.9727032683147172
    One-Electron Energy =               -2560.0557853555583279
    Two-Electron Energy =                1075.7124623136155606
    Total Energy =                       -613.3706197736280501
  Basis Set: (AUG-CC-PVTZ AUX)
    Blend: AUG-CC-PVTZ-RI
    Molecular point group: c1

    Geometry (in Angstrom), charge = 0, multiplicity = 1:

       Center              X                  Y                   Z               Mass
    ------------   -----------------  -----------------  -----------------  -----------------
         O            0.828871789144    -0.235360171409    -0.194599942038    15.994914619570
         C           -1.389911210856     0.488083828591     0.169237057962    12.000000000000
         C            0.055671789144     0.862984828591     0.303712057962    12.000000000000
         C           -4.112689210856    -0.229662171409    -0.044941942038    12.000000000000
         C           -1.865937210856    -0.681566171409     0.774649057962    12.000000000000
         C           -2.281581210856     1.290631828591    -0.546408942038    12.000000000000
         C           -3.208796210856    -1.033618171409     0.665010057962    12.000000000000
         C           -3.628902210856     0.938022828591    -0.645039942038    12.000000000000
         C            2.195377789144    -0.125247171409    -0.101321942038    12.000000000000
         C           -5.572212210856    -0.595473171409    -0.122430942038    12.000000000000
         C            2.877410789144     0.996791828591     0.381652057962    12.000000000000
         C            2.910549789144    -1.247887171409    -0.540668942038    12.000000000000
         C            4.276551789144     0.980296828591     0.421647057962    12.000000000000
         C            4.300414789144    -1.247916171409    -0.495833942038    12.000000000000
         C            4.993422789144    -0.132408171409    -0.012217942038    12.000000000000
         H            0.273673789144     1.776037828591    -0.267608942038     1.007825032230
         H            0.318435789144     1.046929828591     1.355622057962     1.007825032230
         H           -1.174107210856    -1.322466171409     1.317234057962     1.007825032230
         H           -1.922199210856     2.194617828591    -1.035695942038     1.007825032230
         H           -3.563381210856    -1.950289171409     1.134148057962     1.007825032230
         H           -4.310006210856     1.572466828591    -1.210069942038     1.007825032230
         H           -6.040544210856    -0.158819171409    -1.008984942038     1.007825032230
         H           -5.704067210856    -1.680360171409    -0.168112942038     1.007825032230
         H           -6.092954410856    -0.248916071409     0.715365257962     1.007825032230
         H            2.346027789144     1.879383828591     0.720905057962     1.007825032230
         H            2.351277789144    -2.102436171409    -0.911755942038     1.007825032230
         H            4.803237789144     1.854384828591     0.797861057962     1.007825032230
         H            4.845881789144    -2.123883171409    -0.838969942038     1.007825032230
         H            6.079501789144    -0.133210171409     0.023282057962     1.007825032230

  Basis Set: AUG-CC-PVTZ
    Blend: AUG-CC-PVTZ
  Basis Set: (AUG-CC-PVTZ AUX)
    Blend: AUG-CC-PVTZ-JKFIT
	 Reference Energy          =    -613.3706197736281638 [Eh]
	 Singles Energy            =      -0.0000000000000000 [Eh]
	 Same-Spin Energy          =      -0.6726662087187580 [Eh]
	 Opposite-Spin Energy      =      -2.1162582507680434 [Eh]
	 Correlation Energy        =      -2.7889244594868012 [Eh]
	 Total Energy              =    -616.1595442331149570 [Eh]

	 ================> DF-SCS-MP2 Energies <==================
	-----------------------------------------------------------
	 SCS Same-Spin Scale       =       0.3333333333333333 [-]
	 SCS Opposite-Spin Scale   =       1.2000000000000000 [-]
	 SCS Same-Spin Energy      =      -0.2242220695729193 [Eh]
	 SCS Opposite-Spin Energy  =      -2.5395099009216522 [Eh]
	 SCS Correlation Energy    =      -2.7637319704945713 [Eh]
	 SCS Total Energy          =    -616.1343517441226822 [Eh]
	-----------------------------------------------------------

  Dipole Moment: [D]
     X:    -1.0253      Y:     0.7340      Z:     0.4836     Total:     1.3505

*** Psi4 exiting successfully. Buy a developer a beer!
