                               Psi4 1.4a3.dev225

  ==> Input File <==

--------------------------------------------------------------------------
#psi4
#
memory 32 gb

molecule  {
0 1
  O        0.8655410    -0.2383350    -0.1978900
  C       -1.3532420     0.4851090     0.1659470
  C        0.0923410     0.8600100     0.3004220
  C       -4.0760200    -0.2326370    -0.0482320
  C       -1.8292680    -0.6845410     0.7713590
  C       -2.2449120     1.2876570    -0.5496990
  C       -3.1721270    -1.0365930     0.6617200
  C       -3.5922330     0.9350480    -0.6483300
  C        2.2320470    -0.1282220    -0.1046120
  C       -5.5355430    -0.5984480    -0.1257210
  C        2.9140800     0.9938170     0.3783620
  C        2.9472190    -1.2508620    -0.5439590
  C        4.3132210     0.9773220     0.4183570
  C        4.3370840    -1.2508910    -0.4991240
  C        5.0300920    -0.1353830    -0.0155080
  H        0.3103430     1.7730630    -0.2708990
  H        0.3551050     1.0439550     1.3523320
  H       -1.1374380    -1.3254410     1.3139440
  H       -1.8855300     2.1916430    -1.0389860
  H       -3.5267120    -1.9532640     1.1308580
  H       -4.2733370     1.5694920    -1.2133600
  H       -6.0038750    -0.1617940    -1.0122750
  H       -5.6673980    -1.6833350    -0.1714030
  H       -6.0811880    -0.2353180     0.7521400
  H        2.3826970     1.8764090     0.7176150
  H        2.3879470    -2.1054110    -0.9150460
  H        4.8302221     1.8353369     0.7876530
  H        4.8825510    -2.1268580    -0.8422600
  H        6.1161710    -0.1361850     0.0199920
units angstrom
no_reorient  #important for SAPT in psi4, default
symmetry c1  #important for SAPT in psi4, default
}

set PROPERTIES_ORIGIN ["COM"]
properties('MP2/aug-cc-pvtz', properties = ['dipole'])
--------------------------------------------------------------------------

    Molecular point group: c1
  Charge       = 0
  Multiplicity = 1
  Basis Set: AUG-CC-PVTZ
    Blend: AUG-CC-PVTZ
  Basis Set: (AUG-CC-PVTZ AUX)
    Blend: AUG-CC-PVTZ-JKFIT

    Orbital Energies [Eh]
    ---------------------

    Doubly Occupied:

       1A    -20.583815     2A    -11.300892     3A    -11.293135
       4A    -11.243819     5A    -11.239262     6A    -11.239084
       7A    -11.238611     8A    -11.237529     9A    -11.234938
      10A    -11.232754    11A    -11.232243    12A    -11.232080
      13A    -11.227611    14A    -11.227078    15A    -11.225854
      16A     -1.404783    17A     -1.158813    18A     -1.143755
      19A     -1.067020    20A     -1.018234    21A     -1.013383
      22A     -1.008229    23A     -0.964103    24A     -0.899540
      25A     -0.833451    26A     -0.831934    27A     -0.809161
      28A     -0.782388    29A     -0.722020    30A     -0.683904
      31A     -0.670491    32A     -0.663697    33A     -0.643971
      34A     -0.631397    35A     -0.620569    36A     -0.610240
      37A     -0.588038    38A     -0.583533    39A     -0.576972
      40A     -0.563917    41A     -0.543302    42A     -0.531919
      43A     -0.522810    44A     -0.514066    45A     -0.491633
      46A     -0.486584    47A     -0.485045    48A     -0.479132
      49A     -0.464131    50A     -0.339842    51A     -0.336731
      52A     -0.322221    53A     -0.312215

  @DF-RHF Final Energy:  -613.37172139566087

   => Energetics <=

    Nuclear Repulsion Energy =            870.8506237980157039
    One-Electron Energy =               -2559.8209355964945644
    Two-Electron Energy =                1075.5985904028179903
    Total Energy =                       -613.3717213956608703
  Basis Set: (AUG-CC-PVTZ AUX)
    Blend: AUG-CC-PVTZ-RI
    Molecular point group: c1

    Geometry (in Angstrom), charge = 0, multiplicity = 1:

       Center              X                  Y                   Z               Mass
    ------------   -----------------  -----------------  -----------------  -----------------
         O            0.829047748580    -0.235362714062    -0.194768571124    15.994914619570
         C           -1.389735251420     0.488081285938     0.169068428876    12.000000000000
         C            0.055847748580     0.862982285938     0.303543428876    12.000000000000
         C           -4.112513251420    -0.229664714062    -0.045110571124    12.000000000000
         C           -1.865761251420    -0.681568714062     0.774480428876    12.000000000000
         C           -2.281405251420     1.290629285938    -0.546577571124    12.000000000000
         C           -3.208620251420    -1.033620714062     0.664841428876    12.000000000000
         C           -3.628726251420     0.938020285938    -0.645208571124    12.000000000000
         C            2.195553748580    -0.125249714062    -0.101490571124    12.000000000000
         C           -5.572036251420    -0.595475714062    -0.122599571124    12.000000000000
         C            2.877586748580     0.996789285938     0.381483428876    12.000000000000
         C            2.910725748580    -1.247889714062    -0.540837571124    12.000000000000
         C            4.276727748580     0.980294285938     0.421478428876    12.000000000000
         C            4.300590748580    -1.247918714062    -0.496002571124    12.000000000000
         C            4.993598748580    -0.132410714062    -0.012386571124    12.000000000000
         H            0.273849748580     1.776035285938    -0.267777571124     1.007825032230
         H            0.318611748580     1.046927285938     1.355453428876     1.007825032230
         H           -1.173931251420    -1.322468714062     1.317065428876     1.007825032230
         H           -1.922023251420     2.194615285938    -1.035864571124     1.007825032230
         H           -3.563205251420    -1.950291714062     1.133979428876     1.007825032230
         H           -4.309830251420     1.572464285938    -1.210238571124     1.007825032230
         H           -6.040368251420    -0.158821714062    -1.009153571124     1.007825032230
         H           -5.703891251420    -1.680362714062    -0.168281571124     1.007825032230
         H           -6.117681251420    -0.232345714062     0.755261428876     1.007825032230
         H            2.346203748580     1.879381285938     0.720736428876     1.007825032230
         H            2.351453748580    -2.102438714062    -0.911924571124     1.007825032230
         H            4.793728848580     1.838309185938     0.790774428876     1.007825032230
         H            4.846057748580    -2.123885714062    -0.839138571124     1.007825032230
         H            6.079677748580    -0.133212714062     0.023113428876     1.007825032230

  Basis Set: AUG-CC-PVTZ
    Blend: AUG-CC-PVTZ
  Basis Set: (AUG-CC-PVTZ AUX)
    Blend: AUG-CC-PVTZ-JKFIT
	 Reference Energy          =    -613.3717213956608703 [Eh]
	 Singles Energy            =      -0.0000000000000000 [Eh]
	 Same-Spin Energy          =      -0.6726182066010749 [Eh]
	 Opposite-Spin Energy      =      -2.1163841348915762 [Eh]
	 Correlation Energy        =      -2.7890023414926510 [Eh]
	 Total Energy              =    -616.1607237371534893 [Eh]

	 ================> DF-SCS-MP2 Energies <==================
	-----------------------------------------------------------
	 SCS Same-Spin Scale       =       0.3333333333333333 [-]
	 SCS Opposite-Spin Scale   =       1.2000000000000000 [-]
	 SCS Same-Spin Energy      =      -0.2242060688670249 [Eh]
	 SCS Opposite-Spin Energy  =      -2.5396609618698913 [Eh]
	 SCS Correlation Energy    =      -2.7638670307369164 [Eh]
	 SCS Total Energy          =    -616.1355884263978169 [Eh]
	-----------------------------------------------------------

  Dipole Moment: [D]
     X:    -0.9970      Y:     0.7378      Z:     0.4740     Total:     1.3278

*** Psi4 exiting successfully. Buy a developer a beer!
