                               Psi4 1.4a3.dev225

  ==> Input File <==

--------------------------------------------------------------------------
#psi4
#
memory 32 gb

molecule  {
0 1
  O        0.8655410    -0.2383350    -0.1978900
  C       -1.3532420     0.4851090     0.1659470
  C        0.0923410     0.8600100     0.3004220
  C       -4.0760200    -0.2326370    -0.0482320
  C       -1.8292680    -0.6845410     0.7713590
  C       -2.2449120     1.2876570    -0.5496990
  C       -3.1721270    -1.0365930     0.6617200
  C       -3.5922330     0.9350480    -0.6483300
  C        2.2320470    -0.1282220    -0.1046120
  C       -5.5355430    -0.5984480    -0.1257210
  C        2.9140800     0.9938170     0.3783620
  C        2.9472190    -1.2508620    -0.5439590
  C        4.3132210     0.9773220     0.4183570
  C        4.3370840    -1.2508910    -0.4991240
  C        5.0300920    -0.1353830    -0.0155080
  H        0.3103430     1.7730630    -0.2708990
  H        0.3551050     1.0439550     1.3523320
  H       -1.1374380    -1.3254410     1.3139440
  H       -1.8855300     2.1916430    -1.0389860
  H       -3.5267120    -1.9532640     1.1308580
  H       -4.2733370     1.5694920    -1.2133600
  H       -6.0038750    -0.1617940    -1.0122750
  H       -5.6673980    -1.6833350    -0.1714030
  H       -6.0811880    -0.2353180     0.7521400
  H        2.3826970     1.8764090     0.7176150
  H        2.3364781    -2.1840538    -0.9491966
  H        4.8399070     1.8514100     0.7945710
  H        4.8825510    -2.1268580    -0.8422600
  H        6.1161710    -0.1361850     0.0199920
units angstrom
no_reorient  #important for SAPT in psi4, default
symmetry c1  #important for SAPT in psi4, default
}

set PROPERTIES_ORIGIN ["COM"]
properties('MP2/aug-cc-pvtz', properties = ['dipole'])
--------------------------------------------------------------------------

    Molecular point group: c1
  Charge       = 0
  Multiplicity = 1
  Basis Set: AUG-CC-PVTZ
    Blend: AUG-CC-PVTZ
  Basis Set: (AUG-CC-PVTZ AUX)
    Blend: AUG-CC-PVTZ-JKFIT

    Orbital Energies [Eh]
    ---------------------

    Doubly Occupied:

       1A    -20.583901     2A    -11.302065     3A    -11.293157
       4A    -11.243811     5A    -11.241353     6A    -11.240468
       7A    -11.239086     8A    -11.238451     9A    -11.237527
      10A    -11.234919    11A    -11.233689    12A    -11.232230
      13A    -11.232061    14A    -11.227973    15A    -11.225842
      16A     -1.404836    17A     -1.158807    18A     -1.143920
      19A     -1.067000    20A     -1.015786    21A     -1.013416
      22A     -1.008617    23A     -0.963774    24A     -0.899550
      25A     -0.832591    26A     -0.828285    27A     -0.808507
      28A     -0.782289    29A     -0.719343    30A     -0.684006
      31A     -0.670155    32A     -0.658105    33A     -0.643986
      34A     -0.630838    35A     -0.620288    36A     -0.608739
      37A     -0.583523    38A     -0.580084    39A     -0.576755
      40A     -0.562385    41A     -0.543368    42A     -0.528904
      43A     -0.522750    44A     -0.513765    45A     -0.489554
      46A     -0.486619    47A     -0.485145    48A     -0.477492
      49A     -0.464441    50A     -0.340481    51A     -0.336717
      52A     -0.322224    53A     -0.312847

  @DF-RHF Final Energy:  -613.36414177551649

   => Energetics <=

    Nuclear Repulsion Energy =            870.2763715079875055
    One-Electron Energy =               -2558.6881758791014363
    Two-Electron Energy =                1075.0476625955973304
    Total Energy =                       -613.3641417755166003
  Basis Set: (AUG-CC-PVTZ AUX)
    Blend: AUG-CC-PVTZ-RI
    Molecular point group: c1

    Geometry (in Angstrom), charge = 0, multiplicity = 1:

       Center              X                  Y                   Z               Mass
    ------------   -----------------  -----------------  -----------------  -----------------
         O            0.829260318050    -0.235044400641    -0.194630029592    15.994914619570
         C           -1.389522681950     0.488399599359     0.169206970408    12.000000000000
         C            0.056060318050     0.863300599359     0.303681970408    12.000000000000
         C           -4.112300681950    -0.229346400641    -0.044972029592    12.000000000000
         C           -1.865548681950    -0.681250400641     0.774618970408    12.000000000000
         C           -2.281192681950     1.290947599359    -0.546439029592    12.000000000000
         C           -3.208407681950    -1.033302400641     0.664979970408    12.000000000000
         C           -3.628513681950     0.938338599359    -0.645070029592    12.000000000000
         C            2.195766318050    -0.124931400641    -0.101352029592    12.000000000000
         C           -5.571823681950    -0.595157400641    -0.122461029592    12.000000000000
         C            2.877799318050     0.997107599359     0.381621970408    12.000000000000
         C            2.910938318050    -1.247571400641    -0.540699029592    12.000000000000
         C            4.276940318050     0.980612599359     0.421616970408    12.000000000000
         C            4.300803318050    -1.247600400641    -0.495864029592    12.000000000000
         C            4.993811318050    -0.132092400641    -0.012248029592    12.000000000000
         H            0.274062318050     1.776353599359    -0.267639029592     1.007825032230
         H            0.318824318050     1.047245599359     1.355591970408     1.007825032230
         H           -1.173718681950    -1.322150400641     1.317203970408     1.007825032230
         H           -1.921810681950     2.194933599359    -1.035726029592     1.007825032230
         H           -3.562992681950    -1.949973400641     1.134117970408     1.007825032230
         H           -4.309617681950     1.572782599359    -1.210100029592     1.007825032230
         H           -6.040155681950    -0.158503400641    -1.009015029592     1.007825032230
         H           -5.703678681950    -1.680044400641    -0.168143029592     1.007825032230
         H           -6.117468681950    -0.232027400641     0.755399970408     1.007825032230
         H            2.346416318050     1.879699599359     0.720874970408     1.007825032230
         H            2.300197418050    -2.180763200641    -0.945936629592     1.007825032230
         H            4.803626318050     1.854700599359     0.797830970408     1.007825032230
         H            4.846270318050    -2.123567400641    -0.839000029592     1.007825032230
         H            6.079890318050    -0.132894400641     0.023251970408     1.007825032230

  Basis Set: AUG-CC-PVTZ
    Blend: AUG-CC-PVTZ
  Basis Set: (AUG-CC-PVTZ AUX)
    Blend: AUG-CC-PVTZ-JKFIT
	 Reference Energy          =    -613.3641417755164866 [Eh]
	 Singles Energy            =      -0.0000000000000000 [Eh]
	 Same-Spin Energy          =      -0.6729174476065590 [Eh]
	 Opposite-Spin Energy      =      -2.1174788021867386 [Eh]
	 Correlation Energy        =      -2.7903962497932975 [Eh]
	 Total Energy              =    -616.1545380253097619 [Eh]

	 ================> DF-SCS-MP2 Energies <==================
	-----------------------------------------------------------
	 SCS Same-Spin Scale       =       0.3333333333333333 [-]
	 SCS Opposite-Spin Scale   =       1.2000000000000000 [-]
	 SCS Same-Spin Energy      =      -0.2243058158688530 [Eh]
	 SCS Opposite-Spin Energy  =      -2.5409745626240863 [Eh]
	 SCS Correlation Energy    =      -2.7652803784929394 [Eh]
	 SCS Total Energy          =    -616.1294221540093758 [Eh]
	-----------------------------------------------------------

  Dipole Moment: [D]
     X:    -0.9905      Y:     0.7489      Z:     0.4787     Total:     1.3308

*** Psi4 exiting successfully. Buy a developer a beer!
