                               Psi4 1.4a3.dev225

  ==> Input File <==

--------------------------------------------------------------------------
#psi4
#
memory 32 gb

molecule  {
0 1
  O        0.8655410    -0.2383350    -0.1978900
  C       -1.3532420     0.4851090     0.1659470
  C        0.0923410     0.8600100     0.3004220
  C       -4.0760200    -0.2326370    -0.0482320
  C       -1.8292680    -0.6845410     0.7713590
  C       -2.2449120     1.2876570    -0.5496990
  C       -3.1721270    -1.0365930     0.6617200
  C       -3.5922330     0.9350480    -0.6483300
  C        2.2320470    -0.1282220    -0.1046120
  C       -5.5355430    -0.5984480    -0.1257210
  C        2.9140800     0.9938170     0.3783620
  C        2.9472190    -1.2508620    -0.5439590
  C        4.3132210     0.9773220     0.4183570
  C        4.3370840    -1.2508910    -0.4991240
  C        5.0300920    -0.1353830    -0.0155080
  H        0.3103430     1.7730630    -0.2708990
  H        0.3551050     1.0439550     1.3523320
  H       -1.1247207    -1.3372221     1.3239178
  H       -1.8855300     2.1916430    -1.0389860
  H       -3.5267120    -1.9532640     1.1308580
  H       -4.2733370     1.5694920    -1.2133600
  H       -6.0038750    -0.1617940    -1.0122750
  H       -5.6673980    -1.6833350    -0.1714030
  H       -6.0811880    -0.2353180     0.7521400
  H        2.3826970     1.8764090     0.7176150
  H        2.3879470    -2.1054110    -0.9150460
  H        4.8399070     1.8514100     0.7945710
  H        4.8825510    -2.1268580    -0.8422600
  H        6.1161710    -0.1361850     0.0199920
units angstrom
no_reorient  #important for SAPT in psi4, default
symmetry c1  #important for SAPT in psi4, default
}

set PROPERTIES_ORIGIN ["COM"]
properties('MP2/aug-cc-pvtz', properties = ['dipole'])
--------------------------------------------------------------------------

    Molecular point group: c1
  Charge       = 0
  Multiplicity = 1
  Basis Set: AUG-CC-PVTZ
    Blend: AUG-CC-PVTZ
  Basis Set: (AUG-CC-PVTZ AUX)
    Blend: AUG-CC-PVTZ-JKFIT

    Orbital Energies [Eh]
    ---------------------

    Doubly Occupied:

       1A    -20.583848     2A    -11.300995     3A    -11.293180
       4A    -11.243969     5A    -11.240942     6A    -11.239377
       7A    -11.239358     8A    -11.237774     9A    -11.237043
      10A    -11.232923    11A    -11.232360    12A    -11.232294
      13A    -11.227656    14A    -11.227237    15A    -11.225947
      16A     -1.404815    17A     -1.158828    18A     -1.143717
      19A     -1.067023    20A     -1.017714    21A     -1.013047
      22A     -1.008182    23A     -0.964087    24A     -0.899472
      25A     -0.832644    26A     -0.830902    27A     -0.808919
      28A     -0.781878    29A     -0.721134    30A     -0.683547
      31A     -0.670548    32A     -0.663652    33A     -0.643114
      34A     -0.630100    35A     -0.620287    36A     -0.609369
      37A     -0.586752    38A     -0.582238    39A     -0.577056
      40A     -0.563998    41A     -0.543351    42A     -0.531733
      43A     -0.522884    44A     -0.513969    45A     -0.491367
      46A     -0.485815    47A     -0.485168    48A     -0.478856
      49A     -0.464125    50A     -0.339924    51A     -0.336845
      52A     -0.322351    53A     -0.312290

  @DF-RHF Final Energy:  -613.37092597355672

   => Energetics <=

    Nuclear Repulsion Energy =            870.6504571760154931
    One-Electron Energy =               -2559.4295641394601262
    Two-Electron Energy =                1075.4081809898877964
    Total Energy =                       -613.3709259735567230
  Basis Set: (AUG-CC-PVTZ AUX)
    Blend: AUG-CC-PVTZ-RI
    Molecular point group: c1

    Geometry (in Angstrom), charge = 0, multiplicity = 1:

       Center              X                  Y                   Z               Mass
    ------------   -----------------  -----------------  -----------------  -----------------
         O            0.828933780942    -0.235384548931    -0.194854505476    15.994914619570
         C           -1.389849219058     0.488059451069     0.168982494524    12.000000000000
         C            0.055733780942     0.862960451069     0.303457494524    12.000000000000
         C           -4.112627219058    -0.229686548931    -0.045196505476    12.000000000000
         C           -1.865875219058    -0.681590548931     0.774394494524    12.000000000000
         C           -2.281519219058     1.290607451069    -0.546663505476    12.000000000000
         C           -3.208734219058    -1.033642548931     0.664755494524    12.000000000000
         C           -3.628840219058     0.937998451069    -0.645294505476    12.000000000000
         C            2.195439780942    -0.125271548931    -0.101576505476    12.000000000000
         C           -5.572150219058    -0.595497548931    -0.122685505476    12.000000000000
         C            2.877472780942     0.996767451069     0.381397494524    12.000000000000
         C            2.910611780942    -1.247911548931    -0.540923505476    12.000000000000
         C            4.276613780942     0.980272451069     0.421392494524    12.000000000000
         C            4.300476780942    -1.247940548931    -0.496088505476    12.000000000000
         C            4.993484780942    -0.132432548931    -0.012472505476    12.000000000000
         H            0.273735780942     1.776013451069    -0.267863505476     1.007825032230
         H            0.318497780942     1.046905451069     1.355367494524     1.007825032230
         H           -1.161327919058    -1.334271648931     1.326953294524     1.007825032230
         H           -1.922137219058     2.194593451069    -1.035950505476     1.007825032230
         H           -3.563319219058    -1.950313548931     1.133893494524     1.007825032230
         H           -4.309944219058     1.572442451069    -1.210324505476     1.007825032230
         H           -6.040482219058    -0.158843548931    -1.009239505476     1.007825032230
         H           -5.704005219058    -1.680384548931    -0.168367505476     1.007825032230
         H           -6.117795219058    -0.232367548931     0.755175494524     1.007825032230
         H            2.346089780942     1.879359451069     0.720650494524     1.007825032230
         H            2.351339780942    -2.102460548931    -0.912010505476     1.007825032230
         H            4.803299780942     1.854360451069     0.797606494524     1.007825032230
         H            4.845943780942    -2.123907548931    -0.839224505476     1.007825032230
         H            6.079563780942    -0.133234548931     0.023027494524     1.007825032230

  Basis Set: AUG-CC-PVTZ
    Blend: AUG-CC-PVTZ
  Basis Set: (AUG-CC-PVTZ AUX)
    Blend: AUG-CC-PVTZ-JKFIT
	 Reference Energy          =    -613.3709259735567230 [Eh]
	 Singles Energy            =      -0.0000000000000000 [Eh]
	 Same-Spin Energy          =      -0.6727041354652805 [Eh]
	 Opposite-Spin Energy      =      -2.1166924142587318 [Eh]
	 Correlation Energy        =      -2.7893965497240121 [Eh]
	 Total Energy              =    -616.1603225232806835 [Eh]

	 ================> DF-SCS-MP2 Energies <==================
	-----------------------------------------------------------
	 SCS Same-Spin Scale       =       0.3333333333333333 [-]
	 SCS Opposite-Spin Scale   =       1.2000000000000000 [-]
	 SCS Same-Spin Energy      =      -0.2242347118217602 [Eh]
	 SCS Opposite-Spin Energy  =      -2.5400308971104781 [Eh]
	 SCS Correlation Energy    =      -2.7642656089322384 [Eh]
	 SCS Total Energy          =    -616.1351915824889147 [Eh]
	-----------------------------------------------------------

  Dipole Moment: [D]
     X:    -1.0079      Y:     0.7344      Z:     0.4677     Total:     1.3319

*** Psi4 exiting successfully. Buy a developer a beer!
