                               Psi4 1.4a3.dev225

  ==> Input File <==

--------------------------------------------------------------------------
#psi4
#
memory 32 gb

molecule  {
0 1
  O        0.8655410    -0.2383350    -0.1978900
  C       -1.3532420     0.4851090     0.1659470
  C        0.0923410     0.8600100     0.3004220
  C       -4.0589295    -0.3054036    -0.1870983
  C       -1.8292680    -0.6845410     0.7713590
  C       -2.2449120     1.2876570    -0.5496990
  C       -3.1721270    -1.0365930     0.6617200
  C       -3.5922330     0.9350480    -0.6483300
  C        2.2320470    -0.1282220    -0.1046120
  C       -5.5355430    -0.5984480    -0.1257210
  C        2.9140800     0.9938170     0.3783620
  C        2.9472190    -1.2508620    -0.5439590
  C        4.3132210     0.9773220     0.4183570
  C        4.3370840    -1.2508910    -0.4991240
  C        5.0300920    -0.1353830    -0.0155080
  H        0.3103430     1.7730630    -0.2708990
  H        0.3551050     1.0439550     1.3523320
  H       -1.1374380    -1.3254410     1.3139440
  H       -1.8855300     2.1916430    -1.0389860
  H       -3.5267120    -1.9532640     1.1308580
  H       -4.2733370     1.5694920    -1.2133600
  H       -6.0038750    -0.1617940    -1.0122750
  H       -5.6673980    -1.6833350    -0.1714030
  H       -6.0811880    -0.2353180     0.7521400
  H        2.3826970     1.8764090     0.7176150
  H        2.3879470    -2.1054110    -0.9150460
  H        4.8399070     1.8514100     0.7945710
  H        4.8825510    -2.1268580    -0.8422600
  H        6.1161710    -0.1361850     0.0199920
units angstrom
no_reorient  #important for SAPT in psi4, default
symmetry c1  #important for SAPT in psi4, default
}

set PROPERTIES_ORIGIN ["COM"]
properties('MP2/aug-cc-pvtz', properties = ['dipole'])
--------------------------------------------------------------------------

    Molecular point group: c1
  Charge       = 0
  Multiplicity = 1
  Basis Set: AUG-CC-PVTZ
    Blend: AUG-CC-PVTZ
  Basis Set: (AUG-CC-PVTZ AUX)
    Blend: AUG-CC-PVTZ-JKFIT

    Orbital Energies [Eh]
    ---------------------

    Doubly Occupied:

       1A    -20.584608     2A    -11.301458     3A    -11.294060
       4A    -11.245817     5A    -11.241287     6A    -11.241211
       7A    -11.239707     8A    -11.237729     9A    -11.236515
      10A    -11.234387    11A    -11.234290    12A    -11.233348
      13A    -11.228037    14A    -11.227586    15A    -11.225467
      16A     -1.405553    17A     -1.157597    18A     -1.143714
      19A     -1.066361    20A     -1.018059    21A     -1.012841
      22A     -1.008690    23A     -0.964108    24A     -0.898711
      25A     -0.832796    26A     -0.829996    27A     -0.809334
      28A     -0.782165    29A     -0.721582    30A     -0.684021
      31A     -0.670407    32A     -0.664145    33A     -0.644259
      34A     -0.631380    35A     -0.620133    36A     -0.609557
      37A     -0.587192    38A     -0.582651    39A     -0.577667
      40A     -0.561142    41A     -0.543096    42A     -0.532977
      43A     -0.522175    44A     -0.513853    45A     -0.495272
      46A     -0.483775    47A     -0.480255    48A     -0.477791
      49A     -0.464599    50A     -0.340257    51A     -0.335708
      52A     -0.322374    53A     -0.312724

  @DF-RHF Final Energy:  -613.36095715369413

   => Energetics <=

    Nuclear Repulsion Energy =            870.3352678004888503
    One-Electron Energy =               -2558.7636010299675036
    Two-Electron Energy =                1075.0673760757845230
    Total Energy =                       -613.3609571536940166
  Basis Set: (AUG-CC-PVTZ AUX)
    Blend: AUG-CC-PVTZ-RI
    Molecular point group: c1

    Geometry (in Angstrom), charge = 0, multiplicity = 1:

       Center              X                  Y                   Z               Mass
    ------------   -----------------  -----------------  -----------------  -----------------
         O            0.827963236504    -0.231036711984    -0.186392063982    15.994914619570
         C           -1.390819763496     0.492407288016     0.177444936018    12.000000000000
         C            0.054763236504     0.867308288016     0.311919936018    12.000000000000
         C           -4.096507263496    -0.298105311984    -0.175600363982    12.000000000000
         C           -1.866845763496    -0.677242711984     0.782856936018    12.000000000000
         C           -2.282489763496     1.294955288016    -0.538201063982    12.000000000000
         C           -3.209704763496    -1.029294711984     0.673217936018    12.000000000000
         C           -3.629810763496     0.942346288016    -0.636832063982    12.000000000000
         C            2.194469236504    -0.120923711984    -0.093114063982    12.000000000000
         C           -5.573120763496    -0.591149711984    -0.114223063982    12.000000000000
         C            2.876502236504     1.001115288016     0.389859936018    12.000000000000
         C            2.909641236504    -1.243563711984    -0.532461063982    12.000000000000
         C            4.275643236504     0.984620288016     0.429854936018    12.000000000000
         C            4.299506236504    -1.243592711984    -0.487626063982    12.000000000000
         C            4.992514236504    -0.128084711984    -0.004010063982    12.000000000000
         H            0.272765236504     1.780361288016    -0.259401063982     1.007825032230
         H            0.317527236504     1.051253288016     1.363829936018     1.007825032230
         H           -1.175015763496    -1.318142711984     1.325441936018     1.007825032230
         H           -1.923107763496     2.198941288016    -1.027488063982     1.007825032230
         H           -3.564289763496    -1.945965711984     1.142355936018     1.007825032230
         H           -4.310914763496     1.576790288016    -1.201862063982     1.007825032230
         H           -6.041452763496    -0.154495711984    -1.000777063982     1.007825032230
         H           -5.704975763496    -1.676036711984    -0.159905063982     1.007825032230
         H           -6.118765763496    -0.228019711984     0.763637936018     1.007825032230
         H            2.345119236504     1.883707288016     0.729112936018     1.007825032230
         H            2.350369236504    -2.098112711984    -0.903548063982     1.007825032230
         H            4.802329236504     1.858708288016     0.806068936018     1.007825032230
         H            4.844973236504    -2.119559711984    -0.830762063982     1.007825032230
         H            6.078593236504    -0.128886711984     0.031489936018     1.007825032230

  Basis Set: AUG-CC-PVTZ
    Blend: AUG-CC-PVTZ
  Basis Set: (AUG-CC-PVTZ AUX)
    Blend: AUG-CC-PVTZ-JKFIT
	 Reference Energy          =    -613.3609571536941303 [Eh]
	 Singles Energy            =      -0.0000000000000000 [Eh]
	 Same-Spin Energy          =      -0.6731218473531813 [Eh]
	 Opposite-Spin Energy      =      -2.1180031693467050 [Eh]
	 Correlation Energy        =      -2.7911250166998860 [Eh]
	 Total Energy              =    -616.1520821703940101 [Eh]

	 ================> DF-SCS-MP2 Energies <==================
	-----------------------------------------------------------
	 SCS Same-Spin Scale       =       0.3333333333333333 [-]
	 SCS Opposite-Spin Scale   =       1.2000000000000000 [-]
	 SCS Same-Spin Energy      =      -0.2243739491177271 [Eh]
	 SCS Opposite-Spin Energy  =      -2.5416038032160460 [Eh]
	 SCS Correlation Energy    =      -2.7659777523337730 [Eh]
	 SCS Total Energy          =    -616.1269349060279410 [Eh]
	-----------------------------------------------------------

  Dipole Moment: [D]
     X:    -0.9005      Y:     0.7909      Z:     0.5384     Total:     1.3139

*** Psi4 exiting successfully. Buy a developer a beer!
