                               Psi4 1.4a3.dev225

  ==> Input File <==

--------------------------------------------------------------------------
#psi4
#
memory 32 gb

molecule  {
0 1
  O        0.8655410    -0.2383350    -0.1978900
  C       -1.3532420     0.4851090     0.1659470
  C        0.0923410     0.8600100     0.3004220
  C       -4.0760200    -0.2326370    -0.0482320
  C       -1.8292680    -0.6845410     0.7713590
  C       -2.2449120     1.2876570    -0.5496990
  C       -3.1721270    -1.0365930     0.6617200
  C       -3.5853176     0.9517392    -0.6569080
  C        2.2320470    -0.1282220    -0.1046120
  C       -5.5355430    -0.5984480    -0.1257210
  C        2.9140800     0.9938170     0.3783620
  C        2.9472190    -1.2508620    -0.5439590
  C        4.3132210     0.9773220     0.4183570
  C        4.3370840    -1.2508910    -0.4991240
  C        5.0300920    -0.1353830    -0.0155080
  H        0.3103430     1.7730630    -0.2708990
  H        0.3551050     1.0439550     1.3523320
  H       -1.1374380    -1.3254410     1.3139440
  H       -1.8855300     2.1916430    -1.0389860
  H       -3.5267120    -1.9532640     1.1308580
  H       -4.2733370     1.5694920    -1.2133600
  H       -6.0038750    -0.1617940    -1.0122750
  H       -5.6673980    -1.6833350    -0.1714030
  H       -6.0811880    -0.2353180     0.7521400
  H        2.3826970     1.8764090     0.7176150
  H        2.3879470    -2.1054110    -0.9150460
  H        4.8399070     1.8514100     0.7945710
  H        4.8825510    -2.1268580    -0.8422600
  H        6.1161710    -0.1361850     0.0199920
units angstrom
no_reorient  #important for SAPT in psi4, default
symmetry c1  #important for SAPT in psi4, default
}

set PROPERTIES_ORIGIN ["COM"]
properties('MP2/aug-cc-pvtz', properties = ['dipole'])
--------------------------------------------------------------------------

    Molecular point group: c1
  Charge       = 0
  Multiplicity = 1
  Basis Set: AUG-CC-PVTZ
    Blend: AUG-CC-PVTZ
  Basis Set: (AUG-CC-PVTZ AUX)
    Blend: AUG-CC-PVTZ-JKFIT

    Orbital Energies [Eh]
    ---------------------

    Doubly Occupied:

       1A    -20.583783     2A    -11.300935     3A    -11.293102
       4A    -11.246111     5A    -11.240900     6A    -11.239339
       7A    -11.238797     8A    -11.236721     9A    -11.235116
      10A    -11.232874    11A    -11.232520    12A    -11.231820
      13A    -11.227616    14A    -11.227198    15A    -11.226136
      16A     -1.404747    17A     -1.157999    18A     -1.143490
      19A     -1.065723    20A     -1.017725    21A     -1.014956
      22A     -1.008078    23A     -0.964293    24A     -0.898677
      25A     -0.832088    26A     -0.831455    27A     -0.808537
      28A     -0.782979    29A     -0.721058    30A     -0.684299
      31A     -0.670446    32A     -0.663602    33A     -0.643567
      34A     -0.631272    35A     -0.620655    36A     -0.609309
      37A     -0.586716    38A     -0.584919    39A     -0.576742
      40A     -0.563509    41A     -0.544247    42A     -0.531447
      43A     -0.522490    44A     -0.513998    45A     -0.491508
      46A     -0.487061    47A     -0.484194    48A     -0.478356
      49A     -0.464153    50A     -0.339885    51A     -0.338267
      52A     -0.319932    53A     -0.312230

  @DF-RHF Final Energy:  -613.37093102806682

   => Energetics <=

    Nuclear Repulsion Energy =            870.5565120418079914
    One-Electron Energy =               -2559.2397371355791620
    Two-Electron Energy =                1075.3122940657042363
    Total Energy =                       -613.3709310280669342
  Basis Set: (AUG-CC-PVTZ AUX)
    Blend: AUG-CC-PVTZ-RI
    Molecular point group: c1

    Geometry (in Angstrom), charge = 0, multiplicity = 1:

       Center              X                  Y                   Z               Mass
    ------------   -----------------  -----------------  -----------------  -----------------
         O            0.828579584046    -0.236455537853    -0.194284160707    15.994914619570
         C           -1.390203415954     0.486988462147     0.169552839293    12.000000000000
         C            0.055379584046     0.861889462147     0.304027839293    12.000000000000
         C           -4.112981415954    -0.230757537853    -0.044626160707    12.000000000000
         C           -1.866229415954    -0.682661537853     0.774964839293    12.000000000000
         C           -2.281873415954     1.289536462147    -0.546093160707    12.000000000000
         C           -3.209088415954    -1.034713537853     0.665325839293    12.000000000000
         C           -3.622279015954     0.953618662147    -0.653302160707    12.000000000000
         C            2.195085584046    -0.126342537853    -0.101006160707    12.000000000000
         C           -5.572504415954    -0.596568537853    -0.122115160707    12.000000000000
         C            2.877118584046     0.995696462147     0.381967839293    12.000000000000
         C            2.910257584046    -1.248982537853    -0.540353160707    12.000000000000
         C            4.276259584046     0.979201462147     0.421962839293    12.000000000000
         C            4.300122584046    -1.249011537853    -0.495518160707    12.000000000000
         C            4.993130584046    -0.133503537853    -0.011902160707    12.000000000000
         H            0.273381584046     1.774942462147    -0.267293160707     1.007825032230
         H            0.318143584046     1.045834462147     1.355937839293     1.007825032230
         H           -1.174399415954    -1.323561537853     1.317549839293     1.007825032230
         H           -1.922491415954     2.193522462147    -1.035380160707     1.007825032230
         H           -3.563673415954    -1.951384537853     1.134463839293     1.007825032230
         H           -4.310298415954     1.571371462147    -1.209754160707     1.007825032230
         H           -6.040836415954    -0.159914537853    -1.008669160707     1.007825032230
         H           -5.704359415954    -1.681455537853    -0.167797160707     1.007825032230
         H           -6.118149415954    -0.233438537853     0.755745839293     1.007825032230
         H            2.345735584046     1.878288462147     0.721220839293     1.007825032230
         H            2.350985584046    -2.103531537853    -0.911440160707     1.007825032230
         H            4.802945584046     1.853289462147     0.798176839293     1.007825032230
         H            4.845589584046    -2.124978537853    -0.838654160707     1.007825032230
         H            6.079209584046    -0.134305537853     0.023597839293     1.007825032230

  Basis Set: AUG-CC-PVTZ
    Blend: AUG-CC-PVTZ
  Basis Set: (AUG-CC-PVTZ AUX)
    Blend: AUG-CC-PVTZ-JKFIT
	 Reference Energy          =    -613.3709310280668205 [Eh]
	 Singles Energy            =      -0.0000000000000000 [Eh]
	 Same-Spin Energy          =      -0.6726824557059681 [Eh]
	 Opposite-Spin Energy      =      -2.1166047483298502 [Eh]
	 Correlation Energy        =      -2.7892872040358183 [Eh]
	 Total Energy              =    -616.1602182321026930 [Eh]

	 ================> DF-SCS-MP2 Energies <==================
	-----------------------------------------------------------
	 SCS Same-Spin Scale       =       0.3333333333333333 [-]
	 SCS Opposite-Spin Scale   =       1.2000000000000000 [-]
	 SCS Same-Spin Energy      =      -0.2242274852353227 [Eh]
	 SCS Opposite-Spin Energy  =      -2.5399256979958200 [Eh]
	 SCS Correlation Energy    =      -2.7641531832311426 [Eh]
	 SCS Total Energy          =    -616.1350842112979080 [Eh]
	-----------------------------------------------------------

  Dipole Moment: [D]
     X:    -1.0180      Y:     0.7298      Z:     0.4704     Total:     1.3380

*** Psi4 exiting successfully. Buy a developer a beer!
