                               Psi4 1.4a3.dev225

  ==> Input File <==

--------------------------------------------------------------------------
#psi4
#
memory 32 gb

molecule  {
0 1
  O        0.8655410    -0.2383350    -0.1978900
  C       -1.3532420     0.4851090     0.1659470
  C        0.0923410     0.8600100     0.3004220
  C       -4.0760200    -0.2326370    -0.0482320
  C       -1.8292680    -0.6845410     0.7713590
  C       -2.2449120     1.2876570    -0.5496990
  C       -3.1721270    -1.0365930     0.6617200
  C       -3.5922330     0.9350480    -0.6483300
  C        2.2320470    -0.1282220    -0.1046120
  C       -5.5355430    -0.5984480    -0.1257210
  C        2.9140800     0.9938170     0.3783620
  C        2.9472190    -1.2508620    -0.5439590
  C        4.3132210     0.9773220     0.4183570
  C        4.3370840    -1.2508910    -0.4991240
  C        5.0300920    -0.1353830    -0.0155080
  H        0.3103430     1.7730630    -0.2708990
  H        0.3551050     1.0439550     1.3523320
  H       -1.1374380    -1.3254410     1.3139440
  H       -1.8855300     2.1916430    -1.0389860
  H       -3.5267120    -1.9532640     1.1308580
  H       -4.2733370     1.5694920    -1.2133600
  H       -6.0038750    -0.1617940    -1.0122750
  H       -5.6673980    -1.6833350    -0.1714030
  H       -6.0811880    -0.2353180     0.7521400
  H        2.3826970     1.8764090     0.7176150
  H        2.3879470    -2.1054110    -0.9150460
  H        4.8399070     1.8514100     0.7945710
  H        4.8825510    -2.1268580    -0.8422600
  H        6.1161710    -0.1361850     0.0199920
units angstrom
no_reorient  #important for SAPT in psi4, default
symmetry c1  #important for SAPT in psi4, default
}

set PROPERTIES_ORIGIN ["COM"]
properties('MP2/aug-cc-pvtz', properties = ['dipole'])
--------------------------------------------------------------------------

    Molecular point group: c1
  Charge       = 0
  Multiplicity = 1
  Basis Set: AUG-CC-PVTZ
    Blend: AUG-CC-PVTZ
  Basis Set: (AUG-CC-PVTZ AUX)
    Blend: AUG-CC-PVTZ-JKFIT

    Orbital Energies [Eh]
    ---------------------

    Doubly Occupied:

       1A    -20.583897     2A    -11.301016     3A    -11.293175
       4A    -11.243835     5A    -11.240958     6A    -11.239394
       7A    -11.239105     8A    -11.237548     9A    -11.234957
      10A    -11.232944    11A    -11.232259    12A    -11.232098
      13A    -11.227677    14A    -11.227255    15A    -11.225868
      16A     -1.404858    17A     -1.158832    18A     -1.143727
      19A     -1.067018    20A     -1.017729    21A     -1.013407
      22A     -1.008307    23A     -0.964057    24A     -0.899516
      25A     -0.832985    26A     -0.831391    27A     -0.808922
      28A     -0.782414    29A     -0.721153    30A     -0.683943
      31A     -0.670535    32A     -0.663679    33A     -0.643755
      34A     -0.631030    35A     -0.620536    36A     -0.609381
      37A     -0.586770    38A     -0.583551    39A     -0.576983
      40A     -0.563980    41A     -0.543332    42A     -0.531809
      43A     -0.522865    44A     -0.514038    45A     -0.491308
      46A     -0.486608    47A     -0.485080    48A     -0.478828
      49A     -0.464214    50A     -0.339940    51A     -0.336748
      52A     -0.322244    53A     -0.312315

  @DF-RHF Final Energy:  -613.37159052482991

   => Energetics <=

    Nuclear Repulsion Energy =            870.7447212004711901
    One-Electron Energy =               -2559.6130723652554479
    Two-Electron Energy =                1075.4967606399543456
    Total Energy =                       -613.3715905248297986
  Basis Set: (AUG-CC-PVTZ AUX)
    Blend: AUG-CC-PVTZ-RI
    Molecular point group: c1

    Geometry (in Angstrom), charge = 0, multiplicity = 1:

       Center              X                  Y                   Z               Mass
    ------------   -----------------  -----------------  -----------------  -----------------
         O            0.828998478188    -0.235444483408    -0.194803765351    15.994914619570
         C           -1.389784521812     0.487999516592     0.169033234649    12.000000000000
         C            0.055798478188     0.862900516592     0.303508234649    12.000000000000
         C           -4.112562521812    -0.229746483408    -0.045145765351    12.000000000000
         C           -1.865810521812    -0.681650483408     0.774445234649    12.000000000000
         C           -2.281454521812     1.290547516592    -0.546612765351    12.000000000000
         C           -3.208669521812    -1.033702483408     0.664806234649    12.000000000000
         C           -3.628775521812     0.937938516592    -0.645243765351    12.000000000000
         C            2.195504478188    -0.125331483408    -0.101525765351    12.000000000000
         C           -5.572085521812    -0.595557483408    -0.122634765351    12.000000000000
         C            2.877537478188     0.996707516592     0.381448234649    12.000000000000
         C            2.910676478188    -1.247971483408    -0.540872765351    12.000000000000
         C            4.276678478188     0.980212516592     0.421443234649    12.000000000000
         C            4.300541478188    -1.248000483408    -0.496037765351    12.000000000000
         C            4.993549478188    -0.132492483408    -0.012421765351    12.000000000000
         H            0.273800478188     1.775953516592    -0.267812765351     1.007825032230
         H            0.318562478188     1.046845516592     1.355418234649     1.007825032230
         H           -1.173980521812    -1.322550483408     1.317030234649     1.007825032230
         H           -1.922072521812     2.194533516592    -1.035899765351     1.007825032230
         H           -3.563254521812    -1.950373483408     1.133944234649     1.007825032230
         H           -4.309879521812     1.572382516592    -1.210273765351     1.007825032230
         H           -6.040417521812    -0.158903483408    -1.009188765351     1.007825032230
         H           -5.703940521812    -1.680444483408    -0.168316765351     1.007825032230
         H           -6.117730521812    -0.232427483408     0.755226234649     1.007825032230
         H            2.346154478188     1.879299516592     0.720701234649     1.007825032230
         H            2.351404478188    -2.102520483408    -0.911959765351     1.007825032230
         H            4.803364478188     1.854300516592     0.797657234649     1.007825032230
         H            4.846008478188    -2.123967483408    -0.839173765351     1.007825032230
         H            6.079628478188    -0.133294483408     0.023078234649     1.007825032230

  Basis Set: AUG-CC-PVTZ
    Blend: AUG-CC-PVTZ
  Basis Set: (AUG-CC-PVTZ AUX)
    Blend: AUG-CC-PVTZ-JKFIT
	 Reference Energy          =    -613.3715905248299123 [Eh]
	 Singles Energy            =      -0.0000000000000000 [Eh]
	 Same-Spin Energy          =      -0.6726509252652824 [Eh]
	 Opposite-Spin Energy      =      -2.1165193631858195 [Eh]
	 Correlation Energy        =      -2.7891702884511016 [Eh]
	 Total Energy              =    -616.1607608132810583 [Eh]

	 ================> DF-SCS-MP2 Energies <==================
	-----------------------------------------------------------
	 SCS Same-Spin Scale       =       0.3333333333333333 [-]
	 SCS Opposite-Spin Scale   =       1.2000000000000000 [-]
	 SCS Same-Spin Energy      =      -0.2242169750884274 [Eh]
	 SCS Opposite-Spin Energy  =      -2.5398232358229831 [Eh]
	 SCS Correlation Energy    =      -2.7640402109114106 [Eh]
	 SCS Total Energy          =    -616.1356307357413016 [Eh]
	-----------------------------------------------------------

  Dipole Moment: [D]
     X:    -1.0029      Y:     0.7317      Z:     0.4714     Total:     1.3279

*** Psi4 exiting successfully. Buy a developer a beer!
