                               Psi4 1.4a3.dev225

  ==> Input File <==

--------------------------------------------------------------------------
#psi4
#
memory 32 gb

molecule  {
0 1
  O        0.8655410    -0.2383350    -0.1978900
  C       -1.3532420     0.4851090     0.1659470
  C        0.0923410     0.8600100     0.3004220
  C       -4.0760200    -0.2326370    -0.0482320
  C       -1.8292680    -0.6845410     0.7713590
  C       -2.2449120     1.2876570    -0.5496990
  C       -3.1721270    -1.0365930     0.6617200
  C       -3.5922330     0.9350480    -0.6483300
  C        2.2320470    -0.1282220    -0.1046120
  C       -5.5355430    -0.5984480    -0.1257210
  C        2.9140800     0.9938170     0.3783620
  C        2.9472190    -1.2508620    -0.5439590
  C        4.3132210     0.9773220     0.4183570
  C        4.3370840    -1.2508910    -0.4991240
  C        5.0300920    -0.1353830    -0.0155080
  H        0.3103430     1.7730630    -0.2708990
  H        0.3551050     1.0439550     1.3523320
  H       -1.1374380    -1.3254410     1.3139440
  H       -1.8855300     2.1916430    -1.0389860
  H       -3.5267120    -1.9532640     1.1308580
  H       -4.2733370     1.5694920    -1.2133600
  H       -6.0038750    -0.1617940    -1.0122750
  H       -5.6673980    -1.6833350    -0.1714030
  H       -6.0313825    -0.2684639     0.6720104
  H        2.3826970     1.8764090     0.7176150
  H        2.3879470    -2.1054110    -0.9150460
  H        4.8399070     1.8514100     0.7945710
  H        4.8825510    -2.1268580    -0.8422600
  H        6.1161710    -0.1361850     0.0199920
units angstrom
no_reorient  #important for SAPT in psi4, default
symmetry c1  #important for SAPT in psi4, default
}

set PROPERTIES_ORIGIN ["COM"]
properties('MP2/aug-cc-pvtz', properties = ['dipole'])
--------------------------------------------------------------------------

    Molecular point group: c1
  Charge       = 0
  Multiplicity = 1
  Basis Set: AUG-CC-PVTZ
    Blend: AUG-CC-PVTZ
  Basis Set: (AUG-CC-PVTZ AUX)
    Blend: AUG-CC-PVTZ-JKFIT

    Orbital Energies [Eh]
    ---------------------

    Doubly Occupied:

       1A    -20.583897     2A    -11.301051     3A    -11.293091
       4A    -11.243322     5A    -11.240974     6A    -11.239404
       7A    -11.238904     8A    -11.237377     9A    -11.234817
      10A    -11.232963    11A    -11.231948    12A    -11.231831
      13A    -11.227698    14A    -11.227305    15A    -11.213590
      16A     -1.404841    17A     -1.158809    18A     -1.143762
      19A     -1.068403    20A     -1.018011    21A     -1.013276
      22A     -1.009313    23A     -0.968206    24A     -0.903617
      25A     -0.832924    26A     -0.831562    27A     -0.809199
      28A     -0.783180    29A     -0.721142    30A     -0.684797
      31A     -0.670390    32A     -0.663677    33A     -0.644596
      34A     -0.630953    35A     -0.620285    36A     -0.609571
      37A     -0.594429    38A     -0.586528    39A     -0.583348
      40A     -0.563789    41A     -0.542776    42A     -0.532133
      43A     -0.522641    44A     -0.513993    45A     -0.492288
      46A     -0.486346    47A     -0.485454    48A     -0.479018
      49A     -0.464340    50A     -0.339956    51A     -0.336581
      52A     -0.322724    53A     -0.312258

  @DF-RHF Final Energy:  -613.36563800227668

   => Energetics <=

    Nuclear Repulsion Energy =            871.2156230973151878
    One-Electron Energy =               -2560.5079394064359803
    Two-Electron Energy =                1075.9266783068442237
    Total Energy =                       -613.3656380022766825
  Basis Set: (AUG-CC-PVTZ AUX)
    Blend: AUG-CC-PVTZ-RI
    Molecular point group: c1

    Geometry (in Angstrom), charge = 0, multiplicity = 1:

       Center              X                  Y                   Z               Mass
    ------------   -----------------  -----------------  -----------------  -----------------
         O            0.828745100610    -0.235275858901    -0.194396118726    15.994914619570
         C           -1.390037899390     0.488168141099     0.169440881274    12.000000000000
         C            0.055545100610     0.863069141099     0.303915881274    12.000000000000
         C           -4.112815899390    -0.229577858901    -0.044738118726    12.000000000000
         C           -1.866063899390    -0.681481858901     0.774852881274    12.000000000000
         C           -2.281707899390     1.290716141099    -0.546205118726    12.000000000000
         C           -3.208922899390    -1.033533858901     0.665213881274    12.000000000000
         C           -3.629028899390     0.938107141099    -0.644836118726    12.000000000000
         C            2.195251100610    -0.125162858901    -0.101118118726    12.000000000000
         C           -5.572338899390    -0.595388858901    -0.122227118726    12.000000000000
         C            2.877284100610     0.996876141099     0.381855881274    12.000000000000
         C            2.910423100610    -1.247802858901    -0.540465118726    12.000000000000
         C            4.276425100610     0.980381141099     0.421850881274    12.000000000000
         C            4.300288100610    -1.247831858901    -0.495630118726    12.000000000000
         C            4.993296100610    -0.132323858901    -0.012014118726    12.000000000000
         H            0.273547100610     1.776122141099    -0.267405118726     1.007825032230
         H            0.318309100610     1.047014141099     1.355825881274     1.007825032230
         H           -1.174233899390    -1.322381858901     1.317437881274     1.007825032230
         H           -1.922325899390     2.194702141099    -1.035492118726     1.007825032230
         H           -3.563507899390    -1.950204858901     1.134351881274     1.007825032230
         H           -4.310132899390     1.572551141099    -1.209866118726     1.007825032230
         H           -6.040670899390    -0.158734858901    -1.008781118726     1.007825032230
         H           -5.704193899390    -1.680275858901    -0.167909118726     1.007825032230
         H           -6.068178399390    -0.265404758901     0.675504281274     1.007825032230
         H            2.345901100610     1.879468141099     0.721108881274     1.007825032230
         H            2.351151100610    -2.102351858901    -0.911552118726     1.007825032230
         H            4.803111100610     1.854469141099     0.798064881274     1.007825032230
         H            4.845755100610    -2.123798858901    -0.838766118726     1.007825032230
         H            6.079375100610    -0.133125858901     0.023485881274     1.007825032230

  Basis Set: AUG-CC-PVTZ
    Blend: AUG-CC-PVTZ
  Basis Set: (AUG-CC-PVTZ AUX)
    Blend: AUG-CC-PVTZ-JKFIT
	 Reference Energy          =    -613.3656380022766825 [Eh]
	 Singles Energy            =      -0.0000000000000000 [Eh]
	 Same-Spin Energy          =      -0.6727073207301205 [Eh]
	 Opposite-Spin Energy      =      -2.1160776697015766 [Eh]
	 Correlation Energy        =      -2.7887849904316973 [Eh]
	 Total Energy              =    -616.1544229927084189 [Eh]

	 ================> DF-SCS-MP2 Energies <==================
	-----------------------------------------------------------
	 SCS Same-Spin Scale       =       0.3333333333333333 [-]
	 SCS Opposite-Spin Scale   =       1.2000000000000000 [-]
	 SCS Same-Spin Energy      =      -0.2242357735767068 [Eh]
	 SCS Opposite-Spin Energy  =      -2.5392932036418920 [Eh]
	 SCS Correlation Energy    =      -2.7635289772185989 [Eh]
	 SCS Total Energy          =    -616.1291669794952668 [Eh]
	-----------------------------------------------------------

  Dipole Moment: [D]
     X:    -0.7978      Y:     0.7572      Z:     0.4868     Total:     1.2028

*** Psi4 exiting successfully. Buy a developer a beer!
