                               Psi4 1.4a3.dev225

  ==> Input File <==

--------------------------------------------------------------------------
#psi4
#
memory 32 gb

molecule  {
0 1
  O        0.8655410    -0.2383350    -0.1978900
  C       -1.3532420     0.4851090     0.1659470
  C        0.0923410     0.8600100     0.3004220
  C       -4.0760200    -0.2326370    -0.0482320
  C       -1.8292680    -0.6845410     0.7713590
  C       -2.2449120     1.2876570    -0.5496990
  C       -3.0432425    -1.1512277     0.7629508
  C       -3.5922330     0.9350480    -0.6483300
  C        2.2320470    -0.1282220    -0.1046120
  C       -5.5355430    -0.5984480    -0.1257210
  C        2.9140800     0.9938170     0.3783620
  C        2.9472190    -1.2508620    -0.5439590
  C        4.3132210     0.9773220     0.4183570
  C        4.3370840    -1.2508910    -0.4991240
  C        5.0300920    -0.1353830    -0.0155080
  H        0.3103430     1.7730630    -0.2708990
  H        0.3551050     1.0439550     1.3523320
  H       -1.1374380    -1.3254410     1.3139440
  H       -1.8855300     2.1916430    -1.0389860
  H       -3.5267120    -1.9532640     1.1308580
  H       -4.2733370     1.5694920    -1.2133600
  H       -6.0038750    -0.1617940    -1.0122750
  H       -5.6673980    -1.6833350    -0.1714030
  H       -6.0811880    -0.2353180     0.7521400
  H        2.3826970     1.8764090     0.7176150
  H        2.3879470    -2.1054110    -0.9150460
  H        4.8399070     1.8514100     0.7945710
  H        4.8825510    -2.1268580    -0.8422600
  H        6.1161710    -0.1361850     0.0199920
units angstrom
no_reorient  #important for SAPT in psi4, default
symmetry c1  #important for SAPT in psi4, default
}

set PROPERTIES_ORIGIN ["COM"]
properties('MP2/aug-cc-pvtz', properties = ['dipole'])
--------------------------------------------------------------------------

    Molecular point group: c1
  Charge       = 0
  Multiplicity = 1
  Basis Set: AUG-CC-PVTZ
    Blend: AUG-CC-PVTZ
  Basis Set: (AUG-CC-PVTZ AUX)
    Blend: AUG-CC-PVTZ-JKFIT

    Orbital Energies [Eh]
    ---------------------

    Doubly Occupied:

       1A    -20.582784     2A    -11.300416     3A    -11.293075
       4A    -11.259841     5A    -11.240444     6A    -11.240360
       7A    -11.238861     8A    -11.238168     9A    -11.234437
      10A    -11.232355    11A    -11.229017    12A    -11.227921
      13A    -11.227068    14A    -11.226711    15A    -11.225861
      16A     -1.403921    17A     -1.154004    18A     -1.141697
      19A     -1.057081    20A     -1.030414    21A     -1.016714
      22A     -1.007575    23A     -0.965203    24A     -0.893605
      25A     -0.833840    26A     -0.826681    27A     -0.808857
      28A     -0.780389    29A     -0.721368    30A     -0.691526
      31A     -0.672493    32A     -0.663102    33A     -0.642217
      34A     -0.641823    35A     -0.613938    36A     -0.611342
      37A     -0.591494    38A     -0.586063    39A     -0.575117
      40A     -0.561965    41A     -0.547760    42A     -0.528731
      43A     -0.523118    44A     -0.513884    45A     -0.500734
      46A     -0.486155    47A     -0.480293    48A     -0.465462
      49A     -0.444857    50A     -0.355015    51A     -0.339328
      52A     -0.311716    53A     -0.305681

  @DF-RHF Final Energy:  -613.33117781869555

   => Energetics <=

    Nuclear Repulsion Energy =            869.3325841444749358
    One-Electron Energy =               -2556.7425666939161601
    Two-Electron Energy =                1074.0788047307457873
    Total Energy =                       -613.3311778186955507
  Basis Set: (AUG-CC-PVTZ AUX)
    Blend: AUG-CC-PVTZ-RI
    Molecular point group: c1

    Geometry (in Angstrom), charge = 0, multiplicity = 1:

       Center              X                  Y                   Z               Mass
    ------------   -----------------  -----------------  -----------------  -----------------
         O            0.821191415387    -0.228500589440    -0.200935730118    15.994914619570
         C           -1.397591584613     0.494943410560     0.162901269882    12.000000000000
         C            0.047991415387     0.869844410560     0.297376269882    12.000000000000
         C           -4.120369584613    -0.222802589440    -0.051277730118    12.000000000000
         C           -1.873617584613    -0.674706589440     0.768313269882    12.000000000000
         C           -2.289261584613     1.297491410560    -0.552744730118    12.000000000000
         C           -3.087592084613    -1.141393289440     0.759905069882    12.000000000000
         C           -3.636582584613     0.944882410560    -0.651375730118    12.000000000000
         C            2.187697415387    -0.118387589440    -0.107657730118    12.000000000000
         C           -5.579892584613    -0.588613589440    -0.128766730118    12.000000000000
         C            2.869730415387     1.003651410560     0.375316269882    12.000000000000
         C            2.902869415387    -1.241027589440    -0.547004730118    12.000000000000
         C            4.268871415387     0.987156410560     0.415311269882    12.000000000000
         C            4.292734415387    -1.241056589440    -0.502169730118    12.000000000000
         C            4.985742415387    -0.125548589440    -0.018553730118    12.000000000000
         H            0.265993415387     1.782897410560    -0.273944730118     1.007825032230
         H            0.310755415387     1.053789410560     1.349286269882     1.007825032230
         H           -1.181787584613    -1.315606589440     1.310898269882     1.007825032230
         H           -1.929879584613     2.201477410560    -1.042031730118     1.007825032230
         H           -3.571061584613    -1.943429589440     1.127812269882     1.007825032230
         H           -4.317686584613     1.579326410560    -1.216405730118     1.007825032230
         H           -6.048224584613    -0.151959589440    -1.015320730118     1.007825032230
         H           -5.711747584613    -1.673500589440    -0.174448730118     1.007825032230
         H           -6.125537584613    -0.225483589440     0.749094269882     1.007825032230
         H            2.338347415387     1.886243410560     0.714569269882     1.007825032230
         H            2.343597415387    -2.095576589440    -0.918091730118     1.007825032230
         H            4.795557415387     1.861244410560     0.791525269882     1.007825032230
         H            4.838201415387    -2.117023589440    -0.845305730118     1.007825032230
         H            6.071821415387    -0.126350589440     0.016946269882     1.007825032230

  Basis Set: AUG-CC-PVTZ
    Blend: AUG-CC-PVTZ
  Basis Set: (AUG-CC-PVTZ AUX)
    Blend: AUG-CC-PVTZ-JKFIT
	 Reference Energy          =    -613.3311778186955507 [Eh]
	 Singles Energy            =      -0.0000000000000000 [Eh]
	 Same-Spin Energy          =      -0.6718300791184143 [Eh]
	 Opposite-Spin Energy      =      -2.1185109461919884 [Eh]
	 Correlation Energy        =      -2.7903410253104028 [Eh]
	 Total Energy              =    -616.1215188440060047 [Eh]

	 ================> DF-SCS-MP2 Energies <==================
	-----------------------------------------------------------
	 SCS Same-Spin Scale       =       0.3333333333333333 [-]
	 SCS Opposite-Spin Scale   =       1.2000000000000000 [-]
	 SCS Same-Spin Energy      =      -0.2239433597061381 [Eh]
	 SCS Opposite-Spin Energy  =      -2.5422131354303859 [Eh]
	 SCS Correlation Energy    =      -2.7661564951365238 [Eh]
	 SCS Total Energy          =    -616.0973343138321070 [Eh]
	-----------------------------------------------------------

  Dipole Moment: [D]
     X:    -1.1061      Y:     0.6977      Z:     0.4768     Total:     1.3920

*** Psi4 exiting successfully. Buy a developer a beer!
