                               Psi4 1.4a3.dev225

  ==> Input File <==

--------------------------------------------------------------------------
#psi4
#
memory 32 gb

molecule  {
0 1
  O        0.8655410    -0.2383350    -0.1978900
  C       -1.3532420     0.4851090     0.1659470
  C        0.0923410     0.8600100     0.3004220
  C       -4.0760200    -0.2326370    -0.0482320
  C       -1.8292680    -0.6845410     0.7713590
  C       -2.2449120     1.2876570    -0.5496990
  C       -3.1721270    -1.0365930     0.6617200
  C       -3.5922330     0.9350480    -0.6483300
  C        2.2320470    -0.1282220    -0.1046120
  C       -5.5355430    -0.5984480    -0.1257210
  C        2.9140800     0.9938170     0.3783620
  C        2.9472190    -1.2508620    -0.5439590
  C        4.3132210     0.9773220     0.4183570
  C        4.3370840    -1.2508910    -0.4991240
  C        4.9271621     0.0243816     0.0467873
  H        0.3103430     1.7730630    -0.2708990
  H        0.3551050     1.0439550     1.3523320
  H       -1.1374380    -1.3254410     1.3139440
  H       -1.8855300     2.1916430    -1.0389860
  H       -3.5267120    -1.9532640     1.1308580
  H       -4.2733370     1.5694920    -1.2133600
  H       -6.0038750    -0.1617940    -1.0122750
  H       -5.6673980    -1.6833350    -0.1714030
  H       -6.0811880    -0.2353180     0.7521400
  H        2.3826970     1.8764090     0.7176150
  H        2.3879470    -2.1054110    -0.9150460
  H        4.8399070     1.8514100     0.7945710
  H        4.8825510    -2.1268580    -0.8422600
  H        6.1161710    -0.1361850     0.0199920
units angstrom
no_reorient  #important for SAPT in psi4, default
symmetry c1  #important for SAPT in psi4, default
}

set PROPERTIES_ORIGIN ["COM"]
properties('MP2/aug-cc-pvtz', properties = ['dipole'])
--------------------------------------------------------------------------

    Molecular point group: c1
  Charge       = 0
  Multiplicity = 1
  Basis Set: AUG-CC-PVTZ
    Blend: AUG-CC-PVTZ
  Basis Set: (AUG-CC-PVTZ AUX)
    Blend: AUG-CC-PVTZ-JKFIT

    Orbital Energies [Eh]
    ---------------------

    Doubly Occupied:

       1A    -20.583919     2A    -11.299927     3A    -11.292186
       4A    -11.249770     5A    -11.243541     6A    -11.238658
       7A    -11.237150     8A    -11.234628     9A    -11.232097
      10A    -11.231988    11A    -11.231844    12A    -11.228036
      13A    -11.225691    14A    -11.222524    15A    -11.209735
      16A     -1.404433    17A     -1.164644    18A     -1.155096
      19A     -1.069909    20A     -1.037376    21A     -1.012820
      22A     -0.996205    23A     -0.967031    24A     -0.902096
      25A     -0.835862    26A     -0.830562    27A     -0.798412
      28A     -0.783088    29A     -0.723426    30A     -0.684498
      31A     -0.669496    32A     -0.649098    33A     -0.647623
      34A     -0.631658    35A     -0.621009    36A     -0.615900
      37A     -0.594027    38A     -0.583265    39A     -0.576793
      40A     -0.565432    41A     -0.543803    42A     -0.533322
      43A     -0.526693    44A     -0.505413    45A     -0.490305
      46A     -0.486220    47A     -0.482813    48A     -0.471581
      49A     -0.452520    50A     -0.353347    51A     -0.336450
      52A     -0.321915    53A     -0.313012

  @DF-RHF Final Energy:  -613.30929059475625

   => Energetics <=

    Nuclear Repulsion Energy =            873.2115757655869857
    One-Electron Energy =               -2564.4440355600586372
    Two-Electron Energy =                1077.9231691997154030
    Total Energy =                       -613.3092905947562485
  Basis Set: (AUG-CC-PVTZ AUX)
    Blend: AUG-CC-PVTZ-RI
    Molecular point group: c1

    Geometry (in Angstrom), charge = 0, multiplicity = 1:

       Center              X                  Y                   Z               Mass
    ------------   -----------------  -----------------  -----------------  -----------------
         O            0.835233364411    -0.245122080525    -0.198577247184    15.994914619570
         C           -1.383549635589     0.478321919475     0.165259752816    12.000000000000
         C            0.062033364411     0.853222919475     0.299734752816    12.000000000000
         C           -4.106327635589    -0.239424080525    -0.048919247184    12.000000000000
         C           -1.859575635589    -0.691328080525     0.770671752816    12.000000000000
         C           -2.275219635589     1.280869919475    -0.550386247184    12.000000000000
         C           -3.202434635589    -1.043380080525     0.661032752816    12.000000000000
         C           -3.622540635589     0.928260919475    -0.649017247184    12.000000000000
         C            2.201739364411    -0.135009080525    -0.105299247184    12.000000000000
         C           -5.565850635589    -0.605235080525    -0.126408247184    12.000000000000
         C            2.883772364411     0.987029919475     0.377674752816    12.000000000000
         C            2.916911364411    -1.257649080525    -0.544646247184    12.000000000000
         C            4.282913364411     0.970534919475     0.417669752816    12.000000000000
         C            4.306776364411    -1.257678080525    -0.499811247184    12.000000000000
         C            4.896854464411     0.017594519475     0.046100052816    12.000000000000
         H            0.280035364411     1.766275919475    -0.271586247184     1.007825032230
         H            0.324797364411     1.037167919475     1.351644752816     1.007825032230
         H           -1.167745635589    -1.332228080525     1.313256752816     1.007825032230
         H           -1.915837635589     2.184855919475    -1.039673247184     1.007825032230
         H           -3.557019635589    -1.960051080525     1.130170752816     1.007825032230
         H           -4.303644635589     1.562704919475    -1.214047247184     1.007825032230
         H           -6.034182635589    -0.168581080525    -1.012962247184     1.007825032230
         H           -5.697705635589    -1.690122080525    -0.172090247184     1.007825032230
         H           -6.111495635589    -0.242105080525     0.751452752816     1.007825032230
         H            2.352389364411     1.869621919475     0.716927752816     1.007825032230
         H            2.357639364411    -2.112198080525    -0.915733247184     1.007825032230
         H            4.809599364411     1.844622919475     0.793883752816     1.007825032230
         H            4.852243364411    -2.133645080525    -0.842947247184     1.007825032230
         H            6.085863364411    -0.142972080525     0.019304752816     1.007825032230

  Basis Set: AUG-CC-PVTZ
    Blend: AUG-CC-PVTZ
  Basis Set: (AUG-CC-PVTZ AUX)
    Blend: AUG-CC-PVTZ-JKFIT
	 Reference Energy          =    -613.3092905947562485 [Eh]
	 Singles Energy            =      -0.0000000000000000 [Eh]
	 Same-Spin Energy          =      -0.6718479351045279 [Eh]
	 Opposite-Spin Energy      =      -2.1177629627353656 [Eh]
	 Correlation Energy        =      -2.7896108978398937 [Eh]
	 Total Energy              =    -616.0989014925961555 [Eh]

	 ================> DF-SCS-MP2 Energies <==================
	-----------------------------------------------------------
	 SCS Same-Spin Scale       =       0.3333333333333333 [-]
	 SCS Opposite-Spin Scale   =       1.2000000000000000 [-]
	 SCS Same-Spin Energy      =      -0.2239493117015093 [Eh]
	 SCS Opposite-Spin Energy  =      -2.5413155552824387 [Eh]
	 SCS Correlation Energy    =      -2.7652648669839479 [Eh]
	 SCS Total Energy          =    -616.0745554617401467 [Eh]
	-----------------------------------------------------------

  Dipole Moment: [D]
     X:    -1.0122      Y:     0.6134      Z:     0.4201     Total:     1.2559

*** Psi4 exiting successfully. Buy a developer a beer!
