                               Psi4 1.4a3.dev225

  ==> Input File <==

--------------------------------------------------------------------------
#psi4
#
memory 32 gb

molecule  {
0 1
  O        0.8655410    -0.2383350    -0.1978900
  C       -1.3532420     0.4851090     0.1659470
  C        0.0923410     0.8600100     0.3004220
  C       -4.0760200    -0.2326370    -0.0482320
  C       -1.8292680    -0.6845410     0.7713590
  C       -2.2449120     1.2876570    -0.5496990
  C       -3.1721270    -1.0365930     0.6617200
  C       -3.5439829     0.9476756    -0.6447978
  C        2.2320470    -0.1282220    -0.1046120
  C       -5.5355430    -0.5984480    -0.1257210
  C        2.9140800     0.9938170     0.3783620
  C        2.9472190    -1.2508620    -0.5439590
  C        4.3132210     0.9773220     0.4183570
  C        4.3370840    -1.2508910    -0.4991240
  C        5.0300920    -0.1353830    -0.0155080
  H        0.3103430     1.7730630    -0.2708990
  H        0.3551050     1.0439550     1.3523320
  H       -1.1374380    -1.3254410     1.3139440
  H       -1.8855300     2.1916430    -1.0389860
  H       -3.5267120    -1.9532640     1.1308580
  H       -4.2733370     1.5694920    -1.2133600
  H       -6.0038750    -0.1617940    -1.0122750
  H       -5.6673980    -1.6833350    -0.1714030
  H       -6.0811880    -0.2353180     0.7521400
  H        2.3826970     1.8764090     0.7176150
  H        2.3879470    -2.1054110    -0.9150460
  H        4.8399070     1.8514100     0.7945710
  H        4.8825510    -2.1268580    -0.8422600
  H        6.1161710    -0.1361850     0.0199920
units angstrom
no_reorient  #important for SAPT in psi4, default
symmetry c1  #important for SAPT in psi4, default
}

set PROPERTIES_ORIGIN ["COM"]
properties('MP2/aug-cc-pvtz', properties = ['dipole'])
--------------------------------------------------------------------------

    Molecular point group: c1
  Charge       = 0
  Multiplicity = 1
  Basis Set: AUG-CC-PVTZ
    Blend: AUG-CC-PVTZ
  Basis Set: (AUG-CC-PVTZ AUX)
    Blend: AUG-CC-PVTZ-JKFIT

    Orbital Energies [Eh]
    ---------------------

    Doubly Occupied:

       1A    -20.583667     2A    -11.300841     3A    -11.292879
       4A    -11.246402     5A    -11.240848     6A    -11.239287
       7A    -11.238414     8A    -11.234157     9A    -11.232808
      10A    -11.232684    11A    -11.231388    12A    -11.231138
      13A    -11.227552    14A    -11.227437    15A    -11.227142
      16A     -1.404616    17A     -1.160697    18A     -1.143786
      19A     -1.064891    20A     -1.020381    21A     -1.017010
      22A     -1.007670    23A     -0.965515    24A     -0.898574
      25A     -0.831808    26A     -0.828389    27A     -0.808836
      28A     -0.783985    29A     -0.721032    30A     -0.684417
      31A     -0.671386    32A     -0.663530    33A     -0.644154
      34A     -0.627585    35A     -0.621741    36A     -0.607810
      37A     -0.586617    38A     -0.584088    39A     -0.577361
      40A     -0.563054    41A     -0.544325    42A     -0.531647
      43A     -0.523419    44A     -0.513950    45A     -0.493895
      46A     -0.488014    47A     -0.480923    48A     -0.477641
      49A     -0.463786    50A     -0.342752    51A     -0.339786
      52A     -0.317908    53A     -0.312142

  @DF-RHF Final Energy:  -613.36816882565233

   => Energetics <=

    Nuclear Repulsion Energy =            871.2402317542466790
    One-Electron Energy =               -2560.6052722410108800
    Two-Electron Energy =                1075.9968716611117543
    Total Energy =                       -613.3681688256524467
  Basis Set: (AUG-CC-PVTZ AUX)
    Blend: AUG-CC-PVTZ-RI
    Molecular point group: c1

    Geometry (in Angstrom), charge = 0, multiplicity = 1:

       Center              X                  Y                   Z               Mass
    ------------   -----------------  -----------------  -----------------  -----------------
         O            0.826075771727    -0.236209388934    -0.195017725193    15.994914619570
         C           -1.392707228273     0.487234611066     0.168819274807    12.000000000000
         C            0.052875771727     0.862135611066     0.303294274807    12.000000000000
         C           -4.115485228273    -0.230511388934    -0.045359725193    12.000000000000
         C           -1.868733228273    -0.682415388934     0.774231274807    12.000000000000
         C           -2.284377228273     1.289782611066    -0.546826725193    12.000000000000
         C           -3.211592228273    -1.034467388934     0.664592274807    12.000000000000
         C           -3.583448128273     0.949801211066    -0.641925525193    12.000000000000
         C            2.192581771727    -0.126096388934    -0.101739725193    12.000000000000
         C           -5.575008228273    -0.596322388934    -0.122848725193    12.000000000000
         C            2.874614771727     0.995942611066     0.381234274807    12.000000000000
         C            2.907753771727    -1.248736388934    -0.541086725193    12.000000000000
         C            4.273755771727     0.979447611066     0.421229274807    12.000000000000
         C            4.297618771727    -1.248765388934    -0.496251725193    12.000000000000
         C            4.990626771727    -0.133257388934    -0.012635725193    12.000000000000
         H            0.270877771727     1.775188611066    -0.268026725193     1.007825032230
         H            0.315639771727     1.046080611066     1.355204274807     1.007825032230
         H           -1.176903228273    -1.323315388934     1.316816274807     1.007825032230
         H           -1.924995228273     2.193768611066    -1.036113725193     1.007825032230
         H           -3.566177228273    -1.951138388934     1.133730274807     1.007825032230
         H           -4.312802228273     1.571617611066    -1.210487725193     1.007825032230
         H           -6.043340228273    -0.159668388934    -1.009402725193     1.007825032230
         H           -5.706863228273    -1.681209388934    -0.168530725193     1.007825032230
         H           -6.120653228273    -0.233192388934     0.755012274807     1.007825032230
         H            2.343231771727     1.878534611066     0.720487274807     1.007825032230
         H            2.348481771727    -2.103285388934    -0.912173725193     1.007825032230
         H            4.800441771727     1.853535611066     0.797443274807     1.007825032230
         H            4.843085771727    -2.124732388934    -0.839387725193     1.007825032230
         H            6.076705771727    -0.134059388934     0.022864274807     1.007825032230

  Basis Set: AUG-CC-PVTZ
    Blend: AUG-CC-PVTZ
  Basis Set: (AUG-CC-PVTZ AUX)
    Blend: AUG-CC-PVTZ-JKFIT
	 Reference Energy          =    -613.3681688256523330 [Eh]
	 Singles Energy            =      -0.0000000000000000 [Eh]
	 Same-Spin Energy          =      -0.6727937016581443 [Eh]
	 Opposite-Spin Energy      =      -2.1166292780659086 [Eh]
	 Correlation Energy        =      -2.7894229797240531 [Eh]
	 Total Energy              =    -616.1575918053763417 [Eh]

	 ================> DF-SCS-MP2 Energies <==================
	-----------------------------------------------------------
	 SCS Same-Spin Scale       =       0.3333333333333333 [-]
	 SCS Opposite-Spin Scale   =       1.2000000000000000 [-]
	 SCS Same-Spin Energy      =      -0.2242645672193814 [Eh]
	 SCS Opposite-Spin Energy  =      -2.5399551336790904 [Eh]
	 SCS Correlation Energy    =      -2.7642197008984719 [Eh]
	 SCS Total Energy          =    -616.1323885265508125 [Eh]
	-----------------------------------------------------------

  Dipole Moment: [D]
     X:    -1.0348      Y:     0.7125      Z:     0.4808     Total:     1.3452

*** Psi4 exiting successfully. Buy a developer a beer!
