                               Psi4 1.4a3.dev225

  ==> Input File <==

--------------------------------------------------------------------------
#psi4
#
memory 32 gb

molecule  {
0 1
  O        0.8655410    -0.2383350    -0.1978900
  C       -1.3532420     0.4851090     0.1659470
  C        0.0923410     0.8600100     0.3004220
  C       -4.0760200    -0.2326370    -0.0482320
  C       -1.8292680    -0.6845410     0.7713590
  C       -2.2449120     1.2876570    -0.5496990
  C       -3.1721270    -1.0365930     0.6617200
  C       -3.5922330     0.9350480    -0.6483300
  C        2.2320470    -0.1282220    -0.1046120
  C       -5.5355430    -0.5984480    -0.1257210
  C        2.9140800     0.9938170     0.3783620
  C        2.9472190    -1.2508620    -0.5439590
  C        4.3132210     0.9773220     0.4183570
  C        4.3370840    -1.2508910    -0.4991240
  C        5.0300920    -0.1353830    -0.0155080
  H        0.3103430     1.7730630    -0.2708990
  H        0.3551050     1.0439550     1.3523320
  H       -1.1056448    -1.3548937     1.3388786
  H       -1.8855300     2.1916430    -1.0389860
  H       -3.5267120    -1.9532640     1.1308580
  H       -4.2733370     1.5694920    -1.2133600
  H       -6.0038750    -0.1617940    -1.0122750
  H       -5.6673980    -1.6833350    -0.1714030
  H       -6.0811880    -0.2353180     0.7521400
  H        2.3826970     1.8764090     0.7176150
  H        2.3879470    -2.1054110    -0.9150460
  H        4.8399070     1.8514100     0.7945710
  H        4.8825510    -2.1268580    -0.8422600
  H        6.1161710    -0.1361850     0.0199920
units angstrom
no_reorient  #important for SAPT in psi4, default
symmetry c1  #important for SAPT in psi4, default
}

set PROPERTIES_ORIGIN ["COM"]
properties('MP2/aug-cc-pvtz', properties = ['dipole'])
--------------------------------------------------------------------------

    Molecular point group: c1
  Charge       = 0
  Multiplicity = 1
  Basis Set: AUG-CC-PVTZ
    Blend: AUG-CC-PVTZ
  Basis Set: (AUG-CC-PVTZ AUX)
    Blend: AUG-CC-PVTZ-JKFIT

    Orbital Energies [Eh]
    ---------------------

    Doubly Occupied:

       1A    -20.583773     2A    -11.300962     3A    -11.293191
       4A    -11.244180     5A    -11.240916     6A    -11.240852
       7A    -11.239350     8A    -11.239304     9A    -11.237890
      10A    -11.232891    11A    -11.232641    12A    -11.232437
      13A    -11.227622    14A    -11.227208    15A    -11.226074
      16A     -1.404748    17A     -1.158851    18A     -1.143703
      19A     -1.067051    20A     -1.017692    21A     -1.012609
      22A     -1.007983    23A     -0.964140    24A     -0.899431
      25A     -0.832423    26A     -0.830027    27A     -0.808914
      28A     -0.781127    29A     -0.721103    30A     -0.683037
      31A     -0.670573    32A     -0.663611    33A     -0.642382
      34A     -0.628805    35A     -0.619825    36A     -0.609347
      37A     -0.586726    38A     -0.580104    39A     -0.577169
      40A     -0.564016    41A     -0.543383    42A     -0.531611
      43A     -0.522914    44A     -0.513862    45A     -0.491463
      46A     -0.485369    47A     -0.484465    48A     -0.478897
      49A     -0.463968    50A     -0.339900    51A     -0.337007
      52A     -0.322523    53A     -0.312250

  @DF-RHF Final Energy:  -613.36908042263667

   => Energetics <=

    Nuclear Repulsion Energy =            870.5129982506525721
    One-Electron Energy =               -2559.1595593008560172
    Two-Electron Energy =                1075.2774806275667743
    Total Energy =                       -613.3690804226366708
  Basis Set: (AUG-CC-PVTZ AUX)
    Blend: AUG-CC-PVTZ-RI
    Molecular point group: c1

    Geometry (in Angstrom), charge = 0, multiplicity = 1:

       Center              X                  Y                   Z               Mass
    ------------   -----------------  -----------------  -----------------  -----------------
         O            0.828836735328    -0.235294647470    -0.194930616172    15.994914619570
         C           -1.389946264672     0.488149352530     0.168906383828    12.000000000000
         C            0.055636735328     0.863050352530     0.303381383828    12.000000000000
         C           -4.112724264672    -0.229596647470    -0.045272616172    12.000000000000
         C           -1.865972264672    -0.681500647470     0.774318383828    12.000000000000
         C           -2.281616264672     1.290697352530    -0.546739616172    12.000000000000
         C           -3.208831264672    -1.033552647470     0.664679383828    12.000000000000
         C           -3.628937264672     0.938088352530    -0.645370616172    12.000000000000
         C            2.195342735328    -0.125181647470    -0.101652616172    12.000000000000
         C           -5.572247264672    -0.595407647470    -0.122761616172    12.000000000000
         C            2.877375735328     0.996857352530     0.381321383828    12.000000000000
         C            2.910514735328    -1.247821647470    -0.540999616172    12.000000000000
         C            4.276516735328     0.980362352530     0.421316383828    12.000000000000
         C            4.300379735328    -1.247850647470    -0.496164616172    12.000000000000
         C            4.993387735328    -0.132342647470    -0.012548616172    12.000000000000
         H            0.273638735328     1.776103352530    -0.267939616172     1.007825032230
         H            0.318400735328     1.046995352530     1.355291383828     1.007825032230
         H           -1.142349064672    -1.351853347470     1.341837983828     1.007825032230
         H           -1.922234264672     2.194683352530    -1.036026616172     1.007825032230
         H           -3.563416264672    -1.950223647470     1.133817383828     1.007825032230
         H           -4.310041264672     1.572532352530    -1.210400616172     1.007825032230
         H           -6.040579264672    -0.158753647470    -1.009315616172     1.007825032230
         H           -5.704102264672    -1.680294647470    -0.168443616172     1.007825032230
         H           -6.117892264672    -0.232277647470     0.755099383828     1.007825032230
         H            2.345992735328     1.879449352530     0.720574383828     1.007825032230
         H            2.351242735328    -2.102370647470    -0.912086616172     1.007825032230
         H            4.803202735328     1.854450352530     0.797530383828     1.007825032230
         H            4.845846735328    -2.123817647470    -0.839300616172     1.007825032230
         H            6.079466735328    -0.133144647470     0.022951383828     1.007825032230

  Basis Set: AUG-CC-PVTZ
    Blend: AUG-CC-PVTZ
  Basis Set: (AUG-CC-PVTZ AUX)
    Blend: AUG-CC-PVTZ-JKFIT
	 Reference Energy          =    -613.3690804226366708 [Eh]
	 Singles Energy            =      -0.0000000000000000 [Eh]
	 Same-Spin Energy          =      -0.6727894011000490 [Eh]
	 Opposite-Spin Energy      =      -2.1169839549788496 [Eh]
	 Correlation Energy        =      -2.7897733560788986 [Eh]
	 Total Energy              =    -616.1588537787155246 [Eh]

	 ================> DF-SCS-MP2 Energies <==================
	-----------------------------------------------------------
	 SCS Same-Spin Scale       =       0.3333333333333333 [-]
	 SCS Opposite-Spin Scale   =       1.2000000000000000 [-]
	 SCS Same-Spin Energy      =      -0.2242631337000163 [Eh]
	 SCS Opposite-Spin Energy  =      -2.5403807459746193 [Eh]
	 SCS Correlation Energy    =      -2.7646438796746358 [Eh]
	 SCS Total Energy          =    -616.1337243023112933 [Eh]
	-----------------------------------------------------------

  Dipole Moment: [D]
     X:    -1.0162      Y:     0.7390      Z:     0.4614     Total:     1.3386

*** Psi4 exiting successfully. Buy a developer a beer!
