                               Psi4 1.4a3.dev225

  ==> Input File <==

--------------------------------------------------------------------------
#psi4
#
memory 32 gb

molecule  {
0 1
  O        0.8655410    -0.2383350    -0.1978900
  C       -1.3532420     0.4851090     0.1659470
  C        0.0923410     0.8600100     0.3004220
  C       -4.0760200    -0.2326370    -0.0482320
  C       -1.8292680    -0.6845410     0.7713590
  C       -2.2449120     1.2876570    -0.5496990
  C       -3.1721270    -1.0365930     0.6617200
  C       -3.5922330     0.9350480    -0.6483300
  C        2.2320470    -0.1282220    -0.1046120
  C       -5.5355430    -0.5984480    -0.1257210
  C        2.9140800     0.9938170     0.3783620
  C        2.9472190    -1.2508620    -0.5439590
  C        4.3132210     0.9773220     0.4183570
  C        4.3370840    -1.2508910    -0.4991240
  C        5.0300920    -0.1353830    -0.0155080
  H        0.3103430     1.7730630    -0.2708990
  H        0.3551050     1.0439550     1.3523320
  H       -1.1374380    -1.3254410     1.3139440
  H       -1.8855300     2.1916430    -1.0389860
  H       -3.5267120    -1.9532640     1.1308580
  H       -4.2733370     1.5694920    -1.2133600
  H       -6.0038750    -0.1617940    -1.0122750
  H       -5.6673980    -1.6833350    -0.1714030
  H       -6.0811880    -0.2353180     0.7521400
  H        2.4316890     1.7950366     0.6863369
  H        2.3879470    -2.1054110    -0.9150460
  H        4.8399070     1.8514100     0.7945710
  H        4.8825510    -2.1268580    -0.8422600
  H        6.1161710    -0.1361850     0.0199920
units angstrom
no_reorient  #important for SAPT in psi4, default
symmetry c1  #important for SAPT in psi4, default
}

set PROPERTIES_ORIGIN ["COM"]
properties('MP2/aug-cc-pvtz', properties = ['dipole'])
--------------------------------------------------------------------------

    Molecular point group: c1
  Charge       = 0
  Multiplicity = 1
  Basis Set: AUG-CC-PVTZ
    Blend: AUG-CC-PVTZ
  Basis Set: (AUG-CC-PVTZ AUX)
    Blend: AUG-CC-PVTZ-JKFIT

    Orbital Energies [Eh]
    ---------------------

    Doubly Occupied:

       1A    -20.583864     2A    -11.300160     3A    -11.293583
       4A    -11.243979     5A    -11.240184     6A    -11.239325
       7A    -11.239100     8A    -11.237726     9A    -11.235125
      10A    -11.232383    11A    -11.232225    12A    -11.226987
      13A    -11.226631    14A    -11.225963    15A    -11.221082
      16A     -1.404891    17A     -1.158994    18A     -1.143915
      19A     -1.067135    20A     -1.020697    21A     -1.013617
      22A     -1.009144    23A     -0.964425    24A     -0.900223
      25A     -0.835050    26A     -0.832870    27A     -0.810577
      28A     -0.783156    29A     -0.724617    30A     -0.685219
      31A     -0.672374    32A     -0.668326    33A     -0.644371
      34A     -0.632225    35A     -0.620775    36A     -0.612793
      37A     -0.589206    38A     -0.583689    39A     -0.577119
      40A     -0.565102    41A     -0.543376    42A     -0.531710
      43A     -0.522913    44A     -0.515132    45A     -0.491821
      46A     -0.486679    47A     -0.485247    48A     -0.480558
      49A     -0.464074    50A     -0.339591    51A     -0.336875
      52A     -0.322417    53A     -0.311833

  @DF-RHF Final Energy:  -613.36575524272916

   => Energetics <=

    Nuclear Repulsion Energy =            871.2457519476854486
    One-Electron Energy =               -2560.5609079127002587
    Two-Electron Energy =                1075.9494007222856453
    Total Energy =                       -613.3657552427291648
  Basis Set: (AUG-CC-PVTZ AUX)
    Blend: AUG-CC-PVTZ-RI
    Molecular point group: c1

    Geometry (in Angstrom), charge = 0, multiplicity = 1:

       Center              X                  Y                   Z               Mass
    ------------   -----------------  -----------------  -----------------  -----------------
         O            0.828749239162    -0.235030514234    -0.194644642980    15.994914619570
         C           -1.390033760838     0.488413485766     0.169192357020    12.000000000000
         C            0.055549239162     0.863314485766     0.303667357020    12.000000000000
         C           -4.112811760838    -0.229332514234    -0.044986642980    12.000000000000
         C           -1.866059760838    -0.681236514234     0.774604357020    12.000000000000
         C           -2.281703760838     1.290961485766    -0.546453642980    12.000000000000
         C           -3.208918760838    -1.033288514234     0.664965357020    12.000000000000
         C           -3.629024760838     0.938352485766    -0.645084642980    12.000000000000
         C            2.195255239162    -0.124917514234    -0.101366642980    12.000000000000
         C           -5.572334760838    -0.595143514234    -0.122475642980    12.000000000000
         C            2.877288239162     0.997121485766     0.381607357020    12.000000000000
         C            2.910427239162    -1.247557514234    -0.540713642980    12.000000000000
         C            4.276429239162     0.980626485766     0.421602357020    12.000000000000
         C            4.300292239162    -1.247586514234    -0.495878642980    12.000000000000
         C            4.993300239162    -0.132078514234    -0.012262642980    12.000000000000
         H            0.273551239162     1.776367485766    -0.267653642980     1.007825032230
         H            0.318313239162     1.047259485766     1.355577357020     1.007825032230
         H           -1.174229760838    -1.322136514234     1.317189357020     1.007825032230
         H           -1.922321760838     2.194947485766    -1.035740642980     1.007825032230
         H           -3.563503760838    -1.949959514234     1.134103357020     1.007825032230
         H           -4.310128760838     1.572796485766    -1.210114642980     1.007825032230
         H           -6.040666760838    -0.158489514234    -1.009029642980     1.007825032230
         H           -5.704189760838    -1.680030514234    -0.168157642980     1.007825032230
         H           -6.117979760838    -0.232013514234     0.755385357020     1.007825032230
         H            2.394897239162     1.798341085766     0.689582257020     1.007825032230
         H            2.351155239162    -2.102106514234    -0.911800642980     1.007825032230
         H            4.803115239162     1.854714485766     0.797816357020     1.007825032230
         H            4.845759239162    -2.123553514234    -0.839014642980     1.007825032230
         H            6.079379239162    -0.132880514234     0.023237357020     1.007825032230

  Basis Set: AUG-CC-PVTZ
    Blend: AUG-CC-PVTZ
  Basis Set: (AUG-CC-PVTZ AUX)
    Blend: AUG-CC-PVTZ-JKFIT
	 Reference Energy          =    -613.3657552427291648 [Eh]
	 Singles Energy            =      -0.0000000000000000 [Eh]
	 Same-Spin Energy          =      -0.6723884221344836 [Eh]
	 Opposite-Spin Energy      =      -2.1159429755863584 [Eh]
	 Correlation Energy        =      -2.7883313977208419 [Eh]
	 Total Energy              =    -616.1540866404500321 [Eh]

	 ================> DF-SCS-MP2 Energies <==================
	-----------------------------------------------------------
	 SCS Same-Spin Scale       =       0.3333333333333333 [-]
	 SCS Opposite-Spin Scale   =       1.2000000000000000 [-]
	 SCS Same-Spin Energy      =      -0.2241294740448279 [Eh]
	 SCS Opposite-Spin Energy  =      -2.5391315707036299 [Eh]
	 SCS Correlation Energy    =      -2.7632610447484578 [Eh]
	 SCS Total Energy          =    -616.1290162874776115 [Eh]
	-----------------------------------------------------------

  Dipole Moment: [D]
     X:    -1.0271      Y:     0.7427      Z:     0.4754     Total:     1.3537

*** Psi4 exiting successfully. Buy a developer a beer!
