                               Psi4 1.4a3.dev225

  ==> Input File <==

--------------------------------------------------------------------------
#psi4
#
memory 32 gb

molecule  {
0 1
  O        0.8655410    -0.2383350    -0.1978900
  C       -1.3532420     0.4851090     0.1659470
  C        0.0923410     0.8600100     0.3004220
  C       -4.0760200    -0.2326370    -0.0482320
  C       -1.8292680    -0.6845410     0.7713590
  C       -2.2449120     1.2876570    -0.5496990
  C       -3.3010115    -0.9219583     0.5604892
  C       -3.5922330     0.9350480    -0.6483300
  C        2.2320470    -0.1282220    -0.1046120
  C       -5.5355430    -0.5984480    -0.1257210
  C        2.9140800     0.9938170     0.3783620
  C        2.9472190    -1.2508620    -0.5439590
  C        4.3132210     0.9773220     0.4183570
  C        4.3370840    -1.2508910    -0.4991240
  C        5.0300920    -0.1353830    -0.0155080
  H        0.3103430     1.7730630    -0.2708990
  H        0.3551050     1.0439550     1.3523320
  H       -1.1374380    -1.3254410     1.3139440
  H       -1.8855300     2.1916430    -1.0389860
  H       -3.5267120    -1.9532640     1.1308580
  H       -4.2733370     1.5694920    -1.2133600
  H       -6.0038750    -0.1617940    -1.0122750
  H       -5.6673980    -1.6833350    -0.1714030
  H       -6.0811880    -0.2353180     0.7521400
  H        2.3826970     1.8764090     0.7176150
  H        2.3879470    -2.1054110    -0.9150460
  H        4.8399070     1.8514100     0.7945710
  H        4.8825510    -2.1268580    -0.8422600
  H        6.1161710    -0.1361850     0.0199920
units angstrom
no_reorient  #important for SAPT in psi4, default
symmetry c1  #important for SAPT in psi4, default
}

set PROPERTIES_ORIGIN ["COM"]
properties('MP2/aug-cc-pvtz', properties = ['dipole'])
--------------------------------------------------------------------------

    Molecular point group: c1
  Charge       = 0
  Multiplicity = 1
  Basis Set: AUG-CC-PVTZ
    Blend: AUG-CC-PVTZ
  Basis Set: (AUG-CC-PVTZ AUX)
    Blend: AUG-CC-PVTZ-JKFIT

    Orbital Energies [Eh]
    ---------------------

    Doubly Occupied:

       1A    -20.584905     2A    -11.301561     3A    -11.293337
       4A    -11.244546     5A    -11.241449     6A    -11.239900
       7A    -11.239731     8A    -11.237416     9A    -11.235989
      10A    -11.233497    11A    -11.228249    12A    -11.227767
      13A    -11.226827    14A    -11.223669    15A    -11.214818
      16A     -1.405694    17A     -1.175548    18A     -1.145821
      19A     -1.083198    20A     -1.019062    21A     -1.012598
      22A     -0.996395    23A     -0.961807    24A     -0.910637
      25A     -0.846082    26A     -0.831942    27A     -0.808266
      28A     -0.771328    29A     -0.721726    30A     -0.683475
      31A     -0.673156    32A     -0.664309    33A     -0.645180
      34A     -0.626514    35A     -0.624965    36A     -0.609067
      37A     -0.587612    38A     -0.582285    39A     -0.573170
      40A     -0.568745    41A     -0.539194    42A     -0.531036
      43A     -0.523756    44A     -0.516383    45A     -0.501516
      46A     -0.492895    47A     -0.483935    48A     -0.466697
      49A     -0.444375    50A     -0.355835    51A     -0.340226
      52A     -0.318948    53A     -0.312669

  @DF-RHF Final Energy:  -613.30990498044468

   => Energetics <=

    Nuclear Repulsion Energy =            872.6932061663602553
    One-Electron Energy =               -2563.3468064286921617
    Two-Electron Energy =                1077.3436952818874488
    Total Energy =                       -613.3099049804445713
  Basis Set: (AUG-CC-PVTZ AUX)
    Blend: AUG-CC-PVTZ-RI
    Molecular point group: c1

    Geometry (in Angstrom), charge = 0, multiplicity = 1:

       Center              X                  Y                   Z               Mass
    ------------   -----------------  -----------------  -----------------  -----------------
         O            0.836805540989    -0.242388377376    -0.188671800584    15.994914619570
         C           -1.381977459011     0.481055622624     0.175165199416    12.000000000000
         C            0.063605540989     0.855956622624     0.309640199416    12.000000000000
         C           -4.104755459011    -0.236690377376    -0.039013800584    12.000000000000
         C           -1.858003459011    -0.688594377376     0.780577199416    12.000000000000
         C           -2.273647459011     1.283603622624    -0.540480800584    12.000000000000
         C           -3.329746959011    -0.926011677376     0.569707399416    12.000000000000
         C           -3.620968459011     0.930994622624    -0.639111800584    12.000000000000
         C            2.203311540989    -0.132275377376    -0.095393800584    12.000000000000
         C           -5.564278459011    -0.602501377376    -0.116502800584    12.000000000000
         C            2.885344540989     0.989763622624     0.387580199416    12.000000000000
         C            2.918483540989    -1.254915377376    -0.534740800584    12.000000000000
         C            4.284485540989     0.973268622624     0.427575199416    12.000000000000
         C            4.308348540989    -1.254944377376    -0.489905800584    12.000000000000
         C            5.001356540989    -0.139436377376    -0.006289800584    12.000000000000
         H            0.281607540989     1.769009622624    -0.261680800584     1.007825032230
         H            0.326369540989     1.039901622624     1.361550199416     1.007825032230
         H           -1.166173459011    -1.329494377376     1.323162199416     1.007825032230
         H           -1.914265459011     2.187589622624    -1.029767800584     1.007825032230
         H           -3.555447459011    -1.957317377376     1.140076199416     1.007825032230
         H           -4.302072459011     1.565438622624    -1.204141800584     1.007825032230
         H           -6.032610459011    -0.165847377376    -1.003056800584     1.007825032230
         H           -5.696133459011    -1.687388377376    -0.162184800584     1.007825032230
         H           -6.109923459011    -0.239371377376     0.761358199416     1.007825032230
         H            2.353961540989     1.872355622624     0.726833199416     1.007825032230
         H            2.359211540989    -2.109464377376    -0.905827800584     1.007825032230
         H            4.811171540989     1.847356622624     0.803789199416     1.007825032230
         H            4.853815540989    -2.130911377376    -0.833041800584     1.007825032230
         H            6.087435540989    -0.140238377376     0.029210199416     1.007825032230

  Basis Set: AUG-CC-PVTZ
    Blend: AUG-CC-PVTZ
  Basis Set: (AUG-CC-PVTZ AUX)
    Blend: AUG-CC-PVTZ-JKFIT
	 Reference Energy          =    -613.3099049804446850 [Eh]
	 Singles Energy            =      -0.0000000000000000 [Eh]
	 Same-Spin Energy          =      -0.6725692621485895 [Eh]
	 Opposite-Spin Energy      =      -2.1184545843841125 [Eh]
	 Correlation Energy        =      -2.7910238465327017 [Eh]
	 Total Energy              =    -616.1009288269773378 [Eh]

	 ================> DF-SCS-MP2 Energies <==================
	-----------------------------------------------------------
	 SCS Same-Spin Scale       =       0.3333333333333333 [-]
	 SCS Opposite-Spin Scale   =       1.2000000000000000 [-]
	 SCS Same-Spin Energy      =      -0.2241897540495298 [Eh]
	 SCS Opposite-Spin Energy  =      -2.5421455012609351 [Eh]
	 SCS Correlation Energy    =      -2.7663352553104650 [Eh]
	 SCS Total Energy          =    -616.0762402357551082 [Eh]
	-----------------------------------------------------------

  Dipole Moment: [D]
     X:    -0.8155      Y:     0.8244      Z:     0.4466     Total:     1.2426

*** Psi4 exiting successfully. Buy a developer a beer!
