                               Psi4 1.4a3.dev225

  ==> Input File <==

--------------------------------------------------------------------------
#psi4
#
memory 32 gb

molecule  {
0 1
  O        0.8655410    -0.2383350    -0.1978900
  C       -1.3532420     0.4851090     0.1659470
  C        0.0923410     0.8600100     0.3004220
  C       -4.1091013    -0.1638783     0.0897854
  C       -1.8292680    -0.6845410     0.7713590
  C       -2.2449120     1.2876570    -0.5496990
  C       -3.1721270    -1.0365930     0.6617200
  C       -3.5922330     0.9350480    -0.6483300
  C        2.2320470    -0.1282220    -0.1046120
  C       -5.5355430    -0.5984480    -0.1257210
  C        2.9140800     0.9938170     0.3783620
  C        2.9472190    -1.2508620    -0.5439590
  C        4.3132210     0.9773220     0.4183570
  C        4.3370840    -1.2508910    -0.4991240
  C        5.0300920    -0.1353830    -0.0155080
  H        0.3103430     1.7730630    -0.2708990
  H        0.3551050     1.0439550     1.3523320
  H       -1.1374380    -1.3254410     1.3139440
  H       -1.8855300     2.1916430    -1.0389860
  H       -3.5267120    -1.9532640     1.1308580
  H       -4.2733370     1.5694920    -1.2133600
  H       -6.0038750    -0.1617940    -1.0122750
  H       -5.6673980    -1.6833350    -0.1714030
  H       -6.0811880    -0.2353180     0.7521400
  H        2.3826970     1.8764090     0.7176150
  H        2.3879470    -2.1054110    -0.9150460
  H        4.8399070     1.8514100     0.7945710
  H        4.8825510    -2.1268580    -0.8422600
  H        6.1161710    -0.1361850     0.0199920
units angstrom
no_reorient  #important for SAPT in psi4, default
symmetry c1  #important for SAPT in psi4, default
}

set PROPERTIES_ORIGIN ["COM"]
properties('MP2/aug-cc-pvtz', properties = ['dipole'])
--------------------------------------------------------------------------

    Molecular point group: c1
  Charge       = 0
  Multiplicity = 1
  Basis Set: AUG-CC-PVTZ
    Blend: AUG-CC-PVTZ
  Basis Set: (AUG-CC-PVTZ AUX)
    Blend: AUG-CC-PVTZ-JKFIT

    Orbital Energies [Eh]
    ---------------------

    Doubly Occupied:

       1A    -20.583899     2A    -11.301018     3A    -11.293241
       4A    -11.246474     5A    -11.240958     6A    -11.239395
       7A    -11.239334     8A    -11.237259     9A    -11.235305
      10A    -11.234637    11A    -11.232941    12A    -11.232818
      13A    -11.227678    14A    -11.227253    15A    -11.225944
      16A     -1.404852    17A     -1.157761    18A     -1.143512
      19A     -1.066481    20A     -1.017753    21A     -1.012922
      22A     -1.008177    23A     -0.964074    24A     -0.898898
      25A     -0.831747    26A     -0.831022    27A     -0.808458
      28A     -0.782229    29A     -0.721120    30A     -0.683581
      31A     -0.669805    32A     -0.663685    33A     -0.643984
      34A     -0.631696    35A     -0.619456    36A     -0.609150
      37A     -0.586729    38A     -0.582985    39A     -0.578755
      40A     -0.563046    41A     -0.543626    42A     -0.530051
      43A     -0.523187    44A     -0.514485    45A     -0.490885
      46A     -0.486953    47A     -0.484724    48A     -0.475737
      49A     -0.463389    50A     -0.339938    51A     -0.335887
      52A     -0.320560    53A     -0.312300

  @DF-RHF Final Energy:  -613.36249640928679

   => Energetics <=

    Nuclear Repulsion Energy =            870.3352856887854614
    One-Electron Energy =               -2558.7920638372770554
    Two-Electron Energy =                1075.0942817392049164
    Total Energy =                       -613.3624964092866776
  Basis Set: (AUG-CC-PVTZ AUX)
    Blend: AUG-CC-PVTZ-RI
    Molecular point group: c1

    Geometry (in Angstrom), charge = 0, multiplicity = 1:

       Center              X                  Y                   Z               Mass
    ------------   -----------------  -----------------  -----------------  -----------------
         O            0.831002348216    -0.239609479889    -0.203164045365    15.994914619570
         C           -1.387780651784     0.483834520111     0.160672954635    12.000000000000
         C            0.057802348216     0.858735520111     0.295147954635    12.000000000000
         C           -4.143639951784    -0.165152779889     0.084511354635    12.000000000000
         C           -1.863806651784    -0.685815479889     0.766084954635    12.000000000000
         C           -2.279450651784     1.286382520111    -0.554973045365    12.000000000000
         C           -3.206665651784    -1.037867479889     0.656445954635    12.000000000000
         C           -3.626771651784     0.933773520111    -0.653604045365    12.000000000000
         C            2.197508348216    -0.129496479889    -0.109886045365    12.000000000000
         C           -5.570081651784    -0.599722479889    -0.130995045365    12.000000000000
         C            2.879541348216     0.992542520111     0.373087954635    12.000000000000
         C            2.912680348216    -1.252136479889    -0.549233045365    12.000000000000
         C            4.278682348216     0.976047520111     0.413082954635    12.000000000000
         C            4.302545348216    -1.252165479889    -0.504398045365    12.000000000000
         C            4.995553348216    -0.136657479889    -0.020782045365    12.000000000000
         H            0.275804348216     1.771788520111    -0.276173045365     1.007825032230
         H            0.320566348216     1.042680520111     1.347057954635     1.007825032230
         H           -1.171976651784    -1.326715479889     1.308669954635     1.007825032230
         H           -1.920068651784     2.190368520111    -1.044260045365     1.007825032230
         H           -3.561250651784    -1.954538479889     1.125583954635     1.007825032230
         H           -4.307875651784     1.568217520111    -1.218634045365     1.007825032230
         H           -6.038413651784    -0.163068479889    -1.017549045365     1.007825032230
         H           -5.701936651784    -1.684609479889    -0.176677045365     1.007825032230
         H           -6.115726651784    -0.236592479889     0.746865954635     1.007825032230
         H            2.348158348216     1.875134520111     0.712340954635     1.007825032230
         H            2.353408348216    -2.106685479889    -0.920320045365     1.007825032230
         H            4.805368348216     1.850135520111     0.789296954635     1.007825032230
         H            4.848012348216    -2.128132479889    -0.847534045365     1.007825032230
         H            6.081632348216    -0.137459479889     0.014717954635     1.007825032230

  Basis Set: AUG-CC-PVTZ
    Blend: AUG-CC-PVTZ
  Basis Set: (AUG-CC-PVTZ AUX)
    Blend: AUG-CC-PVTZ-JKFIT
	 Reference Energy          =    -613.3624964092867913 [Eh]
	 Singles Energy            =      -0.0000000000000000 [Eh]
	 Same-Spin Energy          =      -0.6731050413437846 [Eh]
	 Opposite-Spin Energy      =      -2.1176954928677829 [Eh]
	 Correlation Energy        =      -2.7908005342115674 [Eh]
	 Total Energy              =    -616.1532969434983897 [Eh]

	 ================> DF-SCS-MP2 Energies <==================
	-----------------------------------------------------------
	 SCS Same-Spin Scale       =       0.3333333333333333 [-]
	 SCS Opposite-Spin Scale   =       1.2000000000000000 [-]
	 SCS Same-Spin Energy      =      -0.2243683471145949 [Eh]
	 SCS Opposite-Spin Energy  =      -2.5412345914413392 [Eh]
	 SCS Correlation Energy    =      -2.7656029385559342 [Eh]
	 SCS Total Energy          =    -616.1280993478427490 [Eh]
	-----------------------------------------------------------

  Dipole Moment: [D]
     X:    -0.9936      Y:     0.6982      Z:     0.4128     Total:     1.2826

*** Psi4 exiting successfully. Buy a developer a beer!
