                               Psi4 1.4a3.dev225

  ==> Input File <==

--------------------------------------------------------------------------
#psi4
#
memory 32 gb

molecule  {
0 1
  O        0.8655410    -0.2383350    -0.1978900
  C       -1.3532420     0.4851090     0.1659470
  C        0.0923410     0.8600100     0.3004220
  C       -4.0760200    -0.2326370    -0.0482320
  C       -1.8292680    -0.6845410     0.7713590
  C       -2.2449120     1.2876570    -0.5496990
  C       -3.1721270    -1.0365930     0.6617200
  C       -3.5922330     0.9350480    -0.6483300
  C        2.2320470    -0.1282220    -0.1046120
  C       -5.5355430    -0.5984480    -0.1257210
  C        2.9140800     0.9938170     0.3783620
  C        2.9472190    -1.2508620    -0.5439590
  C        4.3132210     0.9773220     0.4183570
  C        4.3370840    -1.2508910    -0.4991240
  C        5.0300920    -0.1353830    -0.0155080
  H        0.3103430     1.7730630    -0.2708990
  H        0.3551050     1.0439550     1.3523320
  H       -1.1374380    -1.3254410     1.3139440
  H       -1.8855300     2.1916430    -1.0389860
  H       -3.5267120    -1.9532640     1.1308580
  H       -4.2733370     1.5694920    -1.2133600
  H       -6.0038750    -0.1617940    -1.0122750
  H       -5.6673980    -1.6833350    -0.1714030
  H       -6.0811880    -0.2353180     0.7521400
  H        2.4806809     1.7136642     0.6550587
  H        2.3879470    -2.1054110    -0.9150460
  H        4.8399070     1.8514100     0.7945710
  H        4.8825510    -2.1268580    -0.8422600
  H        6.1161710    -0.1361850     0.0199920
units angstrom
no_reorient  #important for SAPT in psi4, default
symmetry c1  #important for SAPT in psi4, default
}

set PROPERTIES_ORIGIN ["COM"]
properties('MP2/aug-cc-pvtz', properties = ['dipole'])
--------------------------------------------------------------------------

    Molecular point group: c1
  Charge       = 0
  Multiplicity = 1
  Basis Set: AUG-CC-PVTZ
    Blend: AUG-CC-PVTZ
  Basis Set: (AUG-CC-PVTZ AUX)
    Blend: AUG-CC-PVTZ-JKFIT

    Orbital Energies [Eh]
    ---------------------

    Doubly Occupied:

       1A    -20.583901     2A    -11.299629     3A    -11.293913
       4A    -11.244101     5A    -11.239713     6A    -11.239509
       7A    -11.238978     8A    -11.237874     9A    -11.235269
      10A    -11.232487    11A    -11.232333    12A    -11.226446
      13A    -11.226154    14A    -11.226043    15A    -11.209198
      16A     -1.404991    17A     -1.159204    18A     -1.144644
      19A     -1.067247    20A     -1.026334    21A     -1.013755
      22A     -1.009705    23A     -0.964898    24A     -0.901200
      25A     -0.840973    26A     -0.833013    27A     -0.812331
      28A     -0.784028    29A     -0.729687    30A     -0.688176
      31A     -0.676713    32A     -0.669704    33A     -0.644887
      34A     -0.633256    35A     -0.621074    36A     -0.615312
      37A     -0.590474    38A     -0.583805    39A     -0.577222
      40A     -0.565835    41A     -0.543426    42A     -0.531651
      43A     -0.523007    44A     -0.516017    45A     -0.492240
      46A     -0.486747    47A     -0.485422    48A     -0.481622
      49A     -0.463992    50A     -0.339476    51A     -0.336982
      52A     -0.322565    53A     -0.311506

  @DF-RHF Final Energy:  -613.33653831431729

   => Energetics <=

    Nuclear Repulsion Energy =            871.8202239960653515
    One-Electron Energy =               -2561.5961932223372060
    Two-Electron Energy =                1076.4394309119545596
    Total Energy =                       -613.3365383143172949
  Basis Set: (AUG-CC-PVTZ AUX)
    Blend: AUG-CC-PVTZ-RI
    Molecular point group: c1

    Geometry (in Angstrom), charge = 0, multiplicity = 1:

       Center              X                  Y                   Z               Mass
    ------------   -----------------  -----------------  -----------------  -----------------
         O            0.828500000644    -0.234616545061    -0.194485520101    15.994914619570
         C           -1.390282999356     0.488827454939     0.169351479899    12.000000000000
         C            0.055300000644     0.863728454939     0.303826479899    12.000000000000
         C           -4.113060999356    -0.228918545061    -0.044827520101    12.000000000000
         C           -1.866308999356    -0.680822545061     0.774763479899    12.000000000000
         C           -2.281952999356     1.291375454939    -0.546294520101    12.000000000000
         C           -3.209167999356    -1.032874545061     0.665124479899    12.000000000000
         C           -3.629273999356     0.938766454939    -0.644925520101    12.000000000000
         C            2.195006000644    -0.124503545061    -0.101207520101    12.000000000000
         C           -5.572583999356    -0.594729545061    -0.122316520101    12.000000000000
         C            2.877039000644     0.997535454939     0.381766479899    12.000000000000
         C            2.910178000644    -1.247143545061    -0.540554520101    12.000000000000
         C            4.276180000644     0.981040454939     0.421761479899    12.000000000000
         C            4.300043000644    -1.247172545061    -0.495719520101    12.000000000000
         C            4.993051000644    -0.131664545061    -0.012103520101    12.000000000000
         H            0.273302000644     1.776781454939    -0.267494520101     1.007825032230
         H            0.318064000644     1.047673454939     1.355736479899     1.007825032230
         H           -1.174478999356    -1.321722545061     1.317348479899     1.007825032230
         H           -1.922570999356     2.195361454939    -1.035581520101     1.007825032230
         H           -3.563752999356    -1.949545545061     1.134262479899     1.007825032230
         H           -4.310377999356     1.573210454939    -1.209955520101     1.007825032230
         H           -6.040915999356    -0.158075545061    -1.008870520101     1.007825032230
         H           -5.704438999356    -1.679616545061    -0.167998520101     1.007825032230
         H           -6.118228999356    -0.231599545061     0.755544479899     1.007825032230
         H            2.443639900644     1.717382654939     0.658463179899     1.007825032230
         H            2.350906000644    -2.101692545061    -0.911641520101     1.007825032230
         H            4.802866000644     1.855128454939     0.797975479899     1.007825032230
         H            4.845510000644    -2.123139545061    -0.838855520101     1.007825032230
         H            6.079130000644    -0.132466545061     0.023396479899     1.007825032230

  Basis Set: AUG-CC-PVTZ
    Blend: AUG-CC-PVTZ
  Basis Set: (AUG-CC-PVTZ AUX)
    Blend: AUG-CC-PVTZ-JKFIT
	 Reference Energy          =    -613.3365383143172949 [Eh]
	 Singles Energy            =      -0.0000000000000000 [Eh]
	 Same-Spin Energy          =      -0.6722396245361877 [Eh]
	 Opposite-Spin Energy      =      -2.1158438294306849 [Eh]
	 Correlation Energy        =      -2.7880834539668724 [Eh]
	 Total Energy              =    -616.1246217682842143 [Eh]

	 ================> DF-SCS-MP2 Energies <==================
	-----------------------------------------------------------
	 SCS Same-Spin Scale       =       0.3333333333333333 [-]
	 SCS Opposite-Spin Scale   =       1.2000000000000000 [-]
	 SCS Same-Spin Energy      =      -0.2240798748453959 [Eh]
	 SCS Opposite-Spin Energy  =      -2.5390125953168217 [Eh]
	 SCS Correlation Energy    =      -2.7630924701622175 [Eh]
	 SCS Total Energy          =    -616.0996307844794728 [Eh]
	-----------------------------------------------------------

  Dipole Moment: [D]
     X:    -1.0447      Y:     0.7440      Z:     0.4755     Total:     1.3679

*** Psi4 exiting successfully. Buy a developer a beer!
