                               Psi4 1.4a3.dev225

  ==> Input File <==

--------------------------------------------------------------------------
#psi4
#
memory 32 gb

molecule  {
0 1
  O        0.8655410    -0.2383350    -0.1978900
  C       -1.3532420     0.4851090     0.1659470
  C        0.0923410     0.8600100     0.3004220
  C       -4.0760200    -0.2326370    -0.0482320
  C       -1.8292680    -0.6845410     0.7713590
  C       -2.2449120     1.2876570    -0.5496990
  C       -3.1721270    -1.0365930     0.6617200
  C       -3.5922330     0.9350480    -0.6483300
  C        2.2320470    -0.1282220    -0.1046120
  C       -5.5355430    -0.5984480    -0.1257210
  C        2.9140800     0.9938170     0.3783620
  C        2.9472190    -1.2508620    -0.5439590
  C        4.3132210     0.9773220     0.4183570
  C        4.3370840    -1.2508910    -0.4991240
  C        5.0300920    -0.1353830    -0.0155080
  H        0.3103430     1.7730630    -0.2708990
  H        0.3551050     1.0439550     1.3523320
  H       -1.1374380    -1.3254410     1.3139440
  H       -1.8855300     2.1916430    -1.0389860
  H       -3.5267120    -1.9532640     1.1308580
  H       -4.2733370     1.5694920    -1.2133600
  H       -6.0038750    -0.1617940    -1.0122750
  H       -5.6673980    -1.6833350    -0.1714030
  H       -6.1060908    -0.2187451     0.7922048
  H        2.3826970     1.8764090     0.7176150
  H        2.3879470    -2.1054110    -0.9150460
  H        4.8399070     1.8514100     0.7945710
  H        4.8825510    -2.1268580    -0.8422600
  H        6.1161710    -0.1361850     0.0199920
units angstrom
no_reorient  #important for SAPT in psi4, default
symmetry c1  #important for SAPT in psi4, default
}

set PROPERTIES_ORIGIN ["COM"]
properties('MP2/aug-cc-pvtz', properties = ['dipole'])
--------------------------------------------------------------------------

    Molecular point group: c1
  Charge       = 0
  Multiplicity = 1
  Basis Set: AUG-CC-PVTZ
    Blend: AUG-CC-PVTZ
  Basis Set: (AUG-CC-PVTZ AUX)
    Blend: AUG-CC-PVTZ-JKFIT

    Orbital Energies [Eh]
    ---------------------

    Doubly Occupied:

       1A    -20.584001     2A    -11.301089     3A    -11.293306
       4A    -11.244195     5A    -11.241018     6A    -11.239454
       7A    -11.239328     8A    -11.237722     9A    -11.235112
      10A    -11.233012    11A    -11.232539    12A    -11.232341
      13A    -11.231792    14A    -11.227744    15A    -11.227315
      16A     -1.404962    17A     -1.158967    18A     -1.143794
      19A     -1.066668    20A     -1.017718    21A     -1.013581
      22A     -1.008039    23A     -0.962600    24A     -0.897849
      25A     -0.833132    26A     -0.831382    27A     -0.808886
      28A     -0.782198    29A     -0.721239    30A     -0.683759
      31A     -0.670701    32A     -0.663758    33A     -0.643611
      34A     -0.631174    35A     -0.620773    36A     -0.609439
      37A     -0.586789    38A     -0.583741    39A     -0.568847
      40A     -0.564002    41A     -0.543693    42A     -0.531565
      43A     -0.523066    44A     -0.514136    45A     -0.490871
      46A     -0.486841    47A     -0.484758    48A     -0.478695
      49A     -0.464179    50A     -0.339999    51A     -0.336912
      52A     -0.322045    53A     -0.312386

  @DF-RHF Final Energy:  -613.36952907746650

   => Energetics <=

    Nuclear Repulsion Energy =            870.5298865779508333
    One-Electron Energy =               -2559.1853810105608318
    Two-Electron Energy =                1075.2859653551433894
    Total Energy =                       -613.3695290774664954
  Basis Set: (AUG-CC-PVTZ AUX)
    Blend: AUG-CC-PVTZ-RI
    Molecular point group: c1

    Geometry (in Angstrom), charge = 0, multiplicity = 1:

       Center              X                  Y                   Z               Mass
    ------------   -----------------  -----------------  -----------------  -----------------
         O            0.829125167232    -0.235528795407    -0.195007588664    15.994914619570
         C           -1.389657832768     0.487915204593     0.168829411336    12.000000000000
         C            0.055925167232     0.862816204593     0.303304411336    12.000000000000
         C           -4.112435832768    -0.229830795407    -0.045349588664    12.000000000000
         C           -1.865683832768    -0.681734795407     0.774241411336    12.000000000000
         C           -2.281327832768     1.290463204593    -0.546816588664    12.000000000000
         C           -3.208542832768    -1.033786795407     0.664602411336    12.000000000000
         C           -3.628648832768     0.937854204593    -0.645447588664    12.000000000000
         C            2.195631167232    -0.125415795407    -0.101729588664    12.000000000000
         C           -5.571958832768    -0.595641795407    -0.122838588664    12.000000000000
         C            2.877664167232     0.996623204593     0.381244411336    12.000000000000
         C            2.910803167232    -1.248055795407    -0.541076588664    12.000000000000
         C            4.276805167232     0.980128204593     0.421239411336    12.000000000000
         C            4.300668167232    -1.248084795407    -0.496241588664    12.000000000000
         C            4.993676167232    -0.132576795407    -0.012625588664    12.000000000000
         H            0.273927167232     1.775869204593    -0.268016588664     1.007825032230
         H            0.318689167232     1.046761204593     1.355214411336     1.007825032230
         H           -1.173853832768    -1.322634795407     1.316826411336     1.007825032230
         H           -1.921945832768     2.194449204593    -1.036103588664     1.007825032230
         H           -3.563127832768    -1.950457795407     1.133740411336     1.007825032230
         H           -4.309752832768     1.572298204593    -1.210477588664     1.007825032230
         H           -6.040290832768    -0.158987795407    -1.009392588664     1.007825032230
         H           -5.703813832768    -1.680528795407    -0.168520588664     1.007825032230
         H           -6.142506632768    -0.215938895407     0.795087211336     1.007825032230
         H            2.346281167232     1.879215204593     0.720497411336     1.007825032230
         H            2.351531167232    -2.102604795407    -0.912163588664     1.007825032230
         H            4.803491167232     1.854216204593     0.797453411336     1.007825032230
         H            4.846135167232    -2.124051795407    -0.839377588664     1.007825032230
         H            6.079755167232    -0.133378795407     0.022874411336     1.007825032230

  Basis Set: AUG-CC-PVTZ
    Blend: AUG-CC-PVTZ
  Basis Set: (AUG-CC-PVTZ AUX)
    Blend: AUG-CC-PVTZ-JKFIT
	 Reference Energy          =    -613.3695290774664954 [Eh]
	 Singles Energy            =      -0.0000000000000000 [Eh]
	 Same-Spin Energy          =      -0.6726420535101202 [Eh]
	 Opposite-Spin Energy      =      -2.1168346714410933 [Eh]
	 Correlation Energy        =      -2.7894767249512133 [Eh]
	 Total Energy              =    -616.1590058024177097 [Eh]

	 ================> DF-SCS-MP2 Energies <==================
	-----------------------------------------------------------
	 SCS Same-Spin Scale       =       0.3333333333333333 [-]
	 SCS Opposite-Spin Scale   =       1.2000000000000000 [-]
	 SCS Same-Spin Energy      =      -0.2242140178367067 [Eh]
	 SCS Opposite-Spin Energy  =      -2.5402016057293118 [Eh]
	 SCS Correlation Energy    =      -2.7644156235660184 [Eh]
	 SCS Total Energy          =    -616.1339447010325330 [Eh]
	-----------------------------------------------------------

  Dipole Moment: [D]
     X:    -0.9741      Y:     0.7292      Z:     0.4565     Total:     1.2996

*** Psi4 exiting successfully. Buy a developer a beer!
