                               Psi4 1.4a3.dev225

  ==> Input File <==

--------------------------------------------------------------------------
#psi4
#
memory 32 gb

molecule  {
0 1
  O        0.8655410    -0.2383350    -0.1978900
  C       -1.3532420     0.4851090     0.1659470
  C        0.0923410     0.8600100     0.3004220
  C       -4.0760200    -0.2326370    -0.0482320
  C       -1.8292680    -0.6845410     0.7713590
  C       -2.2449120     1.2876570    -0.5496990
  C       -3.1721270    -1.0365930     0.6617200
  C       -3.5922330     0.9350480    -0.6483300
  C        2.2320470    -0.1282220    -0.1046120
  C       -5.5355430    -0.5984480    -0.1257210
  C        2.9140800     0.9938170     0.3783620
  C        2.9472190    -1.2508620    -0.5439590
  C        4.3132210     0.9773220     0.4183570
  C        4.3370840    -1.2508910    -0.4991240
  C        5.0300920    -0.1353830    -0.0155080
  H        0.3103430     1.7730630    -0.2708990
  H        0.3551050     1.0439550     1.3523320
  H       -1.1374380    -1.3254410     1.3139440
  H       -1.8855300     2.1916430    -1.0389860
  H       -3.5267120    -1.9532640     1.1308580
  H       -4.2733370     1.5694920    -1.2133600
  H       -6.0038750    -0.1617940    -1.0122750
  H       -5.6673980    -1.6833350    -0.1714030
  H       -6.0811880    -0.2353180     0.7521400
  H        2.3826970     1.8764090     0.7176150
  H        2.4394159    -2.0267682    -0.8808954
  H        4.8399070     1.8514100     0.7945710
  H        4.8825510    -2.1268580    -0.8422600
  H        6.1161710    -0.1361850     0.0199920
units angstrom
no_reorient  #important for SAPT in psi4, default
symmetry c1  #important for SAPT in psi4, default
}

set PROPERTIES_ORIGIN ["COM"]
properties('MP2/aug-cc-pvtz', properties = ['dipole'])
--------------------------------------------------------------------------

    Molecular point group: c1
  Charge       = 0
  Multiplicity = 1
  Basis Set: AUG-CC-PVTZ
    Blend: AUG-CC-PVTZ
  Basis Set: (AUG-CC-PVTZ AUX)
    Blend: AUG-CC-PVTZ-JKFIT

    Orbital Energies [Eh]
    ---------------------

    Doubly Occupied:

       1A    -20.583963     2A    -11.300245     3A    -11.293226
       4A    -11.243862     5A    -11.240744     6A    -11.239131
       7A    -11.238753     8A    -11.237575     9A    -11.234996
      10A    -11.232344    11A    -11.232288    12A    -11.232131
      13A    -11.226700    14A    -11.225890    15A    -11.215989
      16A     -1.404952    17A     -1.158917    18A     -1.143927
      19A     -1.067075    20A     -1.021108    21A     -1.013410
      22A     -1.008043    23A     -0.964564    24A     -0.899524
      25A     -0.837778    26A     -0.832388    27A     -0.809444
      28A     -0.782605    29A     -0.724151    30A     -0.683957
      31A     -0.673782    32A     -0.668652    33A     -0.643622
      34A     -0.631304    35A     -0.620945    36A     -0.610866
      37A     -0.592804    38A     -0.583586    39A     -0.577046
      40A     -0.564853    41A     -0.543317    42A     -0.534072
      43A     -0.522867    44A     -0.514115    45A     -0.492474
      46A     -0.486598    47A     -0.485031    48A     -0.479464
      49A     -0.464065    50A     -0.339606    51A     -0.336779
      52A     -0.322268    53A     -0.311962

  @DF-RHF Final Energy:  -613.36571897155216

   => Energetics <=

    Nuclear Repulsion Energy =            871.2704384011080947
    One-Electron Energy =               -2560.6127927879711024
    Two-Electron Energy =                1075.9766354153107386
    Total Energy =                       -613.3657189715522691
  Basis Set: (AUG-CC-PVTZ AUX)
    Blend: AUG-CC-PVTZ-RI
    Molecular point group: c1

    Geometry (in Angstrom), charge = 0, multiplicity = 1:

       Center              X                  Y                   Z               Mass
    ------------   -----------------  -----------------  -----------------  -----------------
         O            0.828736638326    -0.235844566174    -0.194977501110    15.994914619570
         C           -1.390046361674     0.487599433826     0.168859498890    12.000000000000
         C            0.055536638326     0.862500433826     0.303334498890    12.000000000000
         C           -4.112824361674    -0.230146566174    -0.045319501110    12.000000000000
         C           -1.866072361674    -0.682050566174     0.774271498890    12.000000000000
         C           -2.281716361674     1.290147433826    -0.546786501110    12.000000000000
         C           -3.208931361674    -1.034102566174     0.664632498890    12.000000000000
         C           -3.629037361674     0.937538433826    -0.645417501110    12.000000000000
         C            2.195242638326    -0.125731566174    -0.101699501110    12.000000000000
         C           -5.572347361674    -0.595957566174    -0.122808501110    12.000000000000
         C            2.877275638326     0.996307433826     0.381274498890    12.000000000000
         C            2.910414638326    -1.248371566174    -0.541046501110    12.000000000000
         C            4.276416638326     0.979812433826     0.421269498890    12.000000000000
         C            4.300279638326    -1.248400566174    -0.496211501110    12.000000000000
         C            4.993287638326    -0.132892566174    -0.012595501110    12.000000000000
         H            0.273538638326     1.775553433826    -0.267986501110     1.007825032230
         H            0.318300638326     1.046445433826     1.355244498890     1.007825032230
         H           -1.174242361674    -1.322950566174     1.316856498890     1.007825032230
         H           -1.922334361674     2.194133433826    -1.036073501110     1.007825032230
         H           -3.563516361674    -1.950773566174     1.133770498890     1.007825032230
         H           -4.310141361674     1.571982433826    -1.210447501110     1.007825032230
         H           -6.040679361674    -0.159303566174    -1.009362501110     1.007825032230
         H           -5.704202361674    -1.680844566174    -0.168490501110     1.007825032230
         H           -6.117992361674    -0.232827566174     0.755052498890     1.007825032230
         H            2.345892638326     1.878899433826     0.720527498890     1.007825032230
         H            2.402611538326    -2.024277766174    -0.877982901110     1.007825032230
         H            4.803102638326     1.853900433826     0.797483498890     1.007825032230
         H            4.845746638326    -2.124367566174    -0.839347501110     1.007825032230
         H            6.079366638326    -0.133694566174     0.022904498890     1.007825032230

  Basis Set: AUG-CC-PVTZ
    Blend: AUG-CC-PVTZ
  Basis Set: (AUG-CC-PVTZ AUX)
    Blend: AUG-CC-PVTZ-JKFIT
	 Reference Energy          =    -613.3657189715521554 [Eh]
	 Singles Energy            =      -0.0000000000000000 [Eh]
	 Same-Spin Energy          =      -0.6724619688745859 [Eh]
	 Opposite-Spin Energy      =      -2.1159965065914585 [Eh]
	 Correlation Energy        =      -2.7884584754660446 [Eh]
	 Total Energy              =    -616.1541774470182418 [Eh]

	 ================> DF-SCS-MP2 Energies <==================
	-----------------------------------------------------------
	 SCS Same-Spin Scale       =       0.3333333333333333 [-]
	 SCS Opposite-Spin Scale   =       1.2000000000000000 [-]
	 SCS Same-Spin Energy      =      -0.2241539896248619 [Eh]
	 SCS Opposite-Spin Energy  =      -2.5391958079097501 [Eh]
	 SCS Correlation Energy    =      -2.7633497975346120 [Eh]
	 SCS Total Energy          =    -616.1290687690867571 [Eh]
	-----------------------------------------------------------

  Dipole Moment: [D]
     X:    -1.0096      Y:     0.7250      Z:     0.4688     Total:     1.3284

*** Psi4 exiting successfully. Buy a developer a beer!
