                               Psi4 1.4a3.dev225

  ==> Input File <==

--------------------------------------------------------------------------
#psi4
#
memory 32 gb

molecule  {
0 1
  O        0.8655410    -0.2383350    -0.1978900
  C       -1.3532420     0.4851090     0.1659470
  C        0.0923410     0.8600100     0.3004220
  C       -4.0760200    -0.2326370    -0.0482320
  C       -1.8292680    -0.6845410     0.7713590
  C       -2.2449120     1.2876570    -0.5496990
  C       -3.1900966    -0.9139762     0.5849811
  C       -3.5922330     0.9350480    -0.6483300
  C        2.2320470    -0.1282220    -0.1046120
  C       -5.5355430    -0.5984480    -0.1257210
  C        2.9140800     0.9938170     0.3783620
  C        2.9472190    -1.2508620    -0.5439590
  C        4.3132210     0.9773220     0.4183570
  C        4.3370840    -1.2508910    -0.4991240
  C        5.0300920    -0.1353830    -0.0155080
  H        0.3103430     1.7730630    -0.2708990
  H        0.3551050     1.0439550     1.3523320
  H       -1.1374380    -1.3254410     1.3139440
  H       -1.8855300     2.1916430    -1.0389860
  H       -3.5267120    -1.9532640     1.1308580
  H       -4.2733370     1.5694920    -1.2133600
  H       -6.0038750    -0.1617940    -1.0122750
  H       -5.6673980    -1.6833350    -0.1714030
  H       -6.0811880    -0.2353180     0.7521400
  H        2.3826970     1.8764090     0.7176150
  H        2.3879470    -2.1054110    -0.9150460
  H        4.8399070     1.8514100     0.7945710
  H        4.8825510    -2.1268580    -0.8422600
  H        6.1161710    -0.1361850     0.0199920
units angstrom
no_reorient  #important for SAPT in psi4, default
symmetry c1  #important for SAPT in psi4, default
}

set PROPERTIES_ORIGIN ["COM"]
properties('MP2/aug-cc-pvtz', properties = ['dipole'])
--------------------------------------------------------------------------

    Molecular point group: c1
  Charge       = 0
  Multiplicity = 1
  Basis Set: AUG-CC-PVTZ
    Blend: AUG-CC-PVTZ
  Basis Set: (AUG-CC-PVTZ AUX)
    Blend: AUG-CC-PVTZ-JKFIT

    Orbital Energies [Eh]
    ---------------------

    Doubly Occupied:

       1A    -20.584889     2A    -11.301588     3A    -11.293225
       4A    -11.241409     5A    -11.240050     6A    -11.239855
       7A    -11.235926     8A    -11.235213     9A    -11.234587
      10A    -11.233466    11A    -11.230831    12A    -11.228245
      13A    -11.228213    14A    -11.227729    15A    -11.226884
      16A     -1.405722    17A     -1.172780    18A     -1.145431
      19A     -1.075658    20A     -1.018492    21A     -1.011699
      22A     -1.008116    23A     -0.965487    24A     -0.907886
      25A     -0.838555    26A     -0.831977    27A     -0.808280
      28A     -0.779506    29A     -0.721608    30A     -0.685211
      31A     -0.674184    32A     -0.664333    33A     -0.645928
      34A     -0.625695    35A     -0.622774    36A     -0.607545
      37A     -0.587411    38A     -0.580776    39A     -0.573193
      40A     -0.567949    41A     -0.538691    42A     -0.536197
      43A     -0.523588    44A     -0.516548    45A     -0.498335
      46A     -0.494590    47A     -0.483859    48A     -0.467207
      49A     -0.452495    50A     -0.342953    51A     -0.339921
      52A     -0.327573    53A     -0.312878

  @DF-RHF Final Energy:  -613.34429434578192

   => Energetics <=

    Nuclear Repulsion Energy =            873.1553424065450599
    One-Electron Energy =               -2564.3129910423936053
    Two-Electron Energy =                1077.8133542900666271
    Total Energy =                       -613.3442943457819183
  Basis Set: (AUG-CC-PVTZ AUX)
    Blend: AUG-CC-PVTZ-RI
    Molecular point group: c1

    Geometry (in Angstrom), charge = 0, multiplicity = 1:

       Center              X                  Y                   Z               Mass
    ------------   -----------------  -----------------  -----------------  -----------------
         O            0.830086970565    -0.242871885912    -0.190155375424    15.994914619570
         C           -1.388696029435     0.480572114088     0.173681624576    12.000000000000
         C            0.056886970565     0.855473114088     0.308156624576    12.000000000000
         C           -4.111474029435    -0.237173885912    -0.040497375424    12.000000000000
         C           -1.864722029435    -0.689077885912     0.779093624576    12.000000000000
         C           -2.280366029435     1.283120114088    -0.541964375424    12.000000000000
         C           -3.225550629435    -0.918513085912     0.592715724576    12.000000000000
         C           -3.627687029435     0.930511114088    -0.640595375424    12.000000000000
         C            2.196592970565    -0.132758885912    -0.096877375424    12.000000000000
         C           -5.570997029435    -0.602984885912    -0.117986375424    12.000000000000
         C            2.878625970565     0.989280114088     0.386096624576    12.000000000000
         C            2.911764970565    -1.255398885912    -0.536224375424    12.000000000000
         C            4.277766970565     0.972785114088     0.426091624576    12.000000000000
         C            4.301629970565    -1.255427885912    -0.491389375424    12.000000000000
         C            4.994637970565    -0.139919885912    -0.007773375424    12.000000000000
         H            0.274888970565     1.768526114088    -0.263164375424     1.007825032230
         H            0.319650970565     1.039418114088     1.360066624576     1.007825032230
         H           -1.172892029435    -1.329977885912     1.321678624576     1.007825032230
         H           -1.920984029435     2.187106114088    -1.031251375424     1.007825032230
         H           -3.562166029435    -1.957800885912     1.138592624576     1.007825032230
         H           -4.308791029435     1.564955114088    -1.205625375424     1.007825032230
         H           -6.039329029435    -0.166330885912    -1.004540375424     1.007825032230
         H           -5.702852029435    -1.687871885912    -0.163668375424     1.007825032230
         H           -6.116642029435    -0.239854885912     0.759874624576     1.007825032230
         H            2.347242970565     1.871872114088     0.725349624576     1.007825032230
         H            2.352492970565    -2.109947885912    -0.907311375424     1.007825032230
         H            4.804452970565     1.846873114088     0.802305624576     1.007825032230
         H            4.847096970565    -2.131394885912    -0.834525375424     1.007825032230
         H            6.080716970565    -0.140721885912     0.027726624576     1.007825032230

  Basis Set: AUG-CC-PVTZ
    Blend: AUG-CC-PVTZ
  Basis Set: (AUG-CC-PVTZ AUX)
    Blend: AUG-CC-PVTZ-JKFIT
	 Reference Energy          =    -613.3442943457819183 [Eh]
	 Singles Energy            =      -0.0000000000000000 [Eh]
	 Same-Spin Energy          =      -0.6732929868346117 [Eh]
	 Opposite-Spin Energy      =      -2.1176367187047660 [Eh]
	 Correlation Energy        =      -2.7909297055393778 [Eh]
	 Total Energy              =    -616.1352240513213019 [Eh]

	 ================> DF-SCS-MP2 Energies <==================
	-----------------------------------------------------------
	 SCS Same-Spin Scale       =       0.3333333333333333 [-]
	 SCS Opposite-Spin Scale   =       1.2000000000000000 [-]
	 SCS Same-Spin Energy      =      -0.2244309956115372 [Eh]
	 SCS Opposite-Spin Energy  =      -2.5411640624457190 [Eh]
	 SCS Correlation Energy    =      -2.7655950580572561 [Eh]
	 SCS Total Energy          =    -616.1098894038391336 [Eh]
	-----------------------------------------------------------

  Dipole Moment: [D]
     X:    -0.9085      Y:     0.8439      Z:     0.4196     Total:     1.3091

*** Psi4 exiting successfully. Buy a developer a beer!
