                               Psi4 1.4a3.dev225

  ==> Input File <==

--------------------------------------------------------------------------
#psi4
#
memory 32 gb

molecule  {
0 1
  O        0.8655410    -0.2383350    -0.1978900
  C       -1.3532420     0.4851090     0.1659470
  C        0.0923410     0.8600100     0.3004220
  C       -4.0760200    -0.2326370    -0.0482320
  C       -1.8292680    -0.6845410     0.7713590
  C       -2.2449120     1.2876570    -0.5496990
  C       -3.1721270    -1.0365930     0.6617200
  C       -3.5922330     0.9350480    -0.6483300
  C        2.2320470    -0.1282220    -0.1046120
  C       -5.5355430    -0.5984480    -0.1257210
  C        2.9140800     0.9938170     0.3783620
  C        2.9472190    -1.2508620    -0.5439590
  C        4.3132210     0.9773220     0.4183570
  C        4.3370840    -1.2508910    -0.4991240
  C        5.0300920    -0.1353830    -0.0155080
  H        0.3103430     1.7730630    -0.2708990
  H        0.3551050     1.0439550     1.3523320
  H       -1.1374380    -1.3254410     1.3139440
  H       -1.8855300     2.1916430    -1.0389860
  H       -3.5267120    -1.9532640     1.1308580
  H       -4.2733370     1.5694920    -1.2133600
  H       -6.0038750    -0.1617940    -1.0122750
  H       -5.6698089    -1.7031716    -0.1722383
  H       -6.0811880    -0.2353180     0.7521400
  H        2.3826970     1.8764090     0.7176150
  H        2.3879470    -2.1054110    -0.9150460
  H        4.8399070     1.8514100     0.7945710
  H        4.8825510    -2.1268580    -0.8422600
  H        6.1161710    -0.1361850     0.0199920
units angstrom
no_reorient  #important for SAPT in psi4, default
symmetry c1  #important for SAPT in psi4, default
}

set PROPERTIES_ORIGIN ["COM"]
properties('MP2/aug-cc-pvtz', properties = ['dipole'])
--------------------------------------------------------------------------

    Molecular point group: c1
  Charge       = 0
  Multiplicity = 1
  Basis Set: AUG-CC-PVTZ
    Blend: AUG-CC-PVTZ
  Basis Set: (AUG-CC-PVTZ AUX)
    Blend: AUG-CC-PVTZ-JKFIT

    Orbital Energies [Eh]
    ---------------------

    Doubly Occupied:

       1A    -20.583928     2A    -11.301037     3A    -11.293218
       4A    -11.244007     5A    -11.240976     6A    -11.239410
       7A    -11.239180     8A    -11.237626     9A    -11.234995
      10A    -11.232964    11A    -11.232407    12A    -11.232140
      13A    -11.228279    14A    -11.227695    15A    -11.227272
      16A     -1.404890    17A     -1.158879    18A     -1.143746
      19A     -1.066856    20A     -1.017714    21A     -1.013457
      22A     -1.008194    23A     -0.963428    24A     -0.898824
      25A     -0.832987    26A     -0.831405    27A     -0.808875
      28A     -0.782320    29A     -0.721178    30A     -0.683880
      31A     -0.670495    32A     -0.663703    33A     -0.643686
      34A     -0.630998    35A     -0.620305    36A     -0.609409
      37A     -0.586789    38A     -0.583594    39A     -0.576171
      40A     -0.563820    41A     -0.541831    42A     -0.531889
      43A     -0.522208    44A     -0.514065    45A     -0.491378
      46A     -0.486652    47A     -0.484893    48A     -0.478878
      49A     -0.464234    50A     -0.339957    51A     -0.336804
      52A     -0.322285    53A     -0.312336

  @DF-RHF Final Energy:  -613.37106335652970

   => Energetics <=

    Nuclear Repulsion Energy =            870.6597206554174591
    One-Electron Energy =               -2559.4452692826807834
    Two-Electron Energy =                1075.4144852707336213
    Total Energy =                       -613.3710633565297030
  Basis Set: (AUG-CC-PVTZ AUX)
    Blend: AUG-CC-PVTZ-RI
    Molecular point group: c1

    Geometry (in Angstrom), charge = 0, multiplicity = 1:

       Center              X                  Y                   Z               Mass
    ------------   -----------------  -----------------  -----------------  -----------------
         O            0.829010743259    -0.235343567853    -0.194799515895    15.994914619570
         C           -1.389772256741     0.488100432147     0.169037484105    12.000000000000
         C            0.055810743259     0.863001432147     0.303512484105    12.000000000000
         C           -4.112550256741    -0.229645567853    -0.045141515895    12.000000000000
         C           -1.865798256741    -0.681549567853     0.774449484105    12.000000000000
         C           -2.281442256741     1.290648432147    -0.546608515895    12.000000000000
         C           -3.208657256741    -1.033601567853     0.664810484105    12.000000000000
         C           -3.628763256741     0.938039432147    -0.645239515895    12.000000000000
         C            2.195516743259    -0.125230567853    -0.101521515895    12.000000000000
         C           -5.572073256741    -0.595456567853    -0.122630515895    12.000000000000
         C            2.877549743259     0.996808432147     0.381452484105    12.000000000000
         C            2.910688743259    -1.247870567853    -0.540868515895    12.000000000000
         C            4.276690743259     0.980313432147     0.421447484105    12.000000000000
         C            4.300553743259    -1.247899567853    -0.496033515895    12.000000000000
         C            4.993561743259    -0.132391567853    -0.012417515895    12.000000000000
         H            0.273812743259     1.776054432147    -0.267808515895     1.007825032230
         H            0.318574743259     1.046946432147     1.355422484105     1.007825032230
         H           -1.173968256741    -1.322449567853     1.317034484105     1.007825032230
         H           -1.922060256741     2.194634432147    -1.035895515895     1.007825032230
         H           -3.563242256741    -1.950272567853     1.133948484105     1.007825032230
         H           -4.309867256741     1.572483432147    -1.210269515895     1.007825032230
         H           -6.040405256741    -0.158802567853    -1.009184515895     1.007825032230
         H           -5.706339156741    -1.700180167853    -0.169147815895     1.007825032230
         H           -6.117718256741    -0.232326567853     0.755230484105     1.007825032230
         H            2.346166743259     1.879400432147     0.720705484105     1.007825032230
         H            2.351416743259    -2.102419567853    -0.911955515895     1.007825032230
         H            4.803376743259     1.854401432147     0.797661484105     1.007825032230
         H            4.846020743259    -2.123866567853    -0.839169515895     1.007825032230
         H            6.079640743259    -0.133193567853     0.023082484105     1.007825032230

  Basis Set: AUG-CC-PVTZ
    Blend: AUG-CC-PVTZ
  Basis Set: (AUG-CC-PVTZ AUX)
    Blend: AUG-CC-PVTZ-JKFIT
	 Reference Energy          =    -613.3710633565297030 [Eh]
	 Singles Energy            =      -0.0000000000000000 [Eh]
	 Same-Spin Energy          =      -0.6726519643331157 [Eh]
	 Opposite-Spin Energy      =      -2.1166512185077870 [Eh]
	 Correlation Energy        =      -2.7893031828409027 [Eh]
	 Total Energy              =    -616.1603665393705569 [Eh]

	 ================> DF-SCS-MP2 Energies <==================
	-----------------------------------------------------------
	 SCS Same-Spin Scale       =       0.3333333333333333 [-]
	 SCS Opposite-Spin Scale   =       1.2000000000000000 [-]
	 SCS Same-Spin Energy      =      -0.2242173214443719 [Eh]
	 SCS Opposite-Spin Energy  =      -2.5399814622093442 [Eh]
	 SCS Correlation Energy    =      -2.7641987836537161 [Eh]
	 SCS Total Energy          =    -616.1352621401833858 [Eh]
	-----------------------------------------------------------

  Dipole Moment: [D]
     X:    -0.9952      Y:     0.7412      Z:     0.4719     Total:     1.3276

*** Psi4 exiting successfully. Buy a developer a beer!
