                               Psi4 1.4a3.dev225

  ==> Input File <==

--------------------------------------------------------------------------
#psi4
#
memory 32 gb

molecule  {
0 1
  O        0.8655410    -0.2383350    -0.1978900
  C       -1.3532420     0.4851090     0.1659470
  C        0.0719406     0.9448121     0.2425761
  C       -4.0760200    -0.2326370    -0.0482320
  C       -1.8292680    -0.6845410     0.7713590
  C       -2.2449120     1.2876570    -0.5496990
  C       -3.1721270    -1.0365930     0.6617200
  C       -3.5922330     0.9350480    -0.6483300
  C        2.2320470    -0.1282220    -0.1046120
  C       -5.5355430    -0.5984480    -0.1257210
  C        2.9140800     0.9938170     0.3783620
  C        2.9472190    -1.2508620    -0.5439590
  C        4.3132210     0.9773220     0.4183570
  C        4.3370840    -1.2508910    -0.4991240
  C        5.0300920    -0.1353830    -0.0155080
  H        0.3103430     1.7730630    -0.2708990
  H        0.3551050     1.0439550     1.3523320
  H       -1.1374380    -1.3254410     1.3139440
  H       -1.8855300     2.1916430    -1.0389860
  H       -3.5267120    -1.9532640     1.1308580
  H       -4.2733370     1.5694920    -1.2133600
  H       -6.0038750    -0.1617940    -1.0122750
  H       -5.6673980    -1.6833350    -0.1714030
  H       -6.0811880    -0.2353180     0.7521400
  H        2.3826970     1.8764090     0.7176150
  H        2.3879470    -2.1054110    -0.9150460
  H        4.8399070     1.8514100     0.7945710
  H        4.8825510    -2.1268580    -0.8422600
  H        6.1161710    -0.1361850     0.0199920
units angstrom
no_reorient  #important for SAPT in psi4, default
symmetry c1  #important for SAPT in psi4, default
}

set PROPERTIES_ORIGIN ["COM"]
properties('MP2/aug-cc-pvtz', properties = ['dipole'])
--------------------------------------------------------------------------

    Molecular point group: c1
  Charge       = 0
  Multiplicity = 1
  Basis Set: AUG-CC-PVTZ
    Blend: AUG-CC-PVTZ
  Basis Set: (AUG-CC-PVTZ AUX)
    Blend: AUG-CC-PVTZ-JKFIT

    Orbital Energies [Eh]
    ---------------------

    Doubly Occupied:

       1A    -20.579471     2A    -11.298180     3A    -11.295000
       4A    -11.244695     5A    -11.241760     6A    -11.239516
       7A    -11.237806     8A    -11.237714     9A    -11.237451
      10A    -11.233821    11A    -11.232754    12A    -11.230722
      13A    -11.226506    14A    -11.225160    15A    -11.225087
      16A     -1.387804    17A     -1.159864    18A     -1.141179
      19A     -1.068766    20A     -1.015811    21A     -1.014368
      22A     -1.005281    23A     -0.966767    24A     -0.902373
      25A     -0.834435    26A     -0.829711    27A     -0.805736
      28A     -0.785830    29A     -0.717610    30A     -0.683646
      31A     -0.672639    32A     -0.655023    33A     -0.640863
      34A     -0.632472    35A     -0.621660    36A     -0.607129
      37A     -0.584923    38A     -0.584660    39A     -0.577618
      40A     -0.558537    41A     -0.545741    42A     -0.535001
      43A     -0.525544    44A     -0.512347    45A     -0.491611
      46A     -0.487122    47A     -0.484962    48A     -0.478639
      49A     -0.462821    50A     -0.338504    51A     -0.337798
      52A     -0.322323    53A     -0.309419

  @DF-RHF Final Energy:  -613.35766823600579

   => Energetics <=

    Nuclear Repulsion Energy =            869.8458237447257488
    One-Electron Energy =               -2557.8626243741564394
    Two-Electron Energy =                1074.6591323934248976
    Total Energy =                       -613.3576682360057930
  Basis Set: (AUG-CC-PVTZ AUX)
    Blend: AUG-CC-PVTZ-RI
    Molecular point group: c1

    Geometry (in Angstrom), charge = 0, multiplicity = 1:

       Center              X                  Y                   Z               Mass
    ------------   -----------------  -----------------  -----------------  -----------------
         O            0.830234214091    -0.240581294431    -0.191299801926    15.994914619570
         C           -1.388548785909     0.482862705569     0.172537198074    12.000000000000
         C            0.036633814091     0.942565805569     0.249166298074    12.000000000000
         C           -4.111326785909    -0.234883294431    -0.041641801926    12.000000000000
         C           -1.864574785909    -0.686787294431     0.777949198074    12.000000000000
         C           -2.280218785909     1.285410705569    -0.543108801926    12.000000000000
         C           -3.207433785909    -1.038839294431     0.668310198074    12.000000000000
         C           -3.627539785909     0.932801705569    -0.641739801926    12.000000000000
         C            2.196740214091    -0.130468294431    -0.098021801926    12.000000000000
         C           -5.570849785909    -0.600694294431    -0.119130801926    12.000000000000
         C            2.878773214091     0.991570705569     0.384952198074    12.000000000000
         C            2.911912214091    -1.253108294431    -0.537368801926    12.000000000000
         C            4.277914214091     0.975075705569     0.424947198074    12.000000000000
         C            4.301777214091    -1.253137294431    -0.492533801926    12.000000000000
         C            4.994785214091    -0.137629294431    -0.008917801926    12.000000000000
         H            0.275036214091     1.770816705569    -0.264308801926     1.007825032230
         H            0.319798214091     1.041708705569     1.358922198074     1.007825032230
         H           -1.172744785909    -1.327687294431     1.320534198074     1.007825032230
         H           -1.920836785909     2.189396705569    -1.032395801926     1.007825032230
         H           -3.562018785909    -1.955510294431     1.137448198074     1.007825032230
         H           -4.308643785909     1.567245705569    -1.206769801926     1.007825032230
         H           -6.039181785909    -0.164040294431    -1.005684801926     1.007825032230
         H           -5.702704785909    -1.685581294431    -0.164812801926     1.007825032230
         H           -6.116494785909    -0.237564294431     0.758730198074     1.007825032230
         H            2.347390214091     1.874162705569     0.724205198074     1.007825032230
         H            2.352640214091    -2.107657294431    -0.908455801926     1.007825032230
         H            4.804600214091     1.849163705569     0.801161198074     1.007825032230
         H            4.847244214091    -2.129104294431    -0.835669801926     1.007825032230
         H            6.080864214091    -0.138431294431     0.026582198074     1.007825032230

  Basis Set: AUG-CC-PVTZ
    Blend: AUG-CC-PVTZ
  Basis Set: (AUG-CC-PVTZ AUX)
    Blend: AUG-CC-PVTZ-JKFIT
	 Reference Energy          =    -613.3576682360057930 [Eh]
	 Singles Energy            =      -0.0000000000000000 [Eh]
	 Same-Spin Energy          =      -0.6729841686443326 [Eh]
	 Opposite-Spin Energy      =      -2.1179450043833885 [Eh]
	 Correlation Energy        =      -2.7909291730277213 [Eh]
	 Total Energy              =    -616.1485974090335276 [Eh]

	 ================> DF-SCS-MP2 Energies <==================
	-----------------------------------------------------------
	 SCS Same-Spin Scale       =       0.3333333333333333 [-]
	 SCS Opposite-Spin Scale   =       1.2000000000000000 [-]
	 SCS Same-Spin Energy      =      -0.2243280562147775 [Eh]
	 SCS Opposite-Spin Energy  =      -2.5415340052600661 [Eh]
	 SCS Correlation Energy    =      -2.7658620614748437 [Eh]
	 SCS Total Energy          =    -616.1235302974806700 [Eh]
	-----------------------------------------------------------

  Dipole Moment: [D]
     X:    -1.2322      Y:     0.8873      Z:     0.4178     Total:     1.5748

*** Psi4 exiting successfully. Buy a developer a beer!
