                               Psi4 1.4a3.dev225

  ==> Input File <==

--------------------------------------------------------------------------
#psi4
#
memory 32 gb

molecule  {
0 1
  O        0.8655410    -0.2383350    -0.1978900
  C       -1.3532420     0.4851090     0.1659470
  C        0.0923410     0.8600100     0.3004220
  C       -4.0760200    -0.2326370    -0.0482320
  C       -1.8292680    -0.6845410     0.7713590
  C       -2.2449120     1.2876570    -0.5496990
  C       -3.1721270    -1.0365930     0.6617200
  C       -3.5922330     0.9350480    -0.6483300
  C        2.2320470    -0.1282220    -0.1046120
  C       -5.5355430    -0.5984480    -0.1257210
  C        2.9140800     0.9938170     0.3783620
  C        2.9472190    -1.2508620    -0.5439590
  C        4.3132210     0.9773220     0.4183570
  C        4.3370840    -1.2508910    -0.4991240
  C        5.0300920    -0.1353830    -0.0155080
  H        0.3103430     1.7730630    -0.2708990
  H        0.3551050     1.0439550     1.3523320
  H       -1.1374380    -1.3254410     1.3139440
  H       -1.8855300     2.1916430    -1.0389860
  H       -3.5267120    -1.9532640     1.1308580
  H       -4.2733370     1.5694920    -1.2133600
  H       -6.0038750    -0.1617940    -1.0122750
  H       -5.6673980    -1.6833350    -0.1714030
  H       -6.1309935    -0.2021721     0.8322696
  H        2.3826970     1.8764090     0.7176150
  H        2.3879470    -2.1054110    -0.9150460
  H        4.8399070     1.8514100     0.7945710
  H        4.8825510    -2.1268580    -0.8422600
  H        6.1161710    -0.1361850     0.0199920
units angstrom
no_reorient  #important for SAPT in psi4, default
symmetry c1  #important for SAPT in psi4, default
}

set PROPERTIES_ORIGIN ["COM"]
properties('MP2/aug-cc-pvtz', properties = ['dipole'])
--------------------------------------------------------------------------

    Molecular point group: c1
  Charge       = 0
  Multiplicity = 1
  Basis Set: AUG-CC-PVTZ
    Blend: AUG-CC-PVTZ
  Basis Set: (AUG-CC-PVTZ AUX)
    Blend: AUG-CC-PVTZ-JKFIT

    Orbital Energies [Eh]
    ---------------------

    Doubly Occupied:

       1A    -20.584132     2A    -11.301181     3A    -11.293469
       4A    -11.244602     5A    -11.241093     6A    -11.239610
       7A    -11.239528     8A    -11.237932     9A    -11.237520
      10A    -11.235301    11A    -11.233098    12A    -11.232882
      13A    -11.232639    14A    -11.227827    15A    -11.227390
      16A     -1.405093    17A     -1.159158    18A     -1.143885
      19A     -1.066479    20A     -1.017746    21A     -1.013804
      22A     -1.007873    23A     -0.961475    24A     -0.896439
      25A     -0.833330    26A     -0.831399    27A     -0.808889
      28A     -0.782072    29A     -0.721347    30A     -0.683688
      31A     -0.670905    32A     -0.663858    33A     -0.643577
      34A     -0.631361    35A     -0.621059    36A     -0.609535
      37A     -0.586858    38A     -0.583973    39A     -0.564972
      40A     -0.560451    41A     -0.544030    42A     -0.531126
      43A     -0.523298    44A     -0.514254    45A     -0.490505
      46A     -0.487121    47A     -0.484270    48A     -0.478414
      49A     -0.464117    50A     -0.340072    51A     -0.337112
      52A     -0.321859    53A     -0.312475

  @DF-RHF Final Energy:  -613.36519572927182

   => Energetics <=

    Nuclear Repulsion Energy =            870.3267066483267627
    One-Electron Energy =               -2558.7716342619914940
    Two-Electron Energy =                1075.0797318843929133
    Total Energy =                       -613.3651957292718180
  Basis Set: (AUG-CC-PVTZ AUX)
    Blend: AUG-CC-PVTZ-RI
    Molecular point group: c1

    Geometry (in Angstrom), charge = 0, multiplicity = 1:

       Center              X                  Y                   Z               Mass
    ------------   -----------------  -----------------  -----------------  -----------------
         O            0.829251855766    -0.235613107915    -0.195211411977    15.994914619570
         C           -1.389531144234     0.487830892085     0.168625588023    12.000000000000
         C            0.056051855766     0.862731892085     0.303100588023    12.000000000000
         C           -4.112309144234    -0.229915107915    -0.045553411977    12.000000000000
         C           -1.865557144234    -0.681819107915     0.774037588023    12.000000000000
         C           -2.281201144234     1.290378892085    -0.547020411977    12.000000000000
         C           -3.208416144234    -1.033871107915     0.664398588023    12.000000000000
         C           -3.628522144234     0.937769892085    -0.645651411977    12.000000000000
         C            2.195757855766    -0.125500107915    -0.101933411977    12.000000000000
         C           -5.571832144234    -0.595726107915    -0.123042411977    12.000000000000
         C            2.877790855766     0.996538892085     0.381040588023    12.000000000000
         C            2.910929855766    -1.248140107915    -0.541280411977    12.000000000000
         C            4.276931855766     0.980043892085     0.421035588023    12.000000000000
         C            4.300794855766    -1.248169107915    -0.496445411977    12.000000000000
         C            4.993802855766    -0.132661107915    -0.012829411977    12.000000000000
         H            0.274053855766     1.775784892085    -0.268220411977     1.007825032230
         H            0.318815855766     1.046676892085     1.355010588023     1.007825032230
         H           -1.173727144234    -1.322719107915     1.316622588023     1.007825032230
         H           -1.921819144234     2.194364892085    -1.036307411977     1.007825032230
         H           -3.563001144234    -1.950542107915     1.133536588023     1.007825032230
         H           -4.309626144234     1.572213892085    -1.210681411977     1.007825032230
         H           -6.040164144234    -0.159072107915    -1.009596411977     1.007825032230
         H           -5.703687144234    -1.680613107915    -0.168724411977     1.007825032230
         H           -6.167282644234    -0.199450207915     0.834948188023     1.007825032230
         H            2.346407855766     1.879130892085     0.720293588023     1.007825032230
         H            2.351657855766    -2.102689107915    -0.912367411977     1.007825032230
         H            4.803617855766     1.854131892085     0.797249588023     1.007825032230
         H            4.846261855766    -2.124136107915    -0.839581411977     1.007825032230
         H            6.079881855766    -0.133463107915     0.022670588023     1.007825032230

  Basis Set: AUG-CC-PVTZ
    Blend: AUG-CC-PVTZ
  Basis Set: (AUG-CC-PVTZ AUX)
    Blend: AUG-CC-PVTZ-JKFIT
	 Reference Energy          =    -613.3651957292718180 [Eh]
	 Singles Energy            =      -0.0000000000000000 [Eh]
	 Same-Spin Energy          =      -0.6726347256169963 [Eh]
	 Opposite-Spin Energy      =      -2.1171910513661754 [Eh]
	 Correlation Energy        =      -2.7898257769831716 [Eh]
	 Total Energy              =    -616.1550215062550251 [Eh]

	 ================> DF-SCS-MP2 Energies <==================
	-----------------------------------------------------------
	 SCS Same-Spin Scale       =       0.3333333333333333 [-]
	 SCS Opposite-Spin Scale   =       1.2000000000000000 [-]
	 SCS Same-Spin Energy      =      -0.2242115752056654 [Eh]
	 SCS Opposite-Spin Energy  =      -2.5406292616394102 [Eh]
	 SCS Correlation Energy    =      -2.7648408368450754 [Eh]
	 SCS Total Energy          =    -616.1300365661169280 [Eh]
	-----------------------------------------------------------

  Dipole Moment: [D]
     X:    -0.9397      Y:     0.7264      Z:     0.4387     Total:     1.2661

*** Psi4 exiting successfully. Buy a developer a beer!
