                               Psi4 1.4a3.dev225

  ==> Input File <==

--------------------------------------------------------------------------
#psi4
#
memory 32 gb

molecule  {
0 1
  O        0.8655410    -0.2383350    -0.1978900
  C       -1.3532420     0.4851090     0.1659470
  C        0.0923410     0.8600100     0.3004220
  C       -4.0760200    -0.2326370    -0.0482320
  C       -1.8292680    -0.6845410     0.7713590
  C       -2.2449120     1.2876570    -0.5496990
  C       -3.1721270    -1.0365930     0.6617200
  C       -3.5729330     0.9400990    -0.6469171
  C        2.2320470    -0.1282220    -0.1046120
  C       -5.5355430    -0.5984480    -0.1257210
  C        2.9140800     0.9938170     0.3783620
  C        2.9472190    -1.2508620    -0.5439590
  C        4.3132210     0.9773220     0.4183570
  C        4.3370840    -1.2508910    -0.4991240
  C        5.0300920    -0.1353830    -0.0155080
  H        0.3103430     1.7730630    -0.2708990
  H        0.3551050     1.0439550     1.3523320
  H       -1.1374380    -1.3254410     1.3139440
  H       -1.8855300     2.1916430    -1.0389860
  H       -3.5267120    -1.9532640     1.1308580
  H       -4.2733370     1.5694920    -1.2133600
  H       -6.0038750    -0.1617940    -1.0122750
  H       -5.6673980    -1.6833350    -0.1714030
  H       -6.0811880    -0.2353180     0.7521400
  H        2.3826970     1.8764090     0.7176150
  H        2.3879470    -2.1054110    -0.9150460
  H        4.8399070     1.8514100     0.7945710
  H        4.8825510    -2.1268580    -0.8422600
  H        6.1161710    -0.1361850     0.0199920
units angstrom
no_reorient  #important for SAPT in psi4, default
symmetry c1  #important for SAPT in psi4, default
}

set PROPERTIES_ORIGIN ["COM"]
properties('MP2/aug-cc-pvtz', properties = ['dipole'])
--------------------------------------------------------------------------

    Molecular point group: c1
  Charge       = 0
  Multiplicity = 1
  Basis Set: AUG-CC-PVTZ
    Blend: AUG-CC-PVTZ
  Basis Set: (AUG-CC-PVTZ AUX)
    Blend: AUG-CC-PVTZ-JKFIT

    Orbital Energies [Eh]
    ---------------------

    Doubly Occupied:

       1A    -20.583805     2A    -11.300946     3A    -11.293057
       4A    -11.244864     5A    -11.240914     6A    -11.239350
       7A    -11.238751     8A    -11.235550     9A    -11.234616
      10A    -11.232889    11A    -11.232081    12A    -11.231815
      13A    -11.227627    14A    -11.227210    15A    -11.226499
      16A     -1.404761    17A     -1.159492    18A     -1.143744
      19A     -1.066146    20A     -1.017893    21A     -1.015604
      22A     -1.008058    23A     -0.964679    24A     -0.899160
      25A     -0.832017    26A     -0.830703    27A     -0.808910
      28A     -0.782997    29A     -0.721104    30A     -0.684109
      31A     -0.670877    32A     -0.663619    33A     -0.643903
      34A     -0.629509    35A     -0.621007    36A     -0.608769
      37A     -0.586708    38A     -0.583801    39A     -0.577128
      40A     -0.563643    41A     -0.543692    42A     -0.531771
      43A     -0.523100    44A     -0.514003    45A     -0.492271
      46A     -0.486369    47A     -0.483854    48A     -0.479023
      49A     -0.464112    50A     -0.339908    51A     -0.339017
      52A     -0.320483    53A     -0.312251

  @DF-RHF Final Energy:  -613.37103765351742

   => Energetics <=

    Nuclear Repulsion Energy =            870.9377793849478167
    One-Electron Energy =               -2560.0012935819554514
    Two-Electron Energy =                1075.6924765434903293
    Total Energy =                       -613.3710376535173054
  Basis Set: (AUG-CC-PVTZ AUX)
    Blend: AUG-CC-PVTZ-RI
    Molecular point group: c1

    Geometry (in Angstrom), charge = 0, multiplicity = 1:

       Center              X                  Y                   Z               Mass
    ------------   -----------------  -----------------  -----------------  -----------------
         O            0.827829398027    -0.235750443195    -0.194889350499    15.994914619570
         C           -1.390953601973     0.487693556805     0.168947649501    12.000000000000
         C            0.054629398027     0.862594556805     0.303422649501    12.000000000000
         C           -4.113731601973    -0.230052443195    -0.045231350499    12.000000000000
         C           -1.866979601973    -0.681956443195     0.774359649501    12.000000000000
         C           -2.282623601973     1.290241556805    -0.546698350499    12.000000000000
         C           -3.209838601973    -1.034008443195     0.664720649501    12.000000000000
         C           -3.610644601973     0.942683556805    -0.643916450499    12.000000000000
         C            2.194335398027    -0.125637443195    -0.101611350499    12.000000000000
         C           -5.573254601973    -0.595863443195    -0.122720350499    12.000000000000
         C            2.876368398027     0.996401556805     0.381362649501    12.000000000000
         C            2.909507398027    -1.248277443195    -0.540958350499    12.000000000000
         C            4.275509398027     0.979906556805     0.421357649501    12.000000000000
         C            4.299372398027    -1.248306443195    -0.496123350499    12.000000000000
         C            4.992380398027    -0.132798443195    -0.012507350499    12.000000000000
         H            0.272631398027     1.775647556805    -0.267898350499     1.007825032230
         H            0.317393398027     1.046539556805     1.355332649501     1.007825032230
         H           -1.175149601973    -1.322856443195     1.316944649501     1.007825032230
         H           -1.923241601973     2.194227556805    -1.035985350499     1.007825032230
         H           -3.564423601973    -1.950679443195     1.133858649501     1.007825032230
         H           -4.311048601973     1.572076556805    -1.210359350499     1.007825032230
         H           -6.041586601973    -0.159209443195    -1.009274350499     1.007825032230
         H           -5.705109601973    -1.680750443195    -0.168402350499     1.007825032230
         H           -6.118899601973    -0.232733443195     0.755140649501     1.007825032230
         H            2.344985398027     1.878993556805     0.720615649501     1.007825032230
         H            2.350235398027    -2.102826443195    -0.912045350499     1.007825032230
         H            4.802195398027     1.853994556805     0.797571649501     1.007825032230
         H            4.844839398027    -2.124273443195    -0.839259350499     1.007825032230
         H            6.078459398027    -0.133600443195     0.022992649501     1.007825032230

  Basis Set: AUG-CC-PVTZ
    Blend: AUG-CC-PVTZ
  Basis Set: (AUG-CC-PVTZ AUX)
    Blend: AUG-CC-PVTZ-JKFIT
	 Reference Energy          =    -613.3710376535174191 [Eh]
	 Singles Energy            =      -0.0000000000000000 [Eh]
	 Same-Spin Energy          =      -0.6727170231832904 [Eh]
	 Opposite-Spin Energy      =      -2.1165288620187699 [Eh]
	 Correlation Energy        =      -2.7892458852020603 [Eh]
	 Total Energy              =    -616.1602835387194546 [Eh]

	 ================> DF-SCS-MP2 Energies <==================
	-----------------------------------------------------------
	 SCS Same-Spin Scale       =       0.3333333333333333 [-]
	 SCS Opposite-Spin Scale   =       1.2000000000000000 [-]
	 SCS Same-Spin Energy      =      -0.2242390077277635 [Eh]
	 SCS Opposite-Spin Energy  =      -2.5398346344225238 [Eh]
	 SCS Correlation Energy    =      -2.7640736421502874 [Eh]
	 SCS Total Energy          =    -616.1351112956676843 [Eh]
	-----------------------------------------------------------

  Dipole Moment: [D]
     X:    -1.0161      Y:     0.7242      Z:     0.4749     Total:     1.3351

*** Psi4 exiting successfully. Buy a developer a beer!
