                               Psi4 1.4a3.dev225

  ==> Input File <==

--------------------------------------------------------------------------
#psi4
#
memory 32 gb

molecule  {
0 1
  O        0.8655410    -0.2383350    -0.1978900
  C       -1.3532420     0.4851090     0.1659470
  C        0.0923410     0.8600100     0.3004220
  C       -4.0760200    -0.2326370    -0.0482320
  C       -1.8292680    -0.6845410     0.7713590
  C       -2.2449120     1.2876570    -0.5496990
  C       -3.1721270    -1.0365930     0.6617200
  C       -3.5922330     0.9350480    -0.6483300
  C        2.2121576    -0.1298247    -0.1059697
  C       -5.5355430    -0.5984480    -0.1257210
  C        2.9140800     0.9938170     0.3783620
  C        2.9472190    -1.2508620    -0.5439590
  C        4.3132210     0.9773220     0.4183570
  C        4.3370840    -1.2508910    -0.4991240
  C        5.0300920    -0.1353830    -0.0155080
  H        0.3103430     1.7730630    -0.2708990
  H        0.3551050     1.0439550     1.3523320
  H       -1.1374380    -1.3254410     1.3139440
  H       -1.8855300     2.1916430    -1.0389860
  H       -3.5267120    -1.9532640     1.1308580
  H       -4.2733370     1.5694920    -1.2133600
  H       -6.0038750    -0.1617940    -1.0122750
  H       -5.6673980    -1.6833350    -0.1714030
  H       -6.0811880    -0.2353180     0.7521400
  H        2.3826970     1.8764090     0.7176150
  H        2.3879470    -2.1054110    -0.9150460
  H        4.8399070     1.8514100     0.7945710
  H        4.8825510    -2.1268580    -0.8422600
  H        6.1161710    -0.1361850     0.0199920
units angstrom
no_reorient  #important for SAPT in psi4, default
symmetry c1  #important for SAPT in psi4, default
}

set PROPERTIES_ORIGIN ["COM"]
properties('MP2/aug-cc-pvtz', properties = ['dipole'])
--------------------------------------------------------------------------

    Molecular point group: c1
  Charge       = 0
  Multiplicity = 1
  Basis Set: AUG-CC-PVTZ
    Blend: AUG-CC-PVTZ
  Basis Set: (AUG-CC-PVTZ AUX)
    Blend: AUG-CC-PVTZ-JKFIT

    Orbital Energies [Eh]
    ---------------------

    Doubly Occupied:

       1A    -20.587177     2A    -11.302629     3A    -11.295123
       4A    -11.244634     5A    -11.240132     6A    -11.240069
       7A    -11.238573     8A    -11.238466     9A    -11.235877
      10A    -11.233016    11A    -11.232876    12A    -11.232719
      13A    -11.227056    14A    -11.226419    15A    -11.225886
      16A     -1.414293    17A     -1.159492    18A     -1.141062
      19A     -1.068534    20A     -1.016090    21A     -1.014104
      22A     -1.007223    23A     -0.964695    24A     -0.901331
      25A     -0.833769    26A     -0.830058    27A     -0.808866
      28A     -0.783101    29A     -0.722460    30A     -0.685481
      31A     -0.672908    32A     -0.665525    33A     -0.644248
      34A     -0.631411    35A     -0.622327    36A     -0.609258
      37A     -0.584428    38A     -0.584368    39A     -0.577554
      40A     -0.564654    41A     -0.544361    42A     -0.533398
      43A     -0.523826    44A     -0.514507    45A     -0.490341
      46A     -0.487456    47A     -0.485680    48A     -0.477368
      49A     -0.465370    50A     -0.338773    51A     -0.337528
      52A     -0.323160    53A     -0.309117

  @DF-RHF Final Energy:  -613.37137179701972

   => Energetics <=

    Nuclear Repulsion Energy =            870.8317072129809731
    One-Electron Energy =               -2559.7286059546654542
    Two-Electron Energy =                1075.5255269446647617
    Total Energy =                       -613.3713717970197195
  Basis Set: (AUG-CC-PVTZ AUX)
    Blend: AUG-CC-PVTZ-RI
    Molecular point group: c1

    Geometry (in Angstrom), charge = 0, multiplicity = 1:

       Center              X                  Y                   Z               Mass
    ------------   -----------------  -----------------  -----------------  -----------------
         O            0.830203260725    -0.235347401295    -0.194721523893    15.994914619570
         C           -1.388579739275     0.488096598705     0.169115476107    12.000000000000
         C            0.057003260725     0.862997598705     0.303590476107    12.000000000000
         C           -4.111357739275    -0.229649401295    -0.045063523893    12.000000000000
         C           -1.864605739275    -0.681553401295     0.774527476107    12.000000000000
         C           -2.280249739275     1.290644598705    -0.546530523893    12.000000000000
         C           -3.207464739275    -1.033605401295     0.664888476107    12.000000000000
         C           -3.627570739275     0.938035598705    -0.645161523893    12.000000000000
         C            2.176819860725    -0.126837101295    -0.102801223893    12.000000000000
         C           -5.570880739275    -0.595460401295    -0.122552523893    12.000000000000
         C            2.878742260725     0.996804598705     0.381530476107    12.000000000000
         C            2.911881260725    -1.247874401295    -0.540790523893    12.000000000000
         C            4.277883260725     0.980309598705     0.421525476107    12.000000000000
         C            4.301746260725    -1.247903401295    -0.495955523893    12.000000000000
         C            4.994754260725    -0.132395401295    -0.012339523893    12.000000000000
         H            0.275005260725     1.776050598705    -0.267730523893     1.007825032230
         H            0.319767260725     1.046942598705     1.355500476107     1.007825032230
         H           -1.172775739275    -1.322453401295     1.317112476107     1.007825032230
         H           -1.920867739275     2.194630598705    -1.035817523893     1.007825032230
         H           -3.562049739275    -1.950276401295     1.134026476107     1.007825032230
         H           -4.308674739275     1.572479598705    -1.210191523893     1.007825032230
         H           -6.039212739275    -0.158806401295    -1.009106523893     1.007825032230
         H           -5.702735739275    -1.680347401295    -0.168234523893     1.007825032230
         H           -6.116525739275    -0.232330401295     0.755308476107     1.007825032230
         H            2.347359260725     1.879396598705     0.720783476107     1.007825032230
         H            2.352609260725    -2.102423401295    -0.911877523893     1.007825032230
         H            4.804569260725     1.854397598705     0.797739476107     1.007825032230
         H            4.847213260725    -2.123870401295    -0.839091523893     1.007825032230
         H            6.080833260725    -0.133197401295     0.023160476107     1.007825032230

  Basis Set: AUG-CC-PVTZ
    Blend: AUG-CC-PVTZ
  Basis Set: (AUG-CC-PVTZ AUX)
    Blend: AUG-CC-PVTZ-JKFIT
	 Reference Energy          =    -613.3713717970197195 [Eh]
	 Singles Energy            =      -0.0000000000000000 [Eh]
	 Same-Spin Energy          =      -0.6726589871593290 [Eh]
	 Opposite-Spin Energy      =      -2.1164131246025590 [Eh]
	 Correlation Energy        =      -2.7890721117618882 [Eh]
	 Total Energy              =    -616.1604439087816445 [Eh]

	 ================> DF-SCS-MP2 Energies <==================
	-----------------------------------------------------------
	 SCS Same-Spin Scale       =       0.3333333333333333 [-]
	 SCS Opposite-Spin Scale   =       1.2000000000000000 [-]
	 SCS Same-Spin Energy      =      -0.2242196623864430 [Eh]
	 SCS Opposite-Spin Energy  =      -2.5396957495230708 [Eh]
	 SCS Correlation Energy    =      -2.7639154119095140 [Eh]
	 SCS Total Energy          =    -616.1352872089291850 [Eh]
	-----------------------------------------------------------

  Dipole Moment: [D]
     X:    -1.1895      Y:     0.7425      Z:     0.4713     Total:     1.4793

*** Psi4 exiting successfully. Buy a developer a beer!
