                               Psi4 1.4a3.dev225

  ==> Input File <==

--------------------------------------------------------------------------
#psi4
#
memory 32 gb

molecule  {
0 1
  O        0.8655410    -0.2383350    -0.1978900
  C       -1.3532420     0.4851090     0.1659470
  C        0.0923410     0.8600100     0.3004220
  C       -4.0760200    -0.2326370    -0.0482320
  C       -1.8292680    -0.6845410     0.7713590
  C       -2.2449120     1.2876570    -0.5496990
  C       -3.1721270    -1.0365930     0.6617200
  C       -3.5922330     0.9350480    -0.6483300
  C        2.2519364    -0.1266193    -0.1032543
  C       -5.5355430    -0.5984480    -0.1257210
  C        2.9140800     0.9938170     0.3783620
  C        2.9472190    -1.2508620    -0.5439590
  C        4.3132210     0.9773220     0.4183570
  C        4.3370840    -1.2508910    -0.4991240
  C        5.0300920    -0.1353830    -0.0155080
  H        0.3103430     1.7730630    -0.2708990
  H        0.3551050     1.0439550     1.3523320
  H       -1.1374380    -1.3254410     1.3139440
  H       -1.8855300     2.1916430    -1.0389860
  H       -3.5267120    -1.9532640     1.1308580
  H       -4.2733370     1.5694920    -1.2133600
  H       -6.0038750    -0.1617940    -1.0122750
  H       -5.6673980    -1.6833350    -0.1714030
  H       -6.0811880    -0.2353180     0.7521400
  H        2.3826970     1.8764090     0.7176150
  H        2.3879470    -2.1054110    -0.9150460
  H        4.8399070     1.8514100     0.7945710
  H        4.8825510    -2.1268580    -0.8422600
  H        6.1161710    -0.1361850     0.0199920
units angstrom
no_reorient  #important for SAPT in psi4, default
symmetry c1  #important for SAPT in psi4, default
}

set PROPERTIES_ORIGIN ["COM"]
properties('MP2/aug-cc-pvtz', properties = ['dipole'])
--------------------------------------------------------------------------

    Molecular point group: c1
  Charge       = 0
  Multiplicity = 1
  Basis Set: AUG-CC-PVTZ
    Blend: AUG-CC-PVTZ
  Basis Set: (AUG-CC-PVTZ AUX)
    Blend: AUG-CC-PVTZ-JKFIT

    Orbital Energies [Eh]
    ---------------------

    Doubly Occupied:

       1A    -20.580693     2A    -11.299527     3A    -11.291285
       4A    -11.243062     5A    -11.241789     6A    -11.240215
       7A    -11.238174     8A    -11.236659     9A    -11.234068
      10A    -11.233133    11A    -11.231527    12A    -11.231344
      13A    -11.228554    14A    -11.228267    15A    -11.225333
      16A     -1.395931    17A     -1.158428    18A     -1.146219
      19A     -1.065578    20A     -1.019614    21A     -1.012796
      22A     -1.009275    23A     -0.963289    24A     -0.897750
      25A     -0.833513    26A     -0.831509    27A     -0.809072
      28A     -0.781715    29A     -0.720158    30A     -0.682519
      31A     -0.668399    32A     -0.661555    33A     -0.643542
      34A     -0.630750    35A     -0.618878    36A     -0.609258
      37A     -0.589120    38A     -0.582755    39A     -0.576427
      40A     -0.563190    41A     -0.542418    42A     -0.530578
      43A     -0.522166    44A     -0.513265    45A     -0.492927
      46A     -0.486042    47A     -0.484379    48A     -0.479032
      49A     -0.462812    50A     -0.341140    51A     -0.335990
      52A     -0.321382    53A     -0.315370

  @DF-RHF Final Energy:  -613.37083092966657

   => Energetics <=

    Nuclear Repulsion Energy =            870.6676635820056163
    One-Electron Energy =               -2559.5122481799721754
    Two-Electron Energy =                1075.4737536682998780
    Total Energy =                       -613.3708309296666812
  Basis Set: (AUG-CC-PVTZ AUX)
    Blend: AUG-CC-PVTZ-RI
    Molecular point group: c1

    Geometry (in Angstrom), charge = 0, multiplicity = 1:

       Center              X                  Y                   Z               Mass
    ------------   -----------------  -----------------  -----------------  -----------------
         O            0.827793695651    -0.235541565521    -0.194886006809    15.994914619570
         C           -1.390989304349     0.487902434479     0.168950993191    12.000000000000
         C            0.054593695651     0.862803434479     0.303425993191    12.000000000000
         C           -4.113767304349    -0.229843565521    -0.045228006809    12.000000000000
         C           -1.867015304349    -0.681747565521     0.774362993191    12.000000000000
         C           -2.282659304349     1.290450434479    -0.546695006809    12.000000000000
         C           -3.209874304349    -1.033799565521     0.664723993191    12.000000000000
         C           -3.629980304349     0.937841434479    -0.645326006809    12.000000000000
         C            2.214189095651    -0.123825865521    -0.100250306809    12.000000000000
         C           -5.573290304349    -0.595654565521    -0.122717006809    12.000000000000
         C            2.876332695651     0.996610434479     0.381365993191    12.000000000000
         C            2.909471695651    -1.248068565521    -0.540955006809    12.000000000000
         C            4.275473695651     0.980115434479     0.421360993191    12.000000000000
         C            4.299336695651    -1.248097565521    -0.496120006809    12.000000000000
         C            4.992344695651    -0.132589565521    -0.012504006809    12.000000000000
         H            0.272595695651     1.775856434479    -0.267895006809     1.007825032230
         H            0.317357695651     1.046748434479     1.355335993191     1.007825032230
         H           -1.175185304349    -1.322647565521     1.316947993191     1.007825032230
         H           -1.923277304349     2.194436434479    -1.035982006809     1.007825032230
         H           -3.564459304349    -1.950470565521     1.133861993191     1.007825032230
         H           -4.311084304349     1.572285434479    -1.210356006809     1.007825032230
         H           -6.041622304349    -0.159000565521    -1.009271006809     1.007825032230
         H           -5.705145304349    -1.680541565521    -0.168399006809     1.007825032230
         H           -6.118935304349    -0.232524565521     0.755143993191     1.007825032230
         H            2.344949695651     1.879202434479     0.720618993191     1.007825032230
         H            2.350199695651    -2.102617565521    -0.912042006809     1.007825032230
         H            4.802159695651     1.854203434479     0.797574993191     1.007825032230
         H            4.844803695651    -2.124064565521    -0.839256006809     1.007825032230
         H            6.078423695651    -0.133391565521     0.022995993191     1.007825032230

  Basis Set: AUG-CC-PVTZ
    Blend: AUG-CC-PVTZ
  Basis Set: (AUG-CC-PVTZ AUX)
    Blend: AUG-CC-PVTZ-JKFIT
	 Reference Energy          =    -613.3708309296665675 [Eh]
	 Singles Energy            =      -0.0000000000000000 [Eh]
	 Same-Spin Energy          =      -0.6726750348994383 [Eh]
	 Opposite-Spin Energy      =      -2.1166847163611471 [Eh]
	 Correlation Energy        =      -2.7893597512605854 [Eh]
	 Total Energy              =    -616.1601906809271441 [Eh]

	 ================> DF-SCS-MP2 Energies <==================
	-----------------------------------------------------------
	 SCS Same-Spin Scale       =       0.3333333333333333 [-]
	 SCS Opposite-Spin Scale   =       1.2000000000000000 [-]
	 SCS Same-Spin Energy      =      -0.2242250116331461 [Eh]
	 SCS Opposite-Spin Energy  =      -2.5400216596333762 [Eh]
	 SCS Correlation Energy    =      -2.7642466712665223 [Eh]
	 SCS Total Energy          =    -616.1350776009330730 [Eh]
	-----------------------------------------------------------

  Dipole Moment: [D]
     X:    -0.8214      Y:     0.7213      Z:     0.4715     Total:     1.1905

*** Psi4 exiting successfully. Buy a developer a beer!
