                               Psi4 1.4a3.dev225

  ==> Input File <==

--------------------------------------------------------------------------
#psi4
#
memory 32 gb

molecule  {
0 1
  O        0.8655410    -0.2383350    -0.1978900
  C       -1.3532420     0.4851090     0.1659470
  C        0.0923410     0.8600100     0.3004220
  C       -4.0760200    -0.2326370    -0.0482320
  C       -1.8292680    -0.6845410     0.7713590
  C       -2.2449120     1.2876570    -0.5496990
  C       -3.1721270    -1.0365930     0.6617200
  C       -3.5922330     0.9350480    -0.6483300
  C        2.2320470    -0.1282220    -0.1046120
  C       -5.5355430    -0.5984480    -0.1257210
  C        3.0115779     1.1542145     0.4474040
  C        2.9472190    -1.2508620    -0.5439590
  C        4.3132210     0.9773220     0.4183570
  C        4.3370840    -1.2508910    -0.4991240
  C        5.0300920    -0.1353830    -0.0155080
  H        0.3103430     1.7730630    -0.2708990
  H        0.3551050     1.0439550     1.3523320
  H       -1.1374380    -1.3254410     1.3139440
  H       -1.8855300     2.1916430    -1.0389860
  H       -3.5267120    -1.9532640     1.1308580
  H       -4.2733370     1.5694920    -1.2133600
  H       -6.0038750    -0.1617940    -1.0122750
  H       -5.6673980    -1.6833350    -0.1714030
  H       -6.0811880    -0.2353180     0.7521400
  H        2.3826970     1.8764090     0.7176150
  H        2.3879470    -2.1054110    -0.9150460
  H        4.8399070     1.8514100     0.7945710
  H        4.8825510    -2.1268580    -0.8422600
  H        6.1161710    -0.1361850     0.0199920
units angstrom
no_reorient  #important for SAPT in psi4, default
symmetry c1  #important for SAPT in psi4, default
}

set PROPERTIES_ORIGIN ["COM"]
properties('MP2/aug-cc-pvtz', properties = ['dipole'])
--------------------------------------------------------------------------

    Molecular point group: c1
  Charge       = 0
  Multiplicity = 1
  Basis Set: AUG-CC-PVTZ
    Blend: AUG-CC-PVTZ
  Basis Set: (AUG-CC-PVTZ AUX)
    Blend: AUG-CC-PVTZ-JKFIT

    Orbital Energies [Eh]
    ---------------------

    Doubly Occupied:

       1A    -20.589244     2A    -11.317235     3A    -11.296552
       4A    -11.245172     5A    -11.241754     6A    -11.240800
       7A    -11.239125     8A    -11.238556     9A    -11.236466
      10A    -11.233488    11A    -11.233336    12A    -11.232808
      13A    -11.226785    14A    -11.223672    15A    -11.222121
      16A     -1.406778    17A     -1.159467    18A     -1.138899
      19A     -1.069007    20A     -1.031959    21A     -1.014512
      22A     -0.998060    23A     -0.960014    24A     -0.900937
      25A     -0.834792    26A     -0.827958    27A     -0.809049
      28A     -0.784818    29A     -0.716604    30A     -0.687396
      31A     -0.683916    32A     -0.670974    33A     -0.641399
      34A     -0.625703    35A     -0.622615    36A     -0.608429
      37A     -0.593765    38A     -0.584854    39A     -0.577919
      40A     -0.568317    41A     -0.543344    42A     -0.532604
      43A     -0.527750    44A     -0.518732    45A     -0.488253
      46A     -0.487827    47A     -0.486355    48A     -0.468483
      49A     -0.452008    50A     -0.353974    51A     -0.338001
      52A     -0.323815    53A     -0.295187

  @DF-RHF Final Energy:  -613.32969448498761

   => Energetics <=

    Nuclear Repulsion Energy =            867.8854937977580448
    One-Electron Energy =               -2553.7272030494518731
    Two-Electron Energy =                1072.5120147667062156
    Total Energy =                       -613.3296944849876127
  Basis Set: (AUG-CC-PVTZ AUX)
    Blend: AUG-CC-PVTZ-RI
    Molecular point group: c1

    Geometry (in Angstrom), charge = 0, multiplicity = 1:

       Center              X                  Y                   Z               Mass
    ------------   -----------------  -----------------  -----------------  -----------------
         O            0.823092630485    -0.245160417874    -0.198985922476    15.994914619570
         C           -1.395690369515     0.478283582126     0.164851077524    12.000000000000
         C            0.049892630485     0.853184582126     0.299326077524    12.000000000000
         C           -4.118468369515    -0.239462417874    -0.049327922476    12.000000000000
         C           -1.871716369515    -0.691366417874     0.770263077524    12.000000000000
         C           -2.287360369515     1.280831582126    -0.550794922476    12.000000000000
         C           -3.214575369515    -1.043418417874     0.660624077524    12.000000000000
         C           -3.634681369515     0.928222582126    -0.649425922476    12.000000000000
         C            2.189598630485    -0.135047417874    -0.105707922476    12.000000000000
         C           -5.577991369515    -0.605273417874    -0.126816922476    12.000000000000
         C            2.969129530485     1.147389082126     0.446308077524    12.000000000000
         C            2.904770630485    -1.257687417874    -0.545054922476    12.000000000000
         C            4.270772630485     0.970496582126     0.417261077524    12.000000000000
         C            4.294635630485    -1.257716417874    -0.500219922476    12.000000000000
         C            4.987643630485    -0.142208417874    -0.016603922476    12.000000000000
         H            0.267894630485     1.766237582126    -0.271994922476     1.007825032230
         H            0.312656630485     1.037129582126     1.351236077524     1.007825032230
         H           -1.179886369515    -1.332266417874     1.312848077524     1.007825032230
         H           -1.927978369515     2.184817582126    -1.040081922476     1.007825032230
         H           -3.569160369515    -1.960089417874     1.129762077524     1.007825032230
         H           -4.315785369515     1.562666582126    -1.214455922476     1.007825032230
         H           -6.046323369515    -0.168619417874    -1.013370922476     1.007825032230
         H           -5.709846369515    -1.690160417874    -0.172498922476     1.007825032230
         H           -6.123636369515    -0.242143417874     0.751044077524     1.007825032230
         H            2.340248630485     1.869583582126     0.716519077524     1.007825032230
         H            2.345498630485    -2.112236417874    -0.916141922476     1.007825032230
         H            4.797458630485     1.844584582126     0.793475077524     1.007825032230
         H            4.840102630485    -2.133683417874    -0.843355922476     1.007825032230
         H            6.073722630485    -0.143010417874     0.018896077524     1.007825032230

  Basis Set: AUG-CC-PVTZ
    Blend: AUG-CC-PVTZ
  Basis Set: (AUG-CC-PVTZ AUX)
    Blend: AUG-CC-PVTZ-JKFIT
	 Reference Energy          =    -613.3296944849876127 [Eh]
	 Singles Energy            =      -0.0000000000000000 [Eh]
	 Same-Spin Energy          =      -0.6725379839993083 [Eh]
	 Opposite-Spin Energy      =      -2.1188790204033174 [Eh]
	 Correlation Energy        =      -2.7914170044026259 [Eh]
	 Total Energy              =    -616.1211114893902732 [Eh]

	 ================> DF-SCS-MP2 Energies <==================
	-----------------------------------------------------------
	 SCS Same-Spin Scale       =       0.3333333333333333 [-]
	 SCS Opposite-Spin Scale   =       1.2000000000000000 [-]
	 SCS Same-Spin Energy      =      -0.2241793279997694 [Eh]
	 SCS Opposite-Spin Energy  =      -2.5426548244839808 [Eh]
	 SCS Correlation Energy    =      -2.7668341524837503 [Eh]
	 SCS Total Energy          =    -616.0965286374713514 [Eh]
	-----------------------------------------------------------

  Dipole Moment: [D]
     X:    -1.2898      Y:     0.7448      Z:     0.4709     Total:     1.5621

*** Psi4 exiting successfully. Buy a developer a beer!
