                               Psi4 1.4a3.dev225

  ==> Input File <==

--------------------------------------------------------------------------
#psi4
#
memory 32 gb

molecule  {
0 1
  O        0.8655410    -0.2383350    -0.1978900
  C       -1.3532420     0.4851090     0.1659470
  C        0.0923410     0.8600100     0.3004220
  C       -4.0760200    -0.2326370    -0.0482320
  C       -1.8292680    -0.6845410     0.7713590
  C       -2.2449120     1.2876570    -0.5496990
  C       -3.1721270    -1.0365930     0.6617200
  C       -3.4957329     0.9603032    -0.6412657
  C        2.2320470    -0.1282220    -0.1046120
  C       -5.5355430    -0.5984480    -0.1257210
  C        2.9140800     0.9938170     0.3783620
  C        2.9472190    -1.2508620    -0.5439590
  C        4.3132210     0.9773220     0.4183570
  C        4.3370840    -1.2508910    -0.4991240
  C        5.0300920    -0.1353830    -0.0155080
  H        0.3103430     1.7730630    -0.2708990
  H        0.3551050     1.0439550     1.3523320
  H       -1.1374380    -1.3254410     1.3139440
  H       -1.8855300     2.1916430    -1.0389860
  H       -3.5267120    -1.9532640     1.1308580
  H       -4.2733370     1.5694920    -1.2133600
  H       -6.0038750    -0.1617940    -1.0122750
  H       -5.6673980    -1.6833350    -0.1714030
  H       -6.0811880    -0.2353180     0.7521400
  H        2.3826970     1.8764090     0.7176150
  H        2.3879470    -2.1054110    -0.9150460
  H        4.8399070     1.8514100     0.7945710
  H        4.8825510    -2.1268580    -0.8422600
  H        6.1161710    -0.1361850     0.0199920
units angstrom
no_reorient  #important for SAPT in psi4, default
symmetry c1  #important for SAPT in psi4, default
}

set PROPERTIES_ORIGIN ["COM"]
properties('MP2/aug-cc-pvtz', properties = ['dipole'])
--------------------------------------------------------------------------

    Molecular point group: c1
  Charge       = 0
  Multiplicity = 1
  Basis Set: AUG-CC-PVTZ
    Blend: AUG-CC-PVTZ
  Basis Set: (AUG-CC-PVTZ AUX)
    Blend: AUG-CC-PVTZ-JKFIT

    Orbital Energies [Eh]
    ---------------------

    Doubly Occupied:

       1A    -20.583445     2A    -11.300675     3A    -11.292593
       4A    -11.248905     5A    -11.240745     6A    -11.239187
       7A    -11.237956     8A    -11.233449     9A    -11.232681
      10A    -11.231353    11A    -11.230681    12A    -11.228955
      13A    -11.227435    14A    -11.227037    15A    -11.225183
      16A     -1.404384    17A     -1.163393    18A     -1.143886
      19A     -1.062977    20A     -1.027640    21A     -1.016996
      22A     -1.007051    23A     -0.966663    24A     -0.897474
      25A     -0.831854    26A     -0.824211    27A     -0.808414
      28A     -0.785847    29A     -0.720925    30A     -0.685065
      31A     -0.672184    32A     -0.663392    33A     -0.644603
      34A     -0.625432    35A     -0.622717    36A     -0.606254
      37A     -0.586509    38A     -0.584452    39A     -0.577776
      40A     -0.561889    41A     -0.545517    42A     -0.531279
      43A     -0.523877    44A     -0.513868    45A     -0.496440
      46A     -0.490918    47A     -0.480547    48A     -0.470566
      49A     -0.461728    50A     -0.349500    51A     -0.339674
      52A     -0.313989    53A     -0.311812

  @DF-RHF Final Energy:  -613.35732638125671

   => Energetics <=

    Nuclear Repulsion Energy =            871.7820443447299112
    One-Electron Energy =               -2561.6747798905585114
    Two-Electron Energy =                1076.5354091645717745
    Total Energy =                       -613.3573263812568257
  Basis Set: (AUG-CC-PVTZ AUX)
    Blend: AUG-CC-PVTZ-RI
    Molecular point group: c1

    Geometry (in Angstrom), charge = 0, multiplicity = 1:

       Center              X                  Y                   Z               Mass
    ------------   -----------------  -----------------  -----------------  -----------------
         O            0.823153071324    -0.236974294459    -0.195231678977    15.994914619570
         C           -1.395629928676     0.486469705541     0.168605321023    12.000000000000
         C            0.049953071324     0.861370705541     0.303080321023    12.000000000000
         C           -4.118407928676    -0.231276294459    -0.045573678977    12.000000000000
         C           -1.871655928676    -0.683180294459     0.774017321023    12.000000000000
         C           -2.287299928676     1.289017705541    -0.547040678977    12.000000000000
         C           -3.214514928676    -1.035232294459     0.664378321023    12.000000000000
         C           -3.538120828676     0.961663905541    -0.638607378977    12.000000000000
         C            2.189659071324    -0.126861294459    -0.101953678977    12.000000000000
         C           -5.577930928676    -0.597087294459    -0.123062678977    12.000000000000
         C            2.871692071324     0.995177705541     0.381020321023    12.000000000000
         C            2.904831071324    -1.249501294459    -0.541300678977    12.000000000000
         C            4.270833071324     0.978682705541     0.421015321023    12.000000000000
         C            4.294696071324    -1.249530294459    -0.496465678977    12.000000000000
         C            4.987704071324    -0.134022294459    -0.012849678977    12.000000000000
         H            0.267955071324     1.774423705541    -0.268240678977     1.007825032230
         H            0.312717071324     1.045315705541     1.354990321023     1.007825032230
         H           -1.179825928676    -1.324080294459     1.316602321023     1.007825032230
         H           -1.927917928676     2.193003705541    -1.036327678977     1.007825032230
         H           -3.569099928676    -1.951903294459     1.133516321023     1.007825032230
         H           -4.315724928676     1.570852705541    -1.210701678977     1.007825032230
         H           -6.046262928676    -0.160433294459    -1.009616678977     1.007825032230
         H           -5.709785928676    -1.681974294459    -0.168744678977     1.007825032230
         H           -6.123575928676    -0.233957294459     0.754798321023     1.007825032230
         H            2.340309071324     1.877769705541     0.720273321023     1.007825032230
         H            2.345559071324    -2.104050294459    -0.912387678977     1.007825032230
         H            4.797519071324     1.852770705541     0.797229321023     1.007825032230
         H            4.840163071324    -2.125497294459    -0.839601678977     1.007825032230
         H            6.073783071324    -0.134824294459     0.022650321023     1.007825032230

  Basis Set: AUG-CC-PVTZ
    Blend: AUG-CC-PVTZ
  Basis Set: (AUG-CC-PVTZ AUX)
    Blend: AUG-CC-PVTZ-JKFIT
	 Reference Energy          =    -613.3573263812567120 [Eh]
	 Singles Energy            =      -0.0000000000000000 [Eh]
	 Same-Spin Energy          =      -0.6728586124122656 [Eh]
	 Opposite-Spin Energy      =      -2.1170176301043413 [Eh]
	 Correlation Energy        =      -2.7898762425166068 [Eh]
	 Total Energy              =    -616.1472026237732962 [Eh]

	 ================> DF-SCS-MP2 Energies <==================
	-----------------------------------------------------------
	 SCS Same-Spin Scale       =       0.3333333333333333 [-]
	 SCS Opposite-Spin Scale   =       1.2000000000000000 [-]
	 SCS Same-Spin Energy      =      -0.2242862041374219 [Eh]
	 SCS Opposite-Spin Energy  =      -2.5404211561252095 [Eh]
	 SCS Correlation Energy    =      -2.7647073602626313 [Eh]
	 SCS Total Energy          =    -616.1220337415193171 [Eh]
	-----------------------------------------------------------

  Dipole Moment: [D]
     X:    -1.0614      Y:     0.6916      Z:     0.4925     Total:     1.3592

*** Psi4 exiting successfully. Buy a developer a beer!
