                               Psi4 1.4a3.dev225

  ==> Input File <==

--------------------------------------------------------------------------
#psi4
#
memory 32 gb

molecule  {
0 1
  O        0.8655410    -0.2383350    -0.1978900
  C       -1.3532420     0.4851090     0.1659470
  C        0.0923410     0.8600100     0.3004220
  C       -4.0852847    -0.2092339    -0.0020569
  C       -1.8292680    -0.6845410     0.7713590
  C       -2.2449120     1.2876570    -0.5496990
  C       -3.1721270    -1.0365930     0.6617200
  C       -3.5922330     0.9350480    -0.6483300
  C        2.2320470    -0.1282220    -0.1046120
  C       -5.5355430    -0.5984480    -0.1257210
  C        2.9140800     0.9938170     0.3783620
  C        2.9472190    -1.2508620    -0.5439590
  C        4.3132210     0.9773220     0.4183570
  C        4.3370840    -1.2508910    -0.4991240
  C        5.0300920    -0.1353830    -0.0155080
  H        0.3103430     1.7730630    -0.2708990
  H        0.3551050     1.0439550     1.3523320
  H       -1.1374380    -1.3254410     1.3139440
  H       -1.8855300     2.1916430    -1.0389860
  H       -3.5267120    -1.9532640     1.1308580
  H       -4.2733370     1.5694920    -1.2133600
  H       -6.0038750    -0.1617940    -1.0122750
  H       -5.6673980    -1.6833350    -0.1714030
  H       -6.0811880    -0.2353180     0.7521400
  H        2.3826970     1.8764090     0.7176150
  H        2.3879470    -2.1054110    -0.9150460
  H        4.8399070     1.8514100     0.7945710
  H        4.8825510    -2.1268580    -0.8422600
  H        6.1161710    -0.1361850     0.0199920
units angstrom
no_reorient  #important for SAPT in psi4, default
symmetry c1  #important for SAPT in psi4, default
}

set PROPERTIES_ORIGIN ["COM"]
properties('MP2/aug-cc-pvtz', properties = ['dipole'])
--------------------------------------------------------------------------

    Molecular point group: c1
  Charge       = 0
  Multiplicity = 1
  Basis Set: AUG-CC-PVTZ
    Blend: AUG-CC-PVTZ
  Basis Set: (AUG-CC-PVTZ AUX)
    Blend: AUG-CC-PVTZ-JKFIT

    Orbital Energies [Eh]
    ---------------------

    Doubly Occupied:

       1A    -20.583813     2A    -11.300963     3A    -11.293088
       4A    -11.244191     5A    -11.240920     6A    -11.239357
       7A    -11.238934     8A    -11.237427     9A    -11.234874
      10A    -11.232895    11A    -11.232738    12A    -11.231813
      13A    -11.227634    14A    -11.227215    15A    -11.225931
      16A     -1.404775    17A     -1.158732    18A     -1.143676
      19A     -1.066964    20A     -1.017695    21A     -1.013354
      22A     -1.008237    23A     -0.964053    24A     -0.899464
      25A     -0.832710    26A     -0.831472    27A     -0.808775
      28A     -0.782394    29A     -0.721095    30A     -0.683850
      31A     -0.670382    32A     -0.663625    33A     -0.643740
      34A     -0.631137    35A     -0.620341    36A     -0.609305
      37A     -0.586708    38A     -0.583526    39A     -0.577324
      40A     -0.564078    41A     -0.543433    42A     -0.531256
      43A     -0.523015    44A     -0.514167    45A     -0.489961
      46A     -0.487670    47A     -0.485796    48A     -0.478089
      49A     -0.464007    50A     -0.339903    51A     -0.336670
      52A     -0.321852    53A     -0.312264

  @DF-RHF Final Energy:  -613.37075375305221

   => Energetics <=

    Nuclear Repulsion Energy =            870.6991013518467071
    One-Electron Energy =               -2559.5251345132060123
    Two-Electron Energy =                1075.4552794083069784
    Total Energy =                       -613.3707537530522131
  Basis Set: (AUG-CC-PVTZ AUX)
    Blend: AUG-CC-PVTZ-RI
    Molecular point group: c1

    Geometry (in Angstrom), charge = 0, multiplicity = 1:

       Center              X                  Y                   Z               Mass
    ------------   -----------------  -----------------  -----------------  -----------------
         O            0.829559679067    -0.236862105166    -0.197600780551    15.994914619570
         C           -1.389223320933     0.486581894834     0.166236219449    12.000000000000
         C            0.056359679067     0.861482894834     0.300711219449    12.000000000000
         C           -4.121266020933    -0.207761005166    -0.001767680551    12.000000000000
         C           -1.865249320933    -0.683068105166     0.771648219449    12.000000000000
         C           -2.280893320933     1.289129894834    -0.549409780551    12.000000000000
         C           -3.208108320933    -1.035120105166     0.662009219449    12.000000000000
         C           -3.628214320933     0.936520894834    -0.648040780551    12.000000000000
         C            2.196065679067    -0.126749105166    -0.104322780551    12.000000000000
         C           -5.571524320933    -0.596975105166    -0.125431780551    12.000000000000
         C            2.878098679067     0.995289894834     0.378651219449    12.000000000000
         C            2.911237679067    -1.249389105166    -0.543669780551    12.000000000000
         C            4.277239679067     0.978794894834     0.418646219449    12.000000000000
         C            4.301102679067    -1.249418105166    -0.498834780551    12.000000000000
         C            4.994110679067    -0.133910105166    -0.015218780551    12.000000000000
         H            0.274361679067     1.774535894834    -0.270609780551     1.007825032230
         H            0.319123679067     1.045427894834     1.352621219449     1.007825032230
         H           -1.173419320933    -1.323968105166     1.314233219449     1.007825032230
         H           -1.921511320933     2.193115894834    -1.038696780551     1.007825032230
         H           -3.562693320933    -1.951791105166     1.131147219449     1.007825032230
         H           -4.309318320933     1.570964894834    -1.213070780551     1.007825032230
         H           -6.039856320933    -0.160321105166    -1.011985780551     1.007825032230
         H           -5.703379320933    -1.681862105166    -0.171113780551     1.007825032230
         H           -6.117169320933    -0.233845105166     0.752429219449     1.007825032230
         H            2.346715679067     1.877881894834     0.717904219449     1.007825032230
         H            2.351965679067    -2.103938105166    -0.914756780551     1.007825032230
         H            4.803925679067     1.852882894834     0.794860219449     1.007825032230
         H            4.846569679067    -2.125385105166    -0.841970780551     1.007825032230
         H            6.080189679067    -0.134712105166     0.020281219449     1.007825032230

  Basis Set: AUG-CC-PVTZ
    Blend: AUG-CC-PVTZ
  Basis Set: (AUG-CC-PVTZ AUX)
    Blend: AUG-CC-PVTZ-JKFIT
	 Reference Energy          =    -613.3707537530522131 [Eh]
	 Singles Energy            =      -0.0000000000000000 [Eh]
	 Same-Spin Energy          =      -0.6726957131625504 [Eh]
	 Opposite-Spin Energy      =      -2.1165976220040417 [Eh]
	 Correlation Energy        =      -2.7892933351665921 [Eh]
	 Total Energy              =    -616.1600470882187892 [Eh]

	 ================> DF-SCS-MP2 Energies <==================
	-----------------------------------------------------------
	 SCS Same-Spin Scale       =       0.3333333333333333 [-]
	 SCS Opposite-Spin Scale   =       1.2000000000000000 [-]
	 SCS Same-Spin Energy      =      -0.2242319043875168 [Eh]
	 SCS Opposite-Spin Energy  =      -2.5399171464048500 [Eh]
	 SCS Correlation Energy    =      -2.7641490507923669 [Eh]
	 SCS Total Energy          =    -616.1349028038446249 [Eh]
	-----------------------------------------------------------

  Dipole Moment: [D]
     X:    -1.0127      Y:     0.7178      Z:     0.4511     Total:     1.3207

*** Psi4 exiting successfully. Buy a developer a beer!
