                               Psi4 1.4a3.dev225

  ==> Input File <==

--------------------------------------------------------------------------
#psi4
#
memory 32 gb

molecule  {
0 1
  O        0.8655410    -0.2383350    -0.1978900
  C       -1.3532420     0.4851090     0.1659470
  C        0.0923410     0.8600100     0.3004220
  C       -4.0760200    -0.2326370    -0.0482320
  C       -1.8292680    -0.6845410     0.7713590
  C       -2.2449120     1.2876570    -0.5496990
  C       -3.1528408    -1.0315368     0.6632946
  C       -3.5922330     0.9350480    -0.6483300
  C        2.2320470    -0.1282220    -0.1046120
  C       -5.5355430    -0.5984480    -0.1257210
  C        2.9140800     0.9938170     0.3783620
  C        2.9472190    -1.2508620    -0.5439590
  C        4.3132210     0.9773220     0.4183570
  C        4.3370840    -1.2508910    -0.4991240
  C        5.0300920    -0.1353830    -0.0155080
  H        0.3103430     1.7730630    -0.2708990
  H        0.3551050     1.0439550     1.3523320
  H       -1.1374380    -1.3254410     1.3139440
  H       -1.8855300     2.1916430    -1.0389860
  H       -3.5267120    -1.9532640     1.1308580
  H       -4.2733370     1.5694920    -1.2133600
  H       -6.0038750    -0.1617940    -1.0122750
  H       -5.6673980    -1.6833350    -0.1714030
  H       -6.0811880    -0.2353180     0.7521400
  H        2.3826970     1.8764090     0.7176150
  H        2.3879470    -2.1054110    -0.9150460
  H        4.8399070     1.8514100     0.7945710
  H        4.8825510    -2.1268580    -0.8422600
  H        6.1161710    -0.1361850     0.0199920
units angstrom
no_reorient  #important for SAPT in psi4, default
symmetry c1  #important for SAPT in psi4, default
}

set PROPERTIES_ORIGIN ["COM"]
properties('MP2/aug-cc-pvtz', properties = ['dipole'])
--------------------------------------------------------------------------

    Molecular point group: c1
  Charge       = 0
  Multiplicity = 1
  Basis Set: AUG-CC-PVTZ
    Blend: AUG-CC-PVTZ
  Basis Set: (AUG-CC-PVTZ AUX)
    Blend: AUG-CC-PVTZ-JKFIT

    Orbital Energies [Eh]
    ---------------------

    Doubly Occupied:

       1A    -20.583866     2A    -11.301003     3A    -11.293095
       4A    -11.244861     5A    -11.240938     6A    -11.239373
       7A    -11.239009     8A    -11.237257     9A    -11.233004
      10A    -11.232921    11A    -11.231977    12A    -11.231577
      13A    -11.227657    14A    -11.227235    15A    -11.226510
      16A     -1.404833    17A     -1.159498    18A     -1.143761
      19A     -1.066159    20A     -1.017749    21A     -1.015286
      22A     -1.008767    23A     -0.964567    24A     -0.899155
      25A     -0.832320    26A     -0.830332    27A     -0.808926
      28A     -0.783196    29A     -0.721109    30A     -0.684121
      31A     -0.670887    32A     -0.663669    33A     -0.643879
      34A     -0.629978    35A     -0.620098    36A     -0.609199
      37A     -0.586714    38A     -0.583883    39A     -0.577114
      40A     -0.563509    41A     -0.543758    42A     -0.532148
      43A     -0.522939    44A     -0.514233    45A     -0.492070
      46A     -0.486441    47A     -0.484099    48A     -0.478778
      49A     -0.464007    50A     -0.339914    51A     -0.339061
      52A     -0.320820    53A     -0.312303

  @DF-RHF Final Energy:  -613.37120287191237

   => Energetics <=

    Nuclear Repulsion Energy =            870.9536250679738032
    One-Electron Energy =               -2560.0305299668475527
    Two-Electron Energy =                1075.7057020269612622
    Total Energy =                       -613.3712028719123737
  Basis Set: (AUG-CC-PVTZ AUX)
    Blend: AUG-CC-PVTZ-RI
    Molecular point group: c1

    Geometry (in Angstrom), charge = 0, multiplicity = 1:

       Center              X                  Y                   Z               Mass
    ------------   -----------------  -----------------  -----------------  -----------------
         O            0.827830233949    -0.235750758181    -0.194899145332    15.994914619570
         C           -1.390952766051     0.487693241819     0.168937854668    12.000000000000
         C            0.054630233949     0.862594241819     0.303412854668    12.000000000000
         C           -4.113730766051    -0.230052758181    -0.045241145332    12.000000000000
         C           -1.866978766051    -0.681956758181     0.774349854668    12.000000000000
         C           -2.282622766051     1.290241241819    -0.546708145332    12.000000000000
         C           -3.190551566051    -1.028952558181     0.666285454668    12.000000000000
         C           -3.629943766051     0.937632241819    -0.645339145332    12.000000000000
         C            2.194336233949    -0.125637758181    -0.101621145332    12.000000000000
         C           -5.573253766051    -0.595863758181    -0.122730145332    12.000000000000
         C            2.876369233949     0.996401241819     0.381352854668    12.000000000000
         C            2.909508233949    -1.248277758181    -0.540968145332    12.000000000000
         C            4.275510233949     0.979906241819     0.421347854668    12.000000000000
         C            4.299373233949    -1.248306758181    -0.496133145332    12.000000000000
         C            4.992381233949    -0.132798758181    -0.012517145332    12.000000000000
         H            0.272632233949     1.775647241819    -0.267908145332     1.007825032230
         H            0.317394233949     1.046539241819     1.355322854668     1.007825032230
         H           -1.175148766051    -1.322856758181     1.316934854668     1.007825032230
         H           -1.923240766051     2.194227241819    -1.035995145332     1.007825032230
         H           -3.564422766051    -1.950679758181     1.133848854668     1.007825032230
         H           -4.311047766051     1.572076241819    -1.210369145332     1.007825032230
         H           -6.041585766051    -0.159209758181    -1.009284145332     1.007825032230
         H           -5.705108766051    -1.680750758181    -0.168412145332     1.007825032230
         H           -6.118898766051    -0.232733758181     0.755130854668     1.007825032230
         H            2.344986233949     1.878993241819     0.720605854668     1.007825032230
         H            2.350236233949    -2.102826758181    -0.912055145332     1.007825032230
         H            4.802196233949     1.853994241819     0.797561854668     1.007825032230
         H            4.844840233949    -2.124273758181    -0.839269145332     1.007825032230
         H            6.078460233949    -0.133600758181     0.022982854668     1.007825032230

  Basis Set: AUG-CC-PVTZ
    Blend: AUG-CC-PVTZ
  Basis Set: (AUG-CC-PVTZ AUX)
    Blend: AUG-CC-PVTZ-JKFIT
	 Reference Energy          =    -613.3712028719123737 [Eh]
	 Singles Energy            =      -0.0000000000000000 [Eh]
	 Same-Spin Energy          =      -0.6726169626109558 [Eh]
	 Opposite-Spin Energy      =      -2.1164659673695678 [Eh]
	 Correlation Energy        =      -2.7890829299805238 [Eh]
	 Total Energy              =    -616.1602858018928828 [Eh]

	 ================> DF-SCS-MP2 Energies <==================
	-----------------------------------------------------------
	 SCS Same-Spin Scale       =       0.3333333333333333 [-]
	 SCS Opposite-Spin Scale   =       1.2000000000000000 [-]
	 SCS Same-Spin Energy      =      -0.2242056542036519 [Eh]
	 SCS Opposite-Spin Energy  =      -2.5397591608434813 [Eh]
	 SCS Correlation Energy    =      -2.7639648150471334 [Eh]
	 SCS Total Energy          =    -616.1351676869595622 [Eh]
	-----------------------------------------------------------

  Dipole Moment: [D]
     X:    -1.0178      Y:     0.7350      Z:     0.4675     Total:     1.3397

*** Psi4 exiting successfully. Buy a developer a beer!
