                               Psi4 1.4a3.dev225

  ==> Input File <==

--------------------------------------------------------------------------
#psi4
#
memory 32 gb

molecule  {
0 1
  O        0.8655410    -0.2383350    -0.1978900
  C       -1.3532420     0.4851090     0.1659470
  C        0.0923410     0.8600100     0.3004220
  C       -4.0760200    -0.2326370    -0.0482320
  C       -1.8292680    -0.6845410     0.7713590
  C       -2.2449120     1.2876570    -0.5496990
  C       -3.1721270    -1.0365930     0.6617200
  C       -3.5922330     0.9350480    -0.6483300
  C        2.2320470    -0.1282220    -0.1046120
  C       -5.5355430    -0.5984480    -0.1257210
  C        2.9140800     0.9938170     0.3783620
  C        2.9472190    -1.2508620    -0.5439590
  C        4.3132210     0.9773220     0.4183570
  C        4.3370840    -1.2508910    -0.4991240
  C        5.0300920    -0.1353830    -0.0155080
  H        0.3103430     1.7730630    -0.2708990
  H        0.3551050     1.0439550     1.3523320
  H       -1.1374380    -1.3254410     1.3139440
  H       -1.8855300     2.1916430    -1.0389860
  H       -3.5267120    -1.9532640     1.1308580
  H       -4.2733370     1.5694920    -1.2133600
  H       -6.0038750    -0.1617940    -1.0122750
  H       -5.6673980    -1.6833350    -0.1714030
  H       -6.0911491    -0.2286888     0.7681659
  H        2.3826970     1.8764090     0.7176150
  H        2.3879470    -2.1054110    -0.9150460
  H        4.8399070     1.8514100     0.7945710
  H        4.8825510    -2.1268580    -0.8422600
  H        6.1161710    -0.1361850     0.0199920
units angstrom
no_reorient  #important for SAPT in psi4, default
symmetry c1  #important for SAPT in psi4, default
}

set PROPERTIES_ORIGIN ["COM"]
properties('MP2/aug-cc-pvtz', properties = ['dipole'])
--------------------------------------------------------------------------

    Molecular point group: c1
  Charge       = 0
  Multiplicity = 1
  Basis Set: AUG-CC-PVTZ
    Blend: AUG-CC-PVTZ
  Basis Set: (AUG-CC-PVTZ AUX)
    Blend: AUG-CC-PVTZ-JKFIT

    Orbital Energies [Eh]
    ---------------------

    Doubly Occupied:

       1A    -20.583935     2A    -11.301043     3A    -11.293223
       4A    -11.243974     5A    -11.240980     6A    -11.239416
       7A    -11.239187     8A    -11.237613     9A    -11.235015
      10A    -11.232969    11A    -11.232363    12A    -11.232188
      13A    -11.228260    14A    -11.227702    15A    -11.227277
      16A     -1.404897    17A     -1.158879    18A     -1.143751
      19A     -1.066857    20A     -1.017720    21A     -1.013471
      22A     -1.008187    23A     -0.963431    24A     -0.898818
      25A     -0.833038    26A     -0.831384    27A     -0.808903
      28A     -0.782316    29A     -0.721185    30A     -0.683855
      31A     -0.670597    32A     -0.663708    33A     -0.643682
      34A     -0.631082    35A     -0.620625    36A     -0.609399
      37A     -0.586767    38A     -0.583622    39A     -0.573639
      40A     -0.564027    41A     -0.543474    42A     -0.531727
      43A     -0.522942    44A     -0.514075    45A     -0.491129
      46A     -0.486696    47A     -0.484969    48A     -0.478786
      49A     -0.464202    50A     -0.339961    51A     -0.336810
      52A     -0.322163    53A     -0.312342

  @DF-RHF Final Energy:  -613.37108283549776

   => Energetics <=

    Nuclear Repulsion Energy =            870.6572993020215563
    One-Electron Energy =               -2559.4402419130601629
    Two-Electron Energy =                1075.4118597755407336
    Total Energy =                       -613.3710828354978730
  Basis Set: (AUG-CC-PVTZ AUX)
    Blend: AUG-CC-PVTZ-RI
    Molecular point group: c1

    Geometry (in Angstrom), charge = 0, multiplicity = 1:

       Center              X                  Y                   Z               Mass
    ------------   -----------------  -----------------  -----------------  -----------------
         O            0.829049153704    -0.235478208411    -0.194885294574    15.994914619570
         C           -1.389733846296     0.487965791589     0.168951705426    12.000000000000
         C            0.055849153704     0.862866791589     0.303426705426    12.000000000000
         C           -4.112511846296    -0.229780208411    -0.045227294574    12.000000000000
         C           -1.865759846296    -0.681684208411     0.774363705426    12.000000000000
         C           -2.281403846296     1.290513791589    -0.546694294574    12.000000000000
         C           -3.208618846296    -1.033736208411     0.664724705426    12.000000000000
         C           -3.628724846296     0.937904791589    -0.645325294574    12.000000000000
         C            2.195555153704    -0.125365208411    -0.101607294574    12.000000000000
         C           -5.572034846296    -0.595591208411    -0.122716294574    12.000000000000
         C            2.877588153704     0.996673791589     0.381366705426    12.000000000000
         C            2.910727153704    -1.248005208411    -0.540954294574    12.000000000000
         C            4.276729153704     0.980178791589     0.421361705426    12.000000000000
         C            4.300592153704    -1.248034208411    -0.496119294574    12.000000000000
         C            4.993600153704    -0.132526208411    -0.012503294574    12.000000000000
         H            0.273851153704     1.775919791589    -0.267894294574     1.007825032230
         H            0.318613153704     1.046811791589     1.355336705426     1.007825032230
         H           -1.173929846296    -1.322584208411     1.316948705426     1.007825032230
         H           -1.922021846296     2.194499791589    -1.035981294574     1.007825032230
         H           -3.563203846296    -1.950407208411     1.133862705426     1.007825032230
         H           -4.309828846296     1.572348791589    -1.210355294574     1.007825032230
         H           -6.040366846296    -0.158937208411    -1.009270294574     1.007825032230
         H           -5.703889846296    -1.680478208411    -0.168398294574     1.007825032230
         H           -6.127640946296    -0.225832008411     0.771170605426     1.007825032230
         H            2.346205153704     1.879265791589     0.720619705426     1.007825032230
         H            2.351455153704    -2.102554208411    -0.912041294574     1.007825032230
         H            4.803415153704     1.854266791589     0.797575705426     1.007825032230
         H            4.846059153704    -2.124001208411    -0.839255294574     1.007825032230
         H            6.079679153704    -0.133328208411     0.022996705426     1.007825032230

  Basis Set: AUG-CC-PVTZ
    Blend: AUG-CC-PVTZ
  Basis Set: (AUG-CC-PVTZ AUX)
    Blend: AUG-CC-PVTZ-JKFIT
	 Reference Energy          =    -613.3710828354977593 [Eh]
	 Singles Energy            =      -0.0000000000000000 [Eh]
	 Same-Spin Energy          =      -0.6726469325103298 [Eh]
	 Opposite-Spin Energy      =      -2.1166398133346509 [Eh]
	 Correlation Energy        =      -2.7892867458449806 [Eh]
	 Total Energy              =    -616.1603695813427066 [Eh]

	 ================> DF-SCS-MP2 Energies <==================
	-----------------------------------------------------------
	 SCS Same-Spin Scale       =       0.3333333333333333 [-]
	 SCS Opposite-Spin Scale   =       1.2000000000000000 [-]
	 SCS Same-Spin Energy      =      -0.2242156441701099 [Eh]
	 SCS Opposite-Spin Energy  =      -2.5399677760015811 [Eh]
	 SCS Correlation Energy    =      -2.7641834201716908 [Eh]
	 SCS Total Energy          =    -616.1352662556694213 [Eh]
	-----------------------------------------------------------

  Dipole Moment: [D]
     X:    -0.9921      Y:     0.7307      Z:     0.4658     Total:     1.3172

*** Psi4 exiting successfully. Buy a developer a beer!
