                               Psi4 1.4a3.dev225

  ==> Input File <==

--------------------------------------------------------------------------
#psi4
#
memory 32 gb

molecule  {
0 1
  O        0.8655410    -0.2383350    -0.1978900
  C       -1.3532420     0.4851090     0.1659470
  C        0.0923410     0.8600100     0.3004220
  C       -4.0760200    -0.2326370    -0.0482320
  C       -1.8292680    -0.6845410     0.7713590
  C       -2.2449120     1.2876570    -0.5496990
  C       -3.1721270    -1.0365930     0.6617200
  C       -3.5922330     0.9350480    -0.6483300
  C        2.2320470    -0.1282220    -0.1046120
  C       -5.5355430    -0.5984480    -0.1257210
  C        2.9140800     0.9938170     0.3783620
  C        2.9472190    -1.2508620    -0.5439590
  C        4.3132210     0.9773220     0.4183570
  C        4.3370840    -1.2508910    -0.4991240
  C        4.9786270    -0.0555007     0.0156396
  H        0.3103430     1.7730630    -0.2708990
  H        0.3551050     1.0439550     1.3523320
  H       -1.1374380    -1.3254410     1.3139440
  H       -1.8855300     2.1916430    -1.0389860
  H       -3.5267120    -1.9532640     1.1308580
  H       -4.2733370     1.5694920    -1.2133600
  H       -6.0038750    -0.1617940    -1.0122750
  H       -5.6673980    -1.6833350    -0.1714030
  H       -6.0811880    -0.2353180     0.7521400
  H        2.3826970     1.8764090     0.7176150
  H        2.3879470    -2.1054110    -0.9150460
  H        4.8399070     1.8514100     0.7945710
  H        4.8825510    -2.1268580    -0.8422600
  H        6.1161710    -0.1361850     0.0199920
units angstrom
no_reorient  #important for SAPT in psi4, default
symmetry c1  #important for SAPT in psi4, default
}

set PROPERTIES_ORIGIN ["COM"]
properties('MP2/aug-cc-pvtz', properties = ['dipole'])
--------------------------------------------------------------------------

    Molecular point group: c1
  Charge       = 0
  Multiplicity = 1
  Basis Set: AUG-CC-PVTZ
    Blend: AUG-CC-PVTZ
  Basis Set: (AUG-CC-PVTZ AUX)
    Blend: AUG-CC-PVTZ-JKFIT

    Orbital Energies [Eh]
    ---------------------

    Doubly Occupied:

       1A    -20.583734     2A    -11.300249     3A    -11.292606
       4A    -11.244839     5A    -11.243655     6A    -11.238840
       7A    -11.237309     8A    -11.234755     9A    -11.232091
      10A    -11.231939    11A    -11.230405    12A    -11.229993
      13A    -11.227126    14A    -11.225756    15A    -11.224773
      16A     -1.404504    17A     -1.159541    18A     -1.149476
      19A     -1.067815    20A     -1.026272    21A     -1.012984
      22A     -1.002668    23A     -0.965596    24A     -0.900725
      25A     -0.833410    26A     -0.831344    27A     -0.805251
      28A     -0.782792    29A     -0.722030    30A     -0.684313
      31A     -0.669788    32A     -0.655762    33A     -0.645426
      34A     -0.631310    35A     -0.620412    36A     -0.612260
      37A     -0.591256    38A     -0.583375    39A     -0.576858
      40A     -0.564797    41A     -0.543395    42A     -0.530716
      43A     -0.524629    44A     -0.506154    45A     -0.487967
      46A     -0.486621    47A     -0.485146    48A     -0.475416
      49A     -0.467369    50A     -0.342722    51A     -0.336579
      52A     -0.321966    53A     -0.314959

  @DF-RHF Final Energy:  -613.35835216750888

   => Energetics <=

    Nuclear Repulsion Energy =            871.8889417989032609
    One-Electron Energy =               -2561.8912387686523289
    Two-Electron Energy =                1076.6439448022401848
    Total Energy =                       -613.3583521675088832
  Basis Set: (AUG-CC-PVTZ AUX)
    Blend: AUG-CC-PVTZ-RI
    Molecular point group: c1

    Geometry (in Angstrom), charge = 0, multiplicity = 1:

       Center              X                  Y                   Z               Mass
    ------------   -----------------  -----------------  -----------------  -----------------
         O            0.832115924328    -0.240283281966    -0.196690503239    15.994914619570
         C           -1.386667075672     0.483160718034     0.167146496761    12.000000000000
         C            0.058915924328     0.858061718034     0.301621496761    12.000000000000
         C           -4.109445075672    -0.234585281966    -0.047032503239    12.000000000000
         C           -1.862693075672    -0.686489281966     0.772558496761    12.000000000000
         C           -2.278337075672     1.285708718034    -0.548499503239    12.000000000000
         C           -3.205552075672    -1.038541281966     0.662919496761    12.000000000000
         C           -3.625658075672     0.933099718034    -0.647130503239    12.000000000000
         C            2.198621924328    -0.130170281966    -0.103412503239    12.000000000000
         C           -5.568968075672    -0.600396281966    -0.124521503239    12.000000000000
         C            2.880654924328     0.991868718034     0.379561496761    12.000000000000
         C            2.913793924328    -1.252810281966    -0.542759503239    12.000000000000
         C            4.279795924328     0.975373718034     0.419556496761    12.000000000000
         C            4.303658924328    -1.252839281966    -0.497924503239    12.000000000000
         C            4.945201924328    -0.057448981966     0.016839096761    12.000000000000
         H            0.276917924328     1.771114718034    -0.269699503239     1.007825032230
         H            0.321679924328     1.042006718034     1.353531496761     1.007825032230
         H           -1.170863075672    -1.327389281966     1.315143496761     1.007825032230
         H           -1.918955075672     2.189694718034    -1.037786503239     1.007825032230
         H           -3.560137075672    -1.955212281966     1.132057496761     1.007825032230
         H           -4.306762075672     1.567543718034    -1.212160503239     1.007825032230
         H           -6.037300075672    -0.163742281966    -1.011075503239     1.007825032230
         H           -5.700823075672    -1.685283281966    -0.170203503239     1.007825032230
         H           -6.114613075672    -0.237266281966     0.753339496761     1.007825032230
         H            2.349271924328     1.874460718034     0.718814496761     1.007825032230
         H            2.354521924328    -2.107359281966    -0.913846503239     1.007825032230
         H            4.806481924328     1.849461718034     0.795770496761     1.007825032230
         H            4.849125924328    -2.128806281966    -0.841060503239     1.007825032230
         H            6.082745924328    -0.138133281966     0.021191496761     1.007825032230

  Basis Set: AUG-CC-PVTZ
    Blend: AUG-CC-PVTZ
  Basis Set: (AUG-CC-PVTZ AUX)
    Blend: AUG-CC-PVTZ-JKFIT
	 Reference Energy          =    -613.3583521675088832 [Eh]
	 Singles Energy            =      -0.0000000000000000 [Eh]
	 Same-Spin Energy          =      -0.6723288582476415 [Eh]
	 Opposite-Spin Energy      =      -2.1166924669968674 [Eh]
	 Correlation Energy        =      -2.7890213252445091 [Eh]
	 Total Energy              =    -616.1473734927534451 [Eh]

	 ================> DF-SCS-MP2 Energies <==================
	-----------------------------------------------------------
	 SCS Same-Spin Scale       =       0.3333333333333333 [-]
	 SCS Opposite-Spin Scale   =       1.2000000000000000 [-]
	 SCS Same-Spin Energy      =      -0.2241096194158805 [Eh]
	 SCS Opposite-Spin Energy  =      -2.5400309603962410 [Eh]
	 SCS Correlation Energy    =      -2.7641405798121217 [Eh]
	 SCS Total Energy          =    -616.1224927473209618 [Eh]
	-----------------------------------------------------------

  Dipole Moment: [D]
     X:    -0.9965      Y:     0.6691      Z:     0.4447     Total:     1.2800

*** Psi4 exiting successfully. Buy a developer a beer!
