                               Psi4 1.4a3.dev225

  ==> Input File <==

--------------------------------------------------------------------------
#psi4
#
memory 32 gb

molecule  {
0 1
  O        0.8655410    -0.2383350    -0.1978900
  C       -1.3532420     0.4851090     0.1659470
  C        0.0923410     0.8600100     0.3004220
  C       -4.0760200    -0.2326370    -0.0482320
  C       -1.8292680    -0.6845410     0.7713590
  C       -2.2449120     1.2876570    -0.5496990
  C       -3.1721270    -1.0365930     0.6617200
  C       -3.5922330     0.9350480    -0.6483300
  C        2.2320470    -0.1282220    -0.1046120
  C       -5.5355430    -0.5984480    -0.1257210
  C        2.9140800     0.9938170     0.3783620
  C        2.9472190    -1.2508620    -0.5439590
  C        4.3132210     0.9773220     0.4183570
  C        4.3370840    -1.2508910    -0.4991240
  C        5.0300920    -0.1353830    -0.0155080
  H        0.3103430     1.7730630    -0.2708990
  H        0.3551050     1.0439550     1.3523320
  H       -1.1374380    -1.3254410     1.3139440
  H       -1.8855300     2.1916430    -1.0389860
  H       -3.5267120    -1.9532640     1.1308580
  H       -4.2733370     1.5694920    -1.2133600
  H       -6.0038750    -0.1617940    -1.0122750
  H       -5.6673980    -1.6833350    -0.1714030
  H       -6.0811880    -0.2353180     0.7521400
  H        2.3826970     1.8764090     0.7176150
  H        2.3879470    -2.1054110    -0.9150460
  H        4.8495919     1.8674831     0.8014890
  H        4.8825510    -2.1268580    -0.8422600
  H        6.1161710    -0.1361850     0.0199920
units angstrom
no_reorient  #important for SAPT in psi4, default
symmetry c1  #important for SAPT in psi4, default
}

set PROPERTIES_ORIGIN ["COM"]
properties('MP2/aug-cc-pvtz', properties = ['dipole'])
--------------------------------------------------------------------------

    Molecular point group: c1
  Charge       = 0
  Multiplicity = 1
  Basis Set: AUG-CC-PVTZ
    Blend: AUG-CC-PVTZ
  Basis Set: (AUG-CC-PVTZ AUX)
    Blend: AUG-CC-PVTZ-JKFIT

    Orbital Energies [Eh]
    ---------------------

    Doubly Occupied:

       1A    -20.583984     2A    -11.301147     3A    -11.293218
       4A    -11.243855     5A    -11.243284     6A    -11.239535
       7A    -11.239129     8A    -11.237571     9A    -11.234981
      10A    -11.233140    11A    -11.232278    12A    -11.232118
      13A    -11.227753    14A    -11.227444    15A    -11.225883
      16A     -1.404939    17A     -1.158856    18A     -1.143719
      19A     -1.067022    20A     -1.017281    21A     -1.013435
      22A     -1.008390    23A     -0.964021    24A     -0.899500
      25A     -0.832818    26A     -0.830664    27A     -0.808685
      28A     -0.782444    29A     -0.720340    30A     -0.683987
      31A     -0.670584    32A     -0.663679    33A     -0.643584
      34A     -0.630710    35A     -0.620517    36A     -0.608592
      37A     -0.585352    38A     -0.583572    39A     -0.576994
      40A     -0.564050    41A     -0.543365    42A     -0.531696
      43A     -0.522926    44A     -0.514013    45A     -0.490977
      46A     -0.486635    47A     -0.485119    48A     -0.478480
      49A     -0.464305    50A     -0.340047    51A     -0.336769
      52A     -0.322270    53A     -0.312423

  @DF-RHF Final Energy:  -613.37094442629189

   => Energetics <=

    Nuclear Repulsion Energy =            870.6412399638383022
    One-Electron Energy =               -2559.4082067784052015
    Two-Electron Energy =                1075.3960223882747869
    Total Energy =                       -613.3709444262919988
  Basis Set: (AUG-CC-PVTZ AUX)
    Blend: AUG-CC-PVTZ-RI
    Molecular point group: c1

    Geometry (in Angstrom), charge = 0, multiplicity = 1:

       Center              X                  Y                   Z               Mass
    ------------   -----------------  -----------------  -----------------  -----------------
         O            0.828949207796    -0.235526252754    -0.194838959578    15.994914619570
         C           -1.389833792204     0.487917747246     0.168998040422    12.000000000000
         C            0.055749207796     0.862818747246     0.303473040422    12.000000000000
         C           -4.112611792204    -0.229828252754    -0.045180959578    12.000000000000
         C           -1.865859792204    -0.681732252754     0.774410040422    12.000000000000
         C           -2.281503792204     1.290465747246    -0.546647959578    12.000000000000
         C           -3.208718792204    -1.033784252754     0.664771040422    12.000000000000
         C           -3.628824792204     0.937856747246    -0.645278959578    12.000000000000
         C            2.195455207796    -0.125413252754    -0.101560959578    12.000000000000
         C           -5.572134792204    -0.595639252754    -0.122669959578    12.000000000000
         C            2.877488207796     0.996625747246     0.381413040422    12.000000000000
         C            2.910627207796    -1.248053252754    -0.540907959578    12.000000000000
         C            4.276629207796     0.980130747246     0.421408040422    12.000000000000
         C            4.300492207796    -1.248082252754    -0.496072959578    12.000000000000
         C            4.993500207796    -0.132574252754    -0.012456959578    12.000000000000
         H            0.273751207796     1.775871747246    -0.267847959578     1.007825032230
         H            0.318513207796     1.046763747246     1.355383040422     1.007825032230
         H           -1.174029792204    -1.322632252754     1.316995040422     1.007825032230
         H           -1.922121792204     2.194451747246    -1.035934959578     1.007825032230
         H           -3.563303792204    -1.950455252754     1.133909040422     1.007825032230
         H           -4.309928792204     1.572300747246    -1.210308959578     1.007825032230
         H           -6.040466792204    -0.158985252754    -1.009223959578     1.007825032230
         H           -5.703989792204    -1.680526252754    -0.168351959578     1.007825032230
         H           -6.117779792204    -0.232509252754     0.755191040422     1.007825032230
         H            2.346105207796     1.879217747246     0.720666040422     1.007825032230
         H            2.351355207796    -2.102602252754    -0.911994959578     1.007825032230
         H            4.813000107796     1.870291847246     0.804540040422     1.007825032230
         H            4.845959207796    -2.124049252754    -0.839208959578     1.007825032230
         H            6.079579207796    -0.133376252754     0.023043040422     1.007825032230

  Basis Set: AUG-CC-PVTZ
    Blend: AUG-CC-PVTZ
  Basis Set: (AUG-CC-PVTZ AUX)
    Blend: AUG-CC-PVTZ-JKFIT
	 Reference Energy          =    -613.3709444262918851 [Eh]
	 Singles Energy            =      -0.0000000000000000 [Eh]
	 Same-Spin Energy          =      -0.6726871042125088 [Eh]
	 Opposite-Spin Energy      =      -2.1166738007449593 [Eh]
	 Correlation Energy        =      -2.7893609049574679 [Eh]
	 Total Energy              =    -616.1603053312493330 [Eh]

	 ================> DF-SCS-MP2 Energies <==================
	-----------------------------------------------------------
	 SCS Same-Spin Scale       =       0.3333333333333333 [-]
	 SCS Opposite-Spin Scale   =       1.2000000000000000 [-]
	 SCS Same-Spin Energy      =      -0.2242290347375029 [Eh]
	 SCS Opposite-Spin Energy  =      -2.5400085608939511 [Eh]
	 SCS Correlation Energy    =      -2.7642375956314540 [Eh]
	 SCS Total Energy          =    -616.1351820219233559 [Eh]
	-----------------------------------------------------------

  Dipole Moment: [D]
     X:    -1.0090      Y:     0.7251      Z:     0.4686     Total:     1.3280

*** Psi4 exiting successfully. Buy a developer a beer!
