                               Psi4 1.4a3.dev225

  ==> Input File <==

--------------------------------------------------------------------------
#psi4
#
memory 32 gb

molecule  {
0 1
  O        0.8655410    -0.2383350    -0.1978900
  C       -1.3532420     0.4851090     0.1659470
  C        0.0923410     0.8600100     0.3004220
  C       -4.0760200    -0.2326370    -0.0482320
  C       -1.8292680    -0.6845410     0.7713590
  C       -2.2449120     1.2876570    -0.5496990
  C       -3.1721270    -1.0365930     0.6617200
  C       -3.5922330     0.9350480    -0.6483300
  C        2.2320470    -0.1282220    -0.1046120
  C       -5.5355430    -0.5984480    -0.1257210
  C        2.9140800     0.9938170     0.3783620
  C        2.9472190    -1.2508620    -0.5439590
  C        4.3132210     0.9773220     0.4183570
  C        4.3370840    -1.2508910    -0.4991240
  C        5.0300920    -0.1353830    -0.0155080
  H        0.3103430     1.7730630    -0.2708990
  H        0.3551050     1.0439550     1.3523320
  H       -1.1374380    -1.3254410     1.3139440
  H       -1.8855300     2.1916430    -1.0389860
  H       -3.5267120    -1.9532640     1.1308580
  H       -4.2733370     1.5694920    -1.2133600
  H       -6.0038750    -0.1617940    -1.0122750
  H       -5.6673980    -1.6833350    -0.1714030
  H       -6.0811880    -0.2353180     0.7521400
  H        2.3337050     1.9577814     0.7488931
  H        2.3879470    -2.1054110    -0.9150460
  H        4.8399070     1.8514100     0.7945710
  H        4.8825510    -2.1268580    -0.8422600
  H        6.1161710    -0.1361850     0.0199920
units angstrom
no_reorient  #important for SAPT in psi4, default
symmetry c1  #important for SAPT in psi4, default
}

set PROPERTIES_ORIGIN ["COM"]
properties('MP2/aug-cc-pvtz', properties = ['dipole'])
--------------------------------------------------------------------------

    Molecular point group: c1
  Charge       = 0
  Multiplicity = 1
  Basis Set: AUG-CC-PVTZ
    Blend: AUG-CC-PVTZ
  Basis Set: (AUG-CC-PVTZ AUX)
    Blend: AUG-CC-PVTZ-JKFIT

    Orbital Energies [Eh]
    ---------------------

    Doubly Occupied:

       1A    -20.584006     2A    -11.302162     3A    -11.292693
       4A    -11.244274     5A    -11.243676     6A    -11.241776
       7A    -11.239862     8A    -11.238854     9A    -11.237344
      10A    -11.234770    11A    -11.232119    12A    -11.231955
      13A    -11.228520    14A    -11.228036    15A    -11.225759
      16A     -1.404902    17A     -1.158703    18A     -1.143947
      19A     -1.066898    20A     -1.016605    21A     -1.013144
      22A     -1.007421    23A     -0.963794    24A     -0.898981
      25A     -0.832854    26A     -0.829698    27A     -0.807633
      28A     -0.781835    29A     -0.718962    30A     -0.683389
      31A     -0.670051    32A     -0.659522    33A     -0.643136
      34A     -0.629930    35A     -0.620358    36A     -0.606175
      37A     -0.583402    38A     -0.582862    39A     -0.576775
      40A     -0.562103    41A     -0.543298    42A     -0.531950
      43A     -0.522869    44A     -0.512716    45A     -0.490666
      46A     -0.486534    47A     -0.484924    48A     -0.475917
      49A     -0.464410    50A     -0.340521    51A     -0.336605
      52A     -0.322050    53A     -0.312953

  @DF-RHF Final Energy:  -613.36394593687123

   => Energetics <=

    Nuclear Repulsion Energy =            870.2995993680445963
    One-Electron Energy =               -2558.7384960299777958
    Two-Electron Energy =                1075.0749507250618535
    Total Energy =                       -613.3639459368712323
  Basis Set: (AUG-CC-PVTZ AUX)
    Blend: AUG-CC-PVTZ-RI
    Molecular point group: c1

    Geometry (in Angstrom), charge = 0, multiplicity = 1:

       Center              X                  Y                   Z               Mass
    ------------   -----------------  -----------------  -----------------  -----------------
         O            0.829247717214    -0.235858452581    -0.194962887722    15.994914619570
         C           -1.389535282786     0.487585547419     0.168874112278    12.000000000000
         C            0.056047717214     0.862486547419     0.303349112278    12.000000000000
         C           -4.112313282786    -0.230160452581    -0.045304887722    12.000000000000
         C           -1.865561282786    -0.682064452581     0.774286112278    12.000000000000
         C           -2.281205282786     1.290133547419    -0.546771887722    12.000000000000
         C           -3.208420282786    -1.034116452581     0.664647112278    12.000000000000
         C           -3.628526282786     0.937524547419    -0.645402887722    12.000000000000
         C            2.195753717214    -0.125745452581    -0.101684887722    12.000000000000
         C           -5.571836282786    -0.595971452581    -0.122793887722    12.000000000000
         C            2.877786717214     0.996293547419     0.381289112278    12.000000000000
         C            2.910925717214    -1.248385452581    -0.541031887722    12.000000000000
         C            4.276927717214     0.979798547419     0.421284112278    12.000000000000
         C            4.300790717214    -1.248414452581    -0.496196887722    12.000000000000
         C            4.993798717214    -0.132906452581    -0.012580887722    12.000000000000
         H            0.274049717214     1.775539547419    -0.267971887722     1.007825032230
         H            0.318811717214     1.046431547419     1.355259112278     1.007825032230
         H           -1.173731282786    -1.322964452581     1.316871112278     1.007825032230
         H           -1.921823282786     2.194119547419    -1.036058887722     1.007825032230
         H           -3.563005282786    -1.950787452581     1.133785112278     1.007825032230
         H           -4.309630282786     1.571968547419    -1.210432887722     1.007825032230
         H           -6.040168282786    -0.159317452581    -1.009347887722     1.007825032230
         H           -5.703691282786    -1.680858452581    -0.168475887722     1.007825032230
         H           -6.117481282786    -0.232841452581     0.755067112278     1.007825032230
         H            2.297411717214     1.960257947419     0.751820212278     1.007825032230
         H            2.351653717214    -2.102934452581    -0.912118887722     1.007825032230
         H            4.803613717214     1.853886547419     0.797498112278     1.007825032230
         H            4.846257717214    -2.124381452581    -0.839332887722     1.007825032230
         H            6.079877717214    -0.133708452581     0.022919112278     1.007825032230

  Basis Set: AUG-CC-PVTZ
    Blend: AUG-CC-PVTZ
  Basis Set: (AUG-CC-PVTZ AUX)
    Blend: AUG-CC-PVTZ-JKFIT
	 Reference Energy          =    -613.3639459368712323 [Eh]
	 Singles Energy            =      -0.0000000000000000 [Eh]
	 Same-Spin Energy          =      -0.6729920868259663 [Eh]
	 Opposite-Spin Energy      =      -2.1175277725795660 [Eh]
	 Correlation Energy        =      -2.7905198594055323 [Eh]
	 Total Energy              =    -616.1544657962767815 [Eh]

	 ================> DF-SCS-MP2 Energies <==================
	-----------------------------------------------------------
	 SCS Same-Spin Scale       =       0.3333333333333333 [-]
	 SCS Opposite-Spin Scale   =       1.2000000000000000 [-]
	 SCS Same-Spin Energy      =      -0.2243306956086554 [Eh]
	 SCS Opposite-Spin Energy  =      -2.5410333270954792 [Eh]
	 SCS Correlation Energy    =      -2.7653640227041345 [Eh]
	 SCS Total Energy          =    -616.1293099595753802 [Eh]
	-----------------------------------------------------------

  Dipole Moment: [D]
     X:    -0.9723      Y:     0.7108      Z:     0.4635     Total:     1.2906

*** Psi4 exiting successfully. Buy a developer a beer!
