                               Psi4 1.4a3.dev225

  ==> Input File <==

--------------------------------------------------------------------------
#psi4
#
memory 32 gb

molecule  {
0 1
  O        0.8655410    -0.2383350    -0.1978900
  C       -1.3532420     0.4851090     0.1659470
  C        0.0923410     0.8600100     0.3004220
  C       -4.0760200    -0.2326370    -0.0482320
  C       -1.8292680    -0.6845410     0.7713590
  C       -2.2449120     1.2876570    -0.5496990
  C       -3.1721270    -1.0365930     0.6617200
  C       -3.5922330     0.9350480    -0.6483300
  C        2.2320470    -0.1282220    -0.1046120
  C       -5.5355430    -0.5984480    -0.1257210
  C        2.9140800     0.9938170     0.3783620
  C        2.9472190    -1.2508620    -0.5439590
  C        4.3132210     0.9773220     0.4183570
  C        4.3370840    -1.2508910    -0.4991240
  C        5.0300920    -0.1353830    -0.0155080
  H        0.3103430     1.7730630    -0.2708990
  H        0.3551050     1.0439550     1.3523320
  H       -1.1374380    -1.3254410     1.3139440
  H       -1.8855300     2.1916430    -1.0389860
  H       -3.5267120    -1.9532640     1.1308580
  H       -4.2733370     1.5694920    -1.2133600
  H       -6.0038750    -0.1617940    -1.0122750
  H       -5.6673980    -1.6833350    -0.1714030
  H       -6.0811880    -0.2353180     0.7521400
  H        2.3826970     1.8764090     0.7176150
  H        2.3622125    -2.1447324    -0.9321213
  H        4.8399070     1.8514100     0.7945710
  H        4.8825510    -2.1268580    -0.8422600
  H        6.1161710    -0.1361850     0.0199920
units angstrom
no_reorient  #important for SAPT in psi4, default
symmetry c1  #important for SAPT in psi4, default
}

set PROPERTIES_ORIGIN ["COM"]
properties('MP2/aug-cc-pvtz', properties = ['dipole'])
--------------------------------------------------------------------------

    Molecular point group: c1
  Charge       = 0
  Multiplicity = 1
  Basis Set: AUG-CC-PVTZ
    Blend: AUG-CC-PVTZ
  Basis Set: (AUG-CC-PVTZ AUX)
    Blend: AUG-CC-PVTZ-JKFIT

    Orbital Energies [Eh]
    ---------------------

    Doubly Occupied:

       1A    -20.583889     2A    -11.301507     3A    -11.293161
       4A    -11.243823     5A    -11.241133     6A    -11.239834
       7A    -11.239094     8A    -11.237537     9A    -11.234938
      10A    -11.233300    11A    -11.233241    12A    -11.232245
      13A    -11.232080    14A    -11.227596    15A    -11.225855
      16A     -1.404838    17A     -1.158813    18A     -1.143780
      19A     -1.067004    20A     -1.016603    21A     -1.013411
      22A     -1.008458    23A     -0.963890    24A     -0.899528
      25A     -0.832666    26A     -0.829721    27A     -0.808695
      28A     -0.782343    29A     -0.720128    30A     -0.683968
      31A     -0.670271    32A     -0.660657    33A     -0.643858
      34A     -0.630923    35A     -0.620395    36A     -0.608962
      37A     -0.583572    38A     -0.583264    39A     -0.576918
      40A     -0.563304    41A     -0.543347    42A     -0.530411
      43A     -0.522837    44A     -0.513942    45A     -0.490511
      46A     -0.486616    47A     -0.485112    48A     -0.478296
      49A     -0.464318    50A     -0.340185    51A     -0.336733
      52A     -0.322234    53A     -0.312559

  @DF-RHF Final Energy:  -613.36909910173961

   => Energetics <=

    Nuclear Repulsion Energy =            870.5042144773693735
    One-Electron Energy =               -2559.1420187177177468
    Two-Electron Energy =                1075.2687051386087660
    Total Energy =                       -613.3690991017397209
  Basis Set: (AUG-CC-PVTZ AUX)
    Blend: AUG-CC-PVTZ-RI
    Molecular point group: c1

    Geometry (in Angstrom), charge = 0, multiplicity = 1:

       Center              X                  Y                   Z               Mass
    ------------   -----------------  -----------------  -----------------  -----------------
         O            0.829129398373    -0.235244442025    -0.194716897472    15.994914619570
         C           -1.389653601627     0.488199557975     0.169120102528    12.000000000000
         C            0.055929398373     0.863100557975     0.303595102528    12.000000000000
         C           -4.112431601627    -0.229546442025    -0.045058897472    12.000000000000
         C           -1.865679601627    -0.681450442025     0.774532102528    12.000000000000
         C           -2.281323601627     1.290747557975    -0.546525897472    12.000000000000
         C           -3.208538601627    -1.033502442025     0.664893102528    12.000000000000
         C           -3.628644601627     0.938138557975    -0.645156897472    12.000000000000
         C            2.195635398373    -0.125131442025    -0.101438897472    12.000000000000
         C           -5.571954601627    -0.595357442025    -0.122547897472    12.000000000000
         C            2.877668398373     0.996907557975     0.381535102528    12.000000000000
         C            2.910807398373    -1.247771442025    -0.540785897472    12.000000000000
         C            4.276809398373     0.980412557975     0.421530102528    12.000000000000
         C            4.300672398373    -1.247800442025    -0.495950897472    12.000000000000
         C            4.993680398373    -0.132292442025    -0.012334897472    12.000000000000
         H            0.273931398373     1.776153557975    -0.267725897472     1.007825032230
         H            0.318693398373     1.047045557975     1.355505102528     1.007825032230
         H           -1.173849601627    -1.322350442025     1.317117102528     1.007825032230
         H           -1.921941601627     2.194733557975    -1.035812897472     1.007825032230
         H           -3.563123601627    -1.950173442025     1.134031102528     1.007825032230
         H           -4.309748601627     1.572582557975    -1.210186897472     1.007825032230
         H           -6.040286601627    -0.158703442025    -1.009101897472     1.007825032230
         H           -5.703809601627    -1.680244442025    -0.168229897472     1.007825032230
         H           -6.117599601627    -0.232227442025     0.755313102528     1.007825032230
         H            2.346285398373     1.879499557975     0.720788102528     1.007825032230
         H            2.325800898373    -2.141641842025    -0.928948197472     1.007825032230
         H            4.803495398373     1.854500557975     0.797744102528     1.007825032230
         H            4.846139398373    -2.123767442025    -0.839086897472     1.007825032230
         H            6.079759398373    -0.133094442025     0.023165102528     1.007825032230

  Basis Set: AUG-CC-PVTZ
    Blend: AUG-CC-PVTZ
  Basis Set: (AUG-CC-PVTZ AUX)
    Blend: AUG-CC-PVTZ-JKFIT
	 Reference Energy          =    -613.3690991017396072 [Eh]
	 Singles Energy            =      -0.0000000000000000 [Eh]
	 Same-Spin Energy          =      -0.6727767200695529 [Eh]
	 Opposite-Spin Energy      =      -2.1169503312637215 [Eh]
	 Correlation Energy        =      -2.7897270513332746 [Eh]
	 Total Energy              =    -616.1588261530729369 [Eh]

	 ================> DF-SCS-MP2 Energies <==================
	-----------------------------------------------------------
	 SCS Same-Spin Scale       =       0.3333333333333333 [-]
	 SCS Opposite-Spin Scale   =       1.2000000000000000 [-]
	 SCS Same-Spin Energy      =      -0.2242589066898510 [Eh]
	 SCS Opposite-Spin Energy  =      -2.5403403975164656 [Eh]
	 SCS Correlation Energy    =      -2.7645993042063166 [Eh]
	 SCS Total Energy          =    -616.1336984059458928 [Eh]
	-----------------------------------------------------------

  Dipole Moment: [D]
     X:    -0.9974      Y:     0.7390      Z:     0.4745     Total:     1.3289

*** Psi4 exiting successfully. Buy a developer a beer!
