                               Psi4 1.4a3.dev225

  ==> Input File <==

--------------------------------------------------------------------------
#psi4
#
memory 32 gb

molecule  {
0 1
  O        0.8655410    -0.2383350    -0.1978900
  C       -1.3532420     0.4851090     0.1659470
  C        0.0923410     0.8600100     0.3004220
  C       -4.0760200    -0.2326370    -0.0482320
  C       -1.8292680    -0.6845410     0.7713590
  C       -2.2449120     1.2876570    -0.5496990
  C       -3.1721270    -1.0365930     0.6617200
  C       -3.5922330     0.9350480    -0.6483300
  C        2.2320470    -0.1282220    -0.1046120
  C       -5.5355430    -0.5984480    -0.1257210
  C        2.9140800     0.9938170     0.3783620
  C        2.9472190    -1.2508620    -0.5439590
  C        4.3132210     0.9773220     0.4183570
  C        4.3870580    -1.2508920    -0.4975119
  C        5.0300920    -0.1353830    -0.0155080
  H        0.3103430     1.7730630    -0.2708990
  H        0.3551050     1.0439550     1.3523320
  H       -1.1374380    -1.3254410     1.3139440
  H       -1.8855300     2.1916430    -1.0389860
  H       -3.5267120    -1.9532640     1.1308580
  H       -4.2733370     1.5694920    -1.2133600
  H       -6.0038750    -0.1617940    -1.0122750
  H       -5.6673980    -1.6833350    -0.1714030
  H       -6.0811880    -0.2353180     0.7521400
  H        2.3826970     1.8764090     0.7176150
  H        2.3879470    -2.1054110    -0.9150460
  H        4.8399070     1.8514100     0.7945710
  H        4.8825510    -2.1268580    -0.8422600
  H        6.1161710    -0.1361850     0.0199920
units angstrom
no_reorient  #important for SAPT in psi4, default
symmetry c1  #important for SAPT in psi4, default
}

set PROPERTIES_ORIGIN ["COM"]
properties('MP2/aug-cc-pvtz', properties = ['dipole'])
--------------------------------------------------------------------------

    Molecular point group: c1
  Charge       = 0
  Multiplicity = 1
  Basis Set: AUG-CC-PVTZ
    Blend: AUG-CC-PVTZ
  Basis Set: (AUG-CC-PVTZ AUX)
    Blend: AUG-CC-PVTZ-JKFIT

    Orbital Energies [Eh]
    ---------------------

    Doubly Occupied:

       1A    -20.582969     2A    -11.300109     3A    -11.293054
       4A    -11.243715     5A    -11.241744     6A    -11.240100
       7A    -11.238983     8A    -11.237428     9A    -11.234816
      10A    -11.234733    11A    -11.232142    12A    -11.231971
      13A    -11.231548    14A    -11.225894    15A    -11.225779
      16A     -1.404193    17A     -1.158482    18A     -1.141953
      19A     -1.067115    20A     -1.013947    21A     -1.013050
      22A     -1.010860    23A     -0.963373    24A     -0.898806
      25A     -0.835636    26A     -0.832235    27A     -0.806612
      28A     -0.782643    29A     -0.721456    30A     -0.683468
      31A     -0.670272    32A     -0.663499    33A     -0.644425
      34A     -0.632883    35A     -0.620218    36A     -0.611667
      37A     -0.585405    38A     -0.583412    39A     -0.576804
      40A     -0.563152    41A     -0.543040    42A     -0.533615
      43A     -0.522499    44A     -0.507186    45A     -0.494503
      46A     -0.486282    47A     -0.484660    48A     -0.480220
      49A     -0.464306    50A     -0.336777    51A     -0.335723
      52A     -0.322196    53A     -0.313805

  @DF-RHF Final Energy:  -613.36810627500324

   => Energetics <=

    Nuclear Repulsion Energy =            870.1022589951107875
    One-Electron Energy =               -2558.3300028209614538
    Two-Electron Energy =                1074.8596375508473102
    Total Energy =                       -613.3681062750033561
  Basis Set: (AUG-CC-PVTZ AUX)
    Blend: AUG-CC-PVTZ-RI
    Molecular point group: c1

    Geometry (in Angstrom), charge = 0, multiplicity = 1:

       Center              X                  Y                   Z               Mass
    ------------   -----------------  -----------------  -----------------  -----------------
         O            0.825971348033    -0.235444422834    -0.194901416860    15.994914619570
         C           -1.392811651967     0.487999577166     0.168935583140    12.000000000000
         C            0.052771348033     0.862900577166     0.303410583140    12.000000000000
         C           -4.115589651967    -0.229746422834    -0.045243416860    12.000000000000
         C           -1.868837651967    -0.681650422834     0.774347583140    12.000000000000
         C           -2.284481651967     1.290547577166    -0.546710416860    12.000000000000
         C           -3.211696651967    -1.033702422834     0.664708583140    12.000000000000
         C           -3.631802651967     0.937938577166    -0.645341416860    12.000000000000
         C            2.192477348033    -0.125331422834    -0.101623416860    12.000000000000
         C           -5.575112651967    -0.595557422834    -0.122732416860    12.000000000000
         C            2.874510348033     0.996707577166     0.381350583140    12.000000000000
         C            2.907649348033    -1.247971422834    -0.540970416860    12.000000000000
         C            4.273651348033     0.980212577166     0.421345583140    12.000000000000
         C            4.347488348033    -1.248001422834    -0.494523316860    12.000000000000
         C            4.990522348033    -0.132492422834    -0.012519416860    12.000000000000
         H            0.270773348033     1.775953577166    -0.267910416860     1.007825032230
         H            0.315535348033     1.046845577166     1.355320583140     1.007825032230
         H           -1.177007651967    -1.322550422834     1.316932583140     1.007825032230
         H           -1.925099651967     2.194533577166    -1.035997416860     1.007825032230
         H           -3.566281651967    -1.950373422834     1.133846583140     1.007825032230
         H           -4.312906651967     1.572382577166    -1.210371416860     1.007825032230
         H           -6.043444651967    -0.158903422834    -1.009286416860     1.007825032230
         H           -5.706967651967    -1.680444422834    -0.168414416860     1.007825032230
         H           -6.120757651967    -0.232427422834     0.755128583140     1.007825032230
         H            2.343127348033     1.879299577166     0.720603583140     1.007825032230
         H            2.348377348033    -2.102520422834    -0.912057416860     1.007825032230
         H            4.800337348033     1.854300577166     0.797559583140     1.007825032230
         H            4.842981348033    -2.123967422834    -0.839271416860     1.007825032230
         H            6.076601348033    -0.133294422834     0.022980583140     1.007825032230

  Basis Set: AUG-CC-PVTZ
    Blend: AUG-CC-PVTZ
  Basis Set: (AUG-CC-PVTZ AUX)
    Blend: AUG-CC-PVTZ-JKFIT
	 Reference Energy          =    -613.3681062750032424 [Eh]
	 Singles Energy            =      -0.0000000000000000 [Eh]
	 Same-Spin Energy          =      -0.6727487754818093 [Eh]
	 Opposite-Spin Energy      =      -2.1169195909047631 [Eh]
	 Correlation Energy        =      -2.7896683663865725 [Eh]
	 Total Energy              =    -616.1577746413897785 [Eh]

	 ================> DF-SCS-MP2 Energies <==================
	-----------------------------------------------------------
	 SCS Same-Spin Scale       =       0.3333333333333333 [-]
	 SCS Opposite-Spin Scale   =       1.2000000000000000 [-]
	 SCS Same-Spin Energy      =      -0.2242495918272698 [Eh]
	 SCS Opposite-Spin Energy  =      -2.5403035090857156 [Eh]
	 SCS Correlation Energy    =      -2.7645531009129853 [Eh]
	 SCS Total Energy          =    -616.1326593759162051 [Eh]
	-----------------------------------------------------------

  Dipole Moment: [D]
     X:    -0.9795      Y:     0.7394      Z:     0.4757     Total:     1.3162

*** Psi4 exiting successfully. Buy a developer a beer!
