                               Psi4 1.4a3.dev225

  ==> Input File <==

--------------------------------------------------------------------------
#psi4
#
memory 32 gb

molecule  {
0 1
  O        0.8655410    -0.2383350    -0.1978900
  C       -1.3532420     0.4851090     0.1659470
  C        0.0923410     0.8600100     0.3004220
  C       -4.0760200    -0.2326370    -0.0482320
  C       -1.8292680    -0.6845410     0.7713590
  C       -2.2449120     1.2876570    -0.5496990
  C       -3.1721270    -1.0365930     0.6617200
  C       -3.6887331     0.9097928    -0.6553943
  C        2.2320470    -0.1282220    -0.1046120
  C       -5.5355430    -0.5984480    -0.1257210
  C        2.9140800     0.9938170     0.3783620
  C        2.9472190    -1.2508620    -0.5439590
  C        4.3132210     0.9773220     0.4183570
  C        4.3370840    -1.2508910    -0.4991240
  C        5.0300920    -0.1353830    -0.0155080
  H        0.3103430     1.7730630    -0.2708990
  H        0.3551050     1.0439550     1.3523320
  H       -1.1374380    -1.3254410     1.3139440
  H       -1.8855300     2.1916430    -1.0389860
  H       -3.5267120    -1.9532640     1.1308580
  H       -4.2733370     1.5694920    -1.2133600
  H       -6.0038750    -0.1617940    -1.0122750
  H       -5.6673980    -1.6833350    -0.1714030
  H       -6.0811880    -0.2353180     0.7521400
  H        2.3826970     1.8764090     0.7176150
  H        2.3879470    -2.1054110    -0.9150460
  H        4.8399070     1.8514100     0.7945710
  H        4.8825510    -2.1268580    -0.8422600
  H        6.1161710    -0.1361850     0.0199920
units angstrom
no_reorient  #important for SAPT in psi4, default
symmetry c1  #important for SAPT in psi4, default
}

set PROPERTIES_ORIGIN ["COM"]
properties('MP2/aug-cc-pvtz', properties = ['dipole'])
--------------------------------------------------------------------------

    Molecular point group: c1
  Charge       = 0
  Multiplicity = 1
  Basis Set: AUG-CC-PVTZ
    Blend: AUG-CC-PVTZ
  Basis Set: (AUG-CC-PVTZ AUX)
    Blend: AUG-CC-PVTZ-JKFIT

    Orbital Energies [Eh]
    ---------------------

    Doubly Occupied:

       1A    -20.584553     2A    -11.301610     3A    -11.293818
       4A    -11.247041     5A    -11.241370     6A    -11.239786
       7A    -11.239721     8A    -11.238971     9A    -11.236881
      10A    -11.233512    11A    -11.233415    12A    -11.232431
      13A    -11.228141    14A    -11.227742    15A    -11.222762
      16A     -1.405511    17A     -1.156912    18A     -1.143969
      19A     -1.071788    20A     -1.018319    21A     -1.010167
      22A     -1.003636    23A     -0.960261    24A     -0.900927
      25A     -0.840521    26A     -0.831754    27A     -0.808999
      28A     -0.780735    29A     -0.721608    30A     -0.683797
      31A     -0.669078    32A     -0.664151    33A     -0.644679
      34A     -0.640154    35A     -0.619165    36A     -0.611640
      37A     -0.587217    38A     -0.581185    39A     -0.576486
      40A     -0.565168    41A     -0.542508    42A     -0.531735
      43A     -0.521580    44A     -0.514391    45A     -0.498713
      46A     -0.487074    47A     -0.480638    48A     -0.471539
      49A     -0.463876    50A     -0.340464    51A     -0.332478
      52A     -0.326176    53A     -0.312632

  @DF-RHF Final Energy:  -613.36031642500666

   => Energetics <=

    Nuclear Repulsion Energy =            869.8677747157945532
    One-Electron Energy =               -2557.8094070980796459
    Two-Electron Energy =                1074.5813159572785480
    Total Energy =                       -613.3603164250066584
  Basis Set: (AUG-CC-PVTZ AUX)
    Blend: AUG-CC-PVTZ-RI
    Molecular point group: c1

    Geometry (in Angstrom), charge = 0, multiplicity = 1:

       Center              X                  Y                   Z               Mass
    ------------   -----------------  -----------------  -----------------  -----------------
         O            0.834843885052    -0.233914672356    -0.194375851725    15.994914619570
         C           -1.383939114948     0.489529327644     0.169461148275    12.000000000000
         C            0.061643885052     0.864430327644     0.303936148275    12.000000000000
         C           -4.106717114948    -0.228216672356    -0.044717851725    12.000000000000
         C           -1.859965114948    -0.680120672356     0.774873148275    12.000000000000
         C           -2.275609114948     1.292077327644    -0.546184851725    12.000000000000
         C           -3.202824114948    -1.032172672356     0.665234148275    12.000000000000
         C           -3.719430214948     0.914213127644    -0.651880151725    12.000000000000
         C            2.201349885052    -0.123801672356    -0.101097851725    12.000000000000
         C           -5.566240114948    -0.594027672356    -0.122206851725    12.000000000000
         C            2.883382885052     0.998237327644     0.381876148275    12.000000000000
         C            2.916521885052    -1.246441672356    -0.540444851725    12.000000000000
         C            4.282523885052     0.981742327644     0.421871148275    12.000000000000
         C            4.306386885052    -1.246470672356    -0.495609851725    12.000000000000
         C            4.999394885052    -0.130962672356    -0.011993851725    12.000000000000
         H            0.279645885052     1.777483327644    -0.267384851725     1.007825032230
         H            0.324407885052     1.048375327644     1.355846148275     1.007825032230
         H           -1.168135114948    -1.321020672356     1.317458148275     1.007825032230
         H           -1.916227114948     2.196063327644    -1.035471851725     1.007825032230
         H           -3.557409114948    -1.948843672356     1.134372148275     1.007825032230
         H           -4.304034114948     1.573912327644    -1.209845851725     1.007825032230
         H           -6.034572114948    -0.157373672356    -1.008760851725     1.007825032230
         H           -5.698095114948    -1.678914672356    -0.167888851725     1.007825032230
         H           -6.111885114948    -0.230897672356     0.755654148275     1.007825032230
         H            2.351999885052     1.880829327644     0.721129148275     1.007825032230
         H            2.357249885052    -2.100990672356    -0.911531851725     1.007825032230
         H            4.809209885052     1.855830327644     0.798085148275     1.007825032230
         H            4.851853885052    -2.122437672356    -0.838745851725     1.007825032230
         H            6.085473885052    -0.131764672356     0.023506148275     1.007825032230

  Basis Set: AUG-CC-PVTZ
    Blend: AUG-CC-PVTZ
  Basis Set: (AUG-CC-PVTZ AUX)
    Blend: AUG-CC-PVTZ-JKFIT
	 Reference Energy          =    -613.3603164250066584 [Eh]
	 Singles Energy            =      -0.0000000000000000 [Eh]
	 Same-Spin Energy          =      -0.6722372738105679 [Eh]
	 Opposite-Spin Energy      =      -2.1171743977333088 [Eh]
	 Correlation Energy        =      -2.7894116715438768 [Eh]
	 Total Energy              =    -616.1497280965505752 [Eh]

	 ================> DF-SCS-MP2 Energies <==================
	-----------------------------------------------------------
	 SCS Same-Spin Scale       =       0.3333333333333333 [-]
	 SCS Opposite-Spin Scale   =       1.2000000000000000 [-]
	 SCS Same-Spin Energy      =      -0.2240790912701893 [Eh]
	 SCS Opposite-Spin Energy  =      -2.5406092772799704 [Eh]
	 SCS Correlation Energy    =      -2.7646883685501598 [Eh]
	 SCS Total Energy          =    -616.1250047935568546 [Eh]
	-----------------------------------------------------------

  Dipole Moment: [D]
     X:    -1.8054      Y:     0.7174      Z:     0.4805     Total:     2.0013

*** Psi4 exiting successfully. Buy a developer a beer!
