                               Psi4 1.4a3.dev225

  ==> Input File <==

--------------------------------------------------------------------------
#psi4
#
memory 32 gb

molecule  {
0 1
  O        0.8655410    -0.2383350    -0.1978900
  C       -1.3532420     0.4851090     0.1659470
  C        0.0923410     0.8600100     0.3004220
  C       -4.0760200    -0.2326370    -0.0482320
  C       -1.8292680    -0.6845410     0.7713590
  C       -2.2449120     1.2876570    -0.5496990
  C       -3.1721270    -1.0365930     0.6617200
  C       -3.5922330     0.9350480    -0.6483300
  C        2.2817705    -0.1242153    -0.1012179
  C       -5.5355430    -0.5984480    -0.1257210
  C        2.9140800     0.9938170     0.3783620
  C        2.9472190    -1.2508620    -0.5439590
  C        4.3132210     0.9773220     0.4183570
  C        4.3370840    -1.2508910    -0.4991240
  C        5.0300920    -0.1353830    -0.0155080
  H        0.3103430     1.7730630    -0.2708990
  H        0.3551050     1.0439550     1.3523320
  H       -1.1374380    -1.3254410     1.3139440
  H       -1.8855300     2.1916430    -1.0389860
  H       -3.5267120    -1.9532640     1.1308580
  H       -4.2733370     1.5694920    -1.2133600
  H       -6.0038750    -0.1617940    -1.0122750
  H       -5.6673980    -1.6833350    -0.1714030
  H       -6.0811880    -0.2353180     0.7521400
  H        2.3826970     1.8764090     0.7176150
  H        2.3879470    -2.1054110    -0.9150460
  H        4.8399070     1.8514100     0.7945710
  H        4.8825510    -2.1268580    -0.8422600
  H        6.1161710    -0.1361850     0.0199920
units angstrom
no_reorient  #important for SAPT in psi4, default
symmetry c1  #important for SAPT in psi4, default
}

set PROPERTIES_ORIGIN ["COM"]
properties('MP2/aug-cc-pvtz', properties = ['dipole'])
--------------------------------------------------------------------------

    Molecular point group: c1
  Charge       = 0
  Multiplicity = 1
  Basis Set: AUG-CC-PVTZ
    Blend: AUG-CC-PVTZ
  Basis Set: (AUG-CC-PVTZ AUX)
    Blend: AUG-CC-PVTZ-JKFIT

    Orbital Energies [Eh]
    ---------------------

    Doubly Occupied:

       1A    -20.575986     2A    -11.297542     3A    -11.288543
       4A    -11.243053     5A    -11.241941     6A    -11.241455
       7A    -11.236829     8A    -11.235369     9A    -11.233367
      10A    -11.232782    11A    -11.230467    12A    -11.230350
      13A    -11.230252    14A    -11.229145    15A    -11.224557
      16A     -1.383422    17A     -1.158747    18A     -1.149182
      19A     -1.063546    20A     -1.022759    21A     -1.012547
      22A     -1.010063    23A     -0.961965    24A     -0.895192
      25A     -0.835815    26A     -0.830314    27A     -0.809434
      28A     -0.780650    29A     -0.719231    30A     -0.680563
      31A     -0.665480    32A     -0.658111    33A     -0.643788
      34A     -0.630406    35A     -0.616762    36A     -0.608505
      37A     -0.592553    38A     -0.581601    39A     -0.575618
      40A     -0.561838    41A     -0.541241    42A     -0.529415
      43A     -0.521695    44A     -0.511658    45A     -0.495842
      46A     -0.485451    47A     -0.483299    48A     -0.477518
      49A     -0.460326    50A     -0.343002    51A     -0.334898
      52A     -0.320835    53A     -0.319013

  @DF-RHF Final Energy:  -613.36796076432131

   => Energetics <=

    Nuclear Repulsion Energy =            870.5695634627517165
    One-Electron Energy =               -2559.3871990591628673
    Two-Electron Energy =                1075.4496748320896131
    Total Energy =                       -613.3679607643214240
  Basis Set: (AUG-CC-PVTZ AUX)
    Blend: AUG-CC-PVTZ-RI
    Molecular point group: c1

    Geometry (in Angstrom), charge = 0, multiplicity = 1:

       Center              X                  Y                   Z               Mass
    ------------   -----------------  -----------------  -----------------  -----------------
         O            0.825986521846    -0.235687185661    -0.195009359909    15.994914619570
         C           -1.392796478154     0.487756814339     0.168827640091    12.000000000000
         C            0.052786521846     0.862657814339     0.303302640091    12.000000000000
         C           -4.115574478154    -0.229989185661    -0.045351359909    12.000000000000
         C           -1.868822478154    -0.681893185661     0.774239640091    12.000000000000
         C           -2.284466478154     1.290304814339    -0.546818359909    12.000000000000
         C           -3.211681478154    -1.033945185661     0.664600640091    12.000000000000
         C           -3.631787478154     0.937695814339    -0.645449359909    12.000000000000
         C            2.242216021846    -0.121567485661    -0.098337259909    12.000000000000
         C           -5.575097478154    -0.595800185661    -0.122840359909    12.000000000000
         C            2.874525521846     0.996464814339     0.381242640091    12.000000000000
         C            2.907664521846    -1.248214185661    -0.541078359909    12.000000000000
         C            4.273666521846     0.979969814339     0.421237640091    12.000000000000
         C            4.297529521846    -1.248243185661    -0.496243359909    12.000000000000
         C            4.990537521846    -0.132735185661    -0.012627359909    12.000000000000
         H            0.270788521846     1.775710814339    -0.268018359909     1.007825032230
         H            0.315550521846     1.046602814339     1.355212640091     1.007825032230
         H           -1.176992478154    -1.322793185661     1.316824640091     1.007825032230
         H           -1.925084478154     2.194290814339    -1.036105359909     1.007825032230
         H           -3.566266478154    -1.950616185661     1.133738640091     1.007825032230
         H           -4.312891478154     1.572139814339    -1.210479359909     1.007825032230
         H           -6.043429478154    -0.159146185661    -1.009394359909     1.007825032230
         H           -5.706952478154    -1.680687185661    -0.168522359909     1.007825032230
         H           -6.120742478154    -0.232670185661     0.755020640091     1.007825032230
         H            2.343142521846     1.879056814339     0.720495640091     1.007825032230
         H            2.348392521846    -2.102763185661    -0.912165359909     1.007825032230
         H            4.800352521846     1.854057814339     0.797451640091     1.007825032230
         H            4.842996521846    -2.124210185661    -0.839379359909     1.007825032230
         H            6.076616521846    -0.133537185661     0.022872640091     1.007825032230

  Basis Set: AUG-CC-PVTZ
    Blend: AUG-CC-PVTZ
  Basis Set: (AUG-CC-PVTZ AUX)
    Blend: AUG-CC-PVTZ-JKFIT
	 Reference Energy          =    -613.3679607643213103 [Eh]
	 Singles Energy            =      -0.0000000000000000 [Eh]
	 Same-Spin Energy          =      -0.6727748866940486 [Eh]
	 Opposite-Spin Energy      =      -2.1170480450675813 [Eh]
	 Correlation Energy        =      -2.7898229317616297 [Eh]
	 Total Energy              =    -616.1577836960829018 [Eh]

	 ================> DF-SCS-MP2 Energies <==================
	-----------------------------------------------------------
	 SCS Same-Spin Scale       =       0.3333333333333333 [-]
	 SCS Opposite-Spin Scale   =       1.2000000000000000 [-]
	 SCS Same-Spin Energy      =      -0.2242582955646829 [Eh]
	 SCS Opposite-Spin Energy  =      -2.5404576540810972 [Eh]
	 SCS Correlation Energy    =      -2.7647159496457800 [Eh]
	 SCS Total Energy          =    -616.1326767139670437 [Eh]
	-----------------------------------------------------------

  Dipole Moment: [D]
     X:    -0.5590      Y:     0.7063      Z:     0.4716     Total:     1.0168

*** Psi4 exiting successfully. Buy a developer a beer!
