                               Psi4 1.4a3.dev225

  ==> Input File <==

--------------------------------------------------------------------------
#psi4
#
memory 32 gb

molecule  {
0 1
  O        0.8655410    -0.2383350    -0.1978900
  C       -1.3532420     0.4851090     0.1659470
  C        0.0591292     0.9863986     0.2134955
  C       -4.0760200    -0.2326370    -0.0482320
  C       -1.8292680    -0.6845410     0.7713590
  C       -2.2449120     1.2876570    -0.5496990
  C       -3.1721270    -1.0365930     0.6617200
  C       -3.5922330     0.9350480    -0.6483300
  C        2.2320470    -0.1282220    -0.1046120
  C       -5.5355430    -0.5984480    -0.1257210
  C        2.9140800     0.9938170     0.3783620
  C        2.9472190    -1.2508620    -0.5439590
  C        4.3132210     0.9773220     0.4183570
  C        4.3370840    -1.2508910    -0.4991240
  C        5.0300920    -0.1353830    -0.0155080
  H        0.3103430     1.7730630    -0.2708990
  H        0.3551050     1.0439550     1.3523320
  H       -1.1374380    -1.3254410     1.3139440
  H       -1.8855300     2.1916430    -1.0389860
  H       -3.5267120    -1.9532640     1.1308580
  H       -4.2733370     1.5694920    -1.2133600
  H       -6.0038750    -0.1617940    -1.0122750
  H       -5.6673980    -1.6833350    -0.1714030
  H       -6.0811880    -0.2353180     0.7521400
  H        2.3826970     1.8764090     0.7176150
  H        2.3879470    -2.1054110    -0.9150460
  H        4.8399070     1.8514100     0.7945710
  H        4.8825510    -2.1268580    -0.8422600
  H        6.1161710    -0.1361850     0.0199920
units angstrom
no_reorient  #important for SAPT in psi4, default
symmetry c1  #important for SAPT in psi4, default
}

set PROPERTIES_ORIGIN ["COM"]
properties('MP2/aug-cc-pvtz', properties = ['dipole'])
--------------------------------------------------------------------------

    Molecular point group: c1
  Charge       = 0
  Multiplicity = 1
  Basis Set: AUG-CC-PVTZ
    Blend: AUG-CC-PVTZ
  Basis Set: (AUG-CC-PVTZ AUX)
    Blend: AUG-CC-PVTZ-JKFIT

    Orbital Energies [Eh]
    ---------------------

    Doubly Occupied:

       1A    -20.577123     2A    -11.297095     3A    -11.296672
       4A    -11.245299     5A    -11.243791     6A    -11.239015
       7A    -11.238703     8A    -11.237870     9A    -11.236941
      10A    -11.234850    11A    -11.233147    12A    -11.229519
      13A    -11.226940    14A    -11.224017    15A    -11.223826
      16A     -1.379631    17A     -1.160702    18A     -1.139821
      19A     -1.070151    20A     -1.015422    21A     -1.014623
      22A     -1.003875    23A     -0.968610    24A     -0.905090
      25A     -0.835417    26A     -0.828516    27A     -0.804382
      28A     -0.788870    29A     -0.718088    30A     -0.685360
      31A     -0.671944    32A     -0.650827    33A     -0.639241
      34A     -0.634302    35A     -0.620825    36A     -0.606090
      37A     -0.585438    38A     -0.583912    39A     -0.578036
      40A     -0.557159    41A     -0.547653    42A     -0.536864
      43A     -0.522926    44A     -0.511336    45A     -0.492665
      46A     -0.488000    47A     -0.483785    48A     -0.477072
      49A     -0.459929    50A     -0.338675    51A     -0.337519
      52A     -0.322424    53A     -0.307897

  @DF-RHF Final Energy:  -613.33977842521949

   => Energetics <=

    Nuclear Repulsion Energy =            869.3908202935057261
    One-Electron Energy =               -2556.9454273518490481
    Two-Electron Energy =                1074.2148286331237159
    Total Energy =                       -613.3397784252194924
  Basis Set: (AUG-CC-PVTZ AUX)
    Blend: AUG-CC-PVTZ-RI
    Molecular point group: c1

    Geometry (in Angstrom), charge = 0, multiplicity = 1:

       Center              X                  Y                   Z               Mass
    ------------   -----------------  -----------------  -----------------  -----------------
         O            0.831010253136    -0.243100359309    -0.189538270706    15.994914619570
         C           -1.387772746864     0.480343640691     0.174298729294    12.000000000000
         C            0.024598453136     0.981633240691     0.221847229294    12.000000000000
         C           -4.110550746864    -0.237402359309    -0.039880270706    12.000000000000
         C           -1.863798746864    -0.689306359309     0.779710729294    12.000000000000
         C           -2.279442746864     1.282891640691    -0.541347270706    12.000000000000
         C           -3.206657746864    -1.041358359309     0.670071729294    12.000000000000
         C           -3.626763746864     0.930282640691    -0.639978270706    12.000000000000
         C            2.197516253136    -0.132987359309    -0.096260270706    12.000000000000
         C           -5.570073746864    -0.603213359309    -0.117369270706    12.000000000000
         C            2.879549253136     0.989051640691     0.386713729294    12.000000000000
         C            2.912688253136    -1.255627359309    -0.535607270706    12.000000000000
         C            4.278690253136     0.972556640691     0.426708729294    12.000000000000
         C            4.302553253136    -1.255656359309    -0.490772270706    12.000000000000
         C            4.995561253136    -0.140148359309    -0.007156270706    12.000000000000
         H            0.275812253136     1.768297640691    -0.262547270706     1.007825032230
         H            0.320574253136     1.039189640691     1.360683729294     1.007825032230
         H           -1.171968746864    -1.330206359309     1.322295729294     1.007825032230
         H           -1.920060746864     2.186877640691    -1.030634270706     1.007825032230
         H           -3.561242746864    -1.958029359309     1.139209729294     1.007825032230
         H           -4.307867746864     1.564726640691    -1.205008270706     1.007825032230
         H           -6.038405746864    -0.166559359309    -1.003923270706     1.007825032230
         H           -5.701928746864    -1.688100359309    -0.163051270706     1.007825032230
         H           -6.115718746864    -0.240083359309     0.760491729294     1.007825032230
         H            2.348166253136     1.871643640691     0.725966729294     1.007825032230
         H            2.353416253136    -2.110176359309    -0.906694270706     1.007825032230
         H            4.805376253136     1.846644640691     0.802922729294     1.007825032230
         H            4.848020253136    -2.131623359309    -0.833908270706     1.007825032230
         H            6.081640253136    -0.140950359309     0.028343729294     1.007825032230

  Basis Set: AUG-CC-PVTZ
    Blend: AUG-CC-PVTZ
  Basis Set: (AUG-CC-PVTZ AUX)
    Blend: AUG-CC-PVTZ-JKFIT
	 Reference Energy          =    -613.3397784252194924 [Eh]
	 Singles Energy            =      -0.0000000000000000 [Eh]
	 Same-Spin Energy          =      -0.6733792138102365 [Eh]
	 Opposite-Spin Energy      =      -2.1192274305584640 [Eh]
	 Correlation Energy        =      -2.7926066443687003 [Eh]
	 Total Energy              =    -616.1323850695881674 [Eh]

	 ================> DF-SCS-MP2 Energies <==================
	-----------------------------------------------------------
	 SCS Same-Spin Scale       =       0.3333333333333333 [-]
	 SCS Opposite-Spin Scale   =       1.2000000000000000 [-]
	 SCS Same-Spin Energy      =      -0.2244597379367455 [Eh]
	 SCS Opposite-Spin Energy  =      -2.5430729166701567 [Eh]
	 SCS Correlation Energy    =      -2.7675326546069021 [Eh]
	 SCS Total Energy          =    -616.1073110798264452 [Eh]
	-----------------------------------------------------------

  Dipole Moment: [D]
     X:    -1.3571      Y:     0.9455      Z:     0.3940     Total:     1.7003

*** Psi4 exiting successfully. Buy a developer a beer!
