                               Psi4 1.4a3.dev225

  ==> Input File <==

--------------------------------------------------------------------------
#psi4
#
memory 32 gb

molecule  {
0 1
  O        0.8655410    -0.2383350    -0.1978900
  C       -1.3532420     0.4851090     0.1659470
  C        0.0923410     0.8600100     0.3004220
  C       -4.0760200    -0.2326370    -0.0482320
  C       -1.8292680    -0.6845410     0.7713590
  C       -2.2449120     1.2876570    -0.5496990
  C       -3.1721270    -1.0365930     0.6617200
  C       -3.5922330     0.9350480    -0.6483300
  C        2.2320470    -0.1282220    -0.1046120
  C       -5.5355430    -0.5984480    -0.1257210
  C        2.9140800     0.9938170     0.3783620
  C        2.9472190    -1.2508620    -0.5439590
  C        4.3132210     0.9773220     0.4183570
  C        4.3370840    -1.2508910    -0.4991240
  C        5.0300920    -0.1353830    -0.0155080
  H        0.3103430     1.7730630    -0.2708990
  H        0.3551050     1.0439550     1.3523320
  H       -1.1374380    -1.3254410     1.3139440
  H       -1.8855300     2.1916430    -1.0389860
  H       -3.5267120    -1.9532640     1.1308580
  H       -4.2733370     1.5694920    -1.2133600
  H       -6.0038750    -0.1617940    -1.0122750
  H       -5.6613708    -1.6337436    -0.1693148
  H       -6.0811880    -0.2353180     0.7521400
  H        2.3826970     1.8764090     0.7176150
  H        2.3879470    -2.1054110    -0.9150460
  H        4.8399070     1.8514100     0.7945710
  H        4.8825510    -2.1268580    -0.8422600
  H        6.1161710    -0.1361850     0.0199920
units angstrom
no_reorient  #important for SAPT in psi4, default
symmetry c1  #important for SAPT in psi4, default
}

set PROPERTIES_ORIGIN ["COM"]
properties('MP2/aug-cc-pvtz', properties = ['dipole'])
--------------------------------------------------------------------------

    Molecular point group: c1
  Charge       = 0
  Multiplicity = 1
  Basis Set: AUG-CC-PVTZ
    Blend: AUG-CC-PVTZ
  Basis Set: (AUG-CC-PVTZ AUX)
    Blend: AUG-CC-PVTZ-JKFIT

    Orbital Energies [Eh]
    ---------------------

    Doubly Occupied:

       1A    -20.583831     2A    -11.300972     3A    -11.293082
       4A    -11.243445     5A    -11.240922     6A    -11.239360
       7A    -11.238944     8A    -11.237376     9A    -11.234881
      10A    -11.232902    11A    -11.232037    12A    -11.231905
      13A    -11.227640    14A    -11.227221    15A    -11.219739
      16A     -1.404792    17A     -1.158752    18A     -1.143691
      19A     -1.067560    20A     -1.017803    21A     -1.013316
      22A     -1.008668    23A     -0.965901    24A     -0.901413
      25A     -0.833018    26A     -0.831360    27A     -0.809065
      28A     -0.782702    29A     -0.721102    30A     -0.684188
      31A     -0.670682    32A     -0.663629    33A     -0.644026
      34A     -0.631189    35A     -0.621253    36A     -0.609324
      37A     -0.586737    38A     -0.583553    39A     -0.579668
      40A     -0.564412    41A     -0.546731    42A     -0.531633
      43A     -0.524025    44A     -0.513978    45A     -0.491159
      46A     -0.486597    47A     -0.485344    48A     -0.478717
      49A     -0.464171    50A     -0.339904    51A     -0.336629
      52A     -0.322163    53A     -0.312270

  @DF-RHF Final Energy:  -613.37063469119857

   => Energetics <=

    Nuclear Repulsion Energy =            870.9665641618516929
    One-Electron Energy =               -2560.0436340710721197
    Two-Electron Energy =                1075.7064352180218521
    Total Energy =                       -613.3706346911985747
  Basis Set: (AUG-CC-PVTZ AUX)
    Blend: AUG-CC-PVTZ-RI
    Molecular point group: c1

    Geometry (in Angstrom), charge = 0, multiplicity = 1:

       Center              X                  Y                   Z               Mass
    ------------   -----------------  -----------------  -----------------  -----------------
         O            0.828967815764    -0.235696771787    -0.194814388737    15.994914619570
         C           -1.389815184236     0.487747228213     0.169022611263    12.000000000000
         C            0.055767815764     0.862648228213     0.303497611263    12.000000000000
         C           -4.112593184236    -0.229998771787    -0.045156388737    12.000000000000
         C           -1.865841184236    -0.681902771787     0.774434611263    12.000000000000
         C           -2.281485184236     1.290295228213    -0.546623388737    12.000000000000
         C           -3.208700184236    -1.033954771787     0.664795611263    12.000000000000
         C           -3.628806184236     0.937686228213    -0.645254388737    12.000000000000
         C            2.195473815764    -0.125583771787    -0.101536388737    12.000000000000
         C           -5.572116184236    -0.595809771787    -0.122645388737    12.000000000000
         C            2.877506815764     0.996455228213     0.381437611263    12.000000000000
         C            2.910645815764    -1.248223771787    -0.540883388737    12.000000000000
         C            4.276647815764     0.979960228213     0.421432611263    12.000000000000
         C            4.300510815764    -1.248252771787    -0.496048388737    12.000000000000
         C            4.993518815764    -0.132744771787    -0.012432388737    12.000000000000
         H            0.273769815764     1.775701228213    -0.267823388737     1.007825032230
         H            0.318531815764     1.046593228213     1.355407611263     1.007825032230
         H           -1.174011184236    -1.322802771787     1.317019611263     1.007825032230
         H           -1.922103184236     2.194281228213    -1.035910388737     1.007825032230
         H           -3.563285184236    -1.950625771787     1.133933611263     1.007825032230
         H           -4.309910184236     1.572130228213    -1.210284388737     1.007825032230
         H           -6.040448184236    -0.159155771787    -1.009199388737     1.007825032230
         H           -5.697943984236    -1.631105371787    -0.166239188737     1.007825032230
         H           -6.117761184236    -0.232679771787     0.755215611263     1.007825032230
         H            2.346123815764     1.879047228213     0.720690611263     1.007825032230
         H            2.351373815764    -2.102772771787    -0.911970388737     1.007825032230
         H            4.803333815764     1.854048228213     0.797646611263     1.007825032230
         H            4.845977815764    -2.124219771787    -0.839184388737     1.007825032230
         H            6.079597815764    -0.133546771787     0.023067611263     1.007825032230

  Basis Set: AUG-CC-PVTZ
    Blend: AUG-CC-PVTZ
  Basis Set: (AUG-CC-PVTZ AUX)
    Blend: AUG-CC-PVTZ-JKFIT
	 Reference Energy          =    -613.3706346911985747 [Eh]
	 Singles Energy            =      -0.0000000000000000 [Eh]
	 Same-Spin Energy          =      -0.6726535898583119 [Eh]
	 Opposite-Spin Energy      =      -2.1162340259348453 [Eh]
	 Correlation Energy        =      -2.7888876157931572 [Eh]
	 Total Energy              =    -616.1595223069916756 [Eh]

	 ================> DF-SCS-MP2 Energies <==================
	-----------------------------------------------------------
	 SCS Same-Spin Scale       =       0.3333333333333333 [-]
	 SCS Opposite-Spin Scale   =       1.2000000000000000 [-]
	 SCS Same-Spin Energy      =      -0.2242178632861040 [Eh]
	 SCS Opposite-Spin Energy  =      -2.5394808311218142 [Eh]
	 SCS Correlation Energy    =      -2.7636986944079180 [Eh]
	 SCS Total Energy          =    -616.1343333856065101 [Eh]
	-----------------------------------------------------------

  Dipole Moment: [D]
     X:    -1.0197      Y:     0.7106      Z:     0.4704     Total:     1.3289

*** Psi4 exiting successfully. Buy a developer a beer!
