                               Psi4 1.4a3.dev225

  ==> Input File <==

--------------------------------------------------------------------------
#psi4
#
memory 32 gb

molecule  {
0 1
  O        0.8655410    -0.2383350    -0.1978900
  C       -1.3532420     0.4851090     0.1659470
  C        0.0923410     0.8600100     0.3004220
  C       -4.0760200    -0.2326370    -0.0482320
  C       -1.8292680    -0.6845410     0.7713590
  C       -2.2449120     1.2876570    -0.5496990
  C       -3.1721270    -1.0365930     0.6617200
  C       -3.6095214     0.8933200    -0.6268851
  C        2.2320470    -0.1282220    -0.1046120
  C       -5.5355430    -0.5984480    -0.1257210
  C        2.9140800     0.9938170     0.3783620
  C        2.9472190    -1.2508620    -0.5439590
  C        4.3132210     0.9773220     0.4183570
  C        4.3370840    -1.2508910    -0.4991240
  C        5.0300920    -0.1353830    -0.0155080
  H        0.3103430     1.7730630    -0.2708990
  H        0.3551050     1.0439550     1.3523320
  H       -1.1374380    -1.3254410     1.3139440
  H       -1.8855300     2.1916430    -1.0389860
  H       -3.5267120    -1.9532640     1.1308580
  H       -4.2733370     1.5694920    -1.2133600
  H       -6.0038750    -0.1617940    -1.0122750
  H       -5.6673980    -1.6833350    -0.1714030
  H       -6.0811880    -0.2353180     0.7521400
  H        2.3826970     1.8764090     0.7176150
  H        2.3879470    -2.1054110    -0.9150460
  H        4.8399070     1.8514100     0.7945710
  H        4.8825510    -2.1268580    -0.8422600
  H        6.1161710    -0.1361850     0.0199920
units angstrom
no_reorient  #important for SAPT in psi4, default
symmetry c1  #important for SAPT in psi4, default
}

set PROPERTIES_ORIGIN ["COM"]
properties('MP2/aug-cc-pvtz', properties = ['dipole'])
--------------------------------------------------------------------------

    Molecular point group: c1
  Charge       = 0
  Multiplicity = 1
  Basis Set: AUG-CC-PVTZ
    Blend: AUG-CC-PVTZ
  Basis Set: (AUG-CC-PVTZ AUX)
    Blend: AUG-CC-PVTZ-JKFIT

    Orbital Energies [Eh]
    ---------------------

    Doubly Occupied:

       1A    -20.584181     2A    -11.301218     3A    -11.293351
       4A    -11.241105     5A    -11.240499     6A    -11.239532
       7A    -11.239065     8A    -11.237663     9A    -11.234660
      10A    -11.233119    11A    -11.232777    12A    -11.231290
      13A    -11.227831    14A    -11.227400    15A    -11.225195
      16A     -1.405136    17A     -1.161435    18A     -1.144323
      19A     -1.070572    20A     -1.017932    21A     -1.009661
      22A     -1.008763    23A     -0.963406    24A     -0.901871
      25A     -0.835740    26A     -0.831282    27A     -0.809693
      28A     -0.780397    29A     -0.721385    30A     -0.683309
      31A     -0.671029    32A     -0.663873    33A     -0.644229
      34A     -0.630856    35A     -0.620282    36A     -0.609504
      37A     -0.586933    38A     -0.580015    39A     -0.577722
      40A     -0.565234    41A     -0.541004    42A     -0.532790
      43A     -0.523742    44A     -0.514139    45A     -0.494090
      46A     -0.487446    47A     -0.482751    48A     -0.477490
      49A     -0.464101    50A     -0.340149    51A     -0.334089
      52A     -0.327648    53A     -0.312505

  @DF-RHF Final Energy:  -613.36878636170741

   => Energetics <=

    Nuclear Repulsion Energy =            871.2390119807698738
    One-Electron Energy =               -2560.5847753085267868
    Two-Electron Energy =                1075.9769769660495058
    Total Energy =                       -613.3687863617074072
  Basis Set: (AUG-CC-PVTZ AUX)
    Blend: AUG-CC-PVTZ-RI
    Molecular point group: c1

    Geometry (in Angstrom), charge = 0, multiplicity = 1:

       Center              X                  Y                   Z               Mass
    ------------   -----------------  -----------------  -----------------  -----------------
         O            0.830045707487    -0.232916847295    -0.196102770903    15.994914619570
         C           -1.388737292513     0.490527152705     0.167734229097    12.000000000000
         C            0.056845707487     0.865428152705     0.302209229097    12.000000000000
         C           -4.111515292513    -0.227218847295    -0.046444770903    12.000000000000
         C           -1.864763292513    -0.679122847295     0.773146229097    12.000000000000
         C           -2.280407292513     1.293075152705    -0.547911770903    12.000000000000
         C           -3.207622292513    -1.031174847295     0.663507229097    12.000000000000
         C           -3.645016692513     0.898738152705    -0.625097870903    12.000000000000
         C            2.196551707487    -0.122803847295    -0.102824770903    12.000000000000
         C           -5.571038292513    -0.593029847295    -0.123933770903    12.000000000000
         C            2.878584707487     0.999235152705     0.380149229097    12.000000000000
         C            2.911723707487    -1.245443847295    -0.542171770903    12.000000000000
         C            4.277725707487     0.982740152705     0.420144229097    12.000000000000
         C            4.301588707487    -1.245472847295    -0.497336770903    12.000000000000
         C            4.994596707487    -0.129964847295    -0.013720770903    12.000000000000
         H            0.274847707487     1.778481152705    -0.269111770903     1.007825032230
         H            0.319609707487     1.049373152705     1.354119229097     1.007825032230
         H           -1.172933292513    -1.320022847295     1.315731229097     1.007825032230
         H           -1.921025292513     2.197061152705    -1.037198770903     1.007825032230
         H           -3.562207292513    -1.947845847295     1.132645229097     1.007825032230
         H           -4.308832292513     1.574910152705    -1.211572770903     1.007825032230
         H           -6.039370292513    -0.156375847295    -1.010487770903     1.007825032230
         H           -5.702893292513    -1.677916847295    -0.169615770903     1.007825032230
         H           -6.116683292513    -0.229899847295     0.753927229097     1.007825032230
         H            2.347201707487     1.881827152705     0.719402229097     1.007825032230
         H            2.352451707487    -2.099992847295    -0.913258770903     1.007825032230
         H            4.804411707487     1.856828152705     0.796358229097     1.007825032230
         H            4.847055707487    -2.121439847295    -0.840472770903     1.007825032230
         H            6.080675707487    -0.130766847295     0.021779229097     1.007825032230

  Basis Set: AUG-CC-PVTZ
    Blend: AUG-CC-PVTZ
  Basis Set: (AUG-CC-PVTZ AUX)
    Blend: AUG-CC-PVTZ-JKFIT
	 Reference Energy          =    -613.3687863617074072 [Eh]
	 Singles Energy            =      -0.0000000000000000 [Eh]
	 Same-Spin Energy          =      -0.6725093357321846 [Eh]
	 Opposite-Spin Energy      =      -2.1164907159097299 [Eh]
	 Correlation Energy        =      -2.7890000516419144 [Eh]
	 Total Energy              =    -616.1577864133492994 [Eh]

	 ================> DF-SCS-MP2 Energies <==================
	-----------------------------------------------------------
	 SCS Same-Spin Scale       =       0.3333333333333333 [-]
	 SCS Opposite-Spin Scale   =       1.2000000000000000 [-]
	 SCS Same-Spin Energy      =      -0.2241697785773949 [Eh]
	 SCS Opposite-Spin Energy  =      -2.5397888590916757 [Eh]
	 SCS Correlation Energy    =      -2.7639586376690706 [Eh]
	 SCS Total Energy          =    -616.1327449993764276 [Eh]
	-----------------------------------------------------------

  Dipole Moment: [D]
     X:    -0.9603      Y:     0.7358      Z:     0.4753     Total:     1.2998

*** Psi4 exiting successfully. Buy a developer a beer!
