                               Psi4 1.4a3.dev225

  ==> Input File <==

--------------------------------------------------------------------------
#psi4
#
memory 32 gb

molecule  {
0 1
  O        0.8655410    -0.2383350    -0.1978900
  C       -1.3532420     0.4851090     0.1659470
  C        0.0923410     0.8600100     0.3004220
  C       -4.0760200    -0.2326370    -0.0482320
  C       -1.8292680    -0.6845410     0.7713590
  C       -2.2449120     1.2876570    -0.5496990
  C       -3.1721270    -1.0365930     0.6617200
  C       -3.5922330     0.9350480    -0.6483300
  C        2.2320470    -0.1282220    -0.1046120
  C       -5.5355430    -0.5984480    -0.1257210
  C        2.9140800     0.9938170     0.3783620
  C        2.9472190    -1.2508620    -0.5439590
  C        4.3132210     0.9773220     0.4183570
  C        4.3370840    -1.2508910    -0.4991240
  C        5.0300920    -0.1353830    -0.0155080
  H        0.3103430     1.7730630    -0.2708990
  H        0.3551050     1.0439550     1.3523320
  H       -1.2010243    -1.2665356     1.2640748
  H       -1.8855300     2.1916430    -1.0389860
  H       -3.5267120    -1.9532640     1.1308580
  H       -4.2733370     1.5694920    -1.2133600
  H       -6.0038750    -0.1617940    -1.0122750
  H       -5.6673980    -1.6833350    -0.1714030
  H       -6.0811880    -0.2353180     0.7521400
  H        2.3826970     1.8764090     0.7176150
  H        2.3879470    -2.1054110    -0.9150460
  H        4.8399070     1.8514100     0.7945710
  H        4.8825510    -2.1268580    -0.8422600
  H        6.1161710    -0.1361850     0.0199920
units angstrom
no_reorient  #important for SAPT in psi4, default
symmetry c1  #important for SAPT in psi4, default
}

set PROPERTIES_ORIGIN ["COM"]
properties('MP2/aug-cc-pvtz', properties = ['dipole'])
--------------------------------------------------------------------------

    Molecular point group: c1
  Charge       = 0
  Multiplicity = 1
  Basis Set: AUG-CC-PVTZ
    Blend: AUG-CC-PVTZ
  Basis Set: (AUG-CC-PVTZ AUX)
    Blend: AUG-CC-PVTZ-JKFIT

    Orbital Energies [Eh]
    ---------------------

    Doubly Occupied:

       1A    -20.584117     2A    -11.301106     3A    -11.293176
       4A    -11.243263     5A    -11.241026     6A    -11.239462
       7A    -11.238300     8A    -11.236870     9A    -11.233033
      10A    -11.232010    11A    -11.231611    12A    -11.227765
      13A    -11.227333    14A    -11.225533    15A    -11.223031
      16A     -1.405053    17A     -1.159114    18A     -1.143790
      19A     -1.067184    20A     -1.017866    21A     -1.016156
      22A     -1.008787    23A     -0.963956    24A     -0.899969
      25A     -0.837897    26A     -0.832049    27A     -0.808940
      28A     -0.785448    29A     -0.721244    30A     -0.686833
      31A     -0.670529    32A     -0.663819    33A     -0.649385
      34A     -0.634986    35A     -0.621271    36A     -0.609429
      37A     -0.588718    38A     -0.586787    39A     -0.576675
      40A     -0.563869    41A     -0.543261    42A     -0.532129
      43A     -0.522793    44A     -0.514354    45A     -0.491128
      46A     -0.489866    47A     -0.484675    48A     -0.478697
      49A     -0.464542    50A     -0.340004    51A     -0.336393
      52A     -0.321810    53A     -0.312424

  @DF-RHF Final Energy:  -613.36585396329053

   => Energetics <=

    Nuclear Repulsion Energy =            871.2518826972205943
    One-Electron Energy =               -2560.5765435121070368
    Two-Electron Energy =                1075.9588068515961368
    Total Energy =                       -613.3658539632904194
  Basis Set: (AUG-CC-PVTZ AUX)
    Blend: AUG-CC-PVTZ-RI
    Molecular point group: c1

    Geometry (in Angstrom), charge = 0, multiplicity = 1:

       Center              X                  Y                   Z               Mass
    ------------   -----------------  -----------------  -----------------  -----------------
         O            0.829321963400    -0.235744155284    -0.194550063709    15.994914619570
         C           -1.389461036600     0.487699844716     0.169286936291    12.000000000000
         C            0.056121963400     0.862600844716     0.303761936291    12.000000000000
         C           -4.112239036600    -0.230046155284    -0.044892063709    12.000000000000
         C           -1.865487036600    -0.681950155284     0.774698936291    12.000000000000
         C           -2.281131036600     1.290247844716    -0.546359063709    12.000000000000
         C           -3.208346036600    -1.034002155284     0.665059936291    12.000000000000
         C           -3.628452036600     0.937638844716    -0.644990063709    12.000000000000
         C            2.195827963400    -0.125631155284    -0.101272063709    12.000000000000
         C           -5.571762036600    -0.595857155284    -0.122381063709    12.000000000000
         C            2.877860963400     0.996407844716     0.381701936291    12.000000000000
         C            2.910999963400    -1.248271155284    -0.540619063709    12.000000000000
         C            4.277001963400     0.979912844716     0.421696936291    12.000000000000
         C            4.300864963400    -1.248300155284    -0.495784063709    12.000000000000
         C            4.993872963400    -0.132792155284    -0.012168063709    12.000000000000
         H            0.274123963400     1.775653844716    -0.267559063709     1.007825032230
         H            0.318885963400     1.046545844716     1.355671936291     1.007825032230
         H           -1.237243336600    -1.263944755284     1.267414736291     1.007825032230
         H           -1.921749036600     2.194233844716    -1.035646063709     1.007825032230
         H           -3.562931036600    -1.950673155284     1.134197936291     1.007825032230
         H           -4.309556036600     1.572082844716    -1.210020063709     1.007825032230
         H           -6.040094036600    -0.159203155284    -1.008935063709     1.007825032230
         H           -5.703617036600    -1.680744155284    -0.168063063709     1.007825032230
         H           -6.117407036600    -0.232727155284     0.755479936291     1.007825032230
         H            2.346477963400     1.878999844716     0.720954936291     1.007825032230
         H            2.351727963400    -2.102820155284    -0.911706063709     1.007825032230
         H            4.803687963400     1.854000844716     0.797910936291     1.007825032230
         H            4.846331963400    -2.124267155284    -0.838920063709     1.007825032230
         H            6.079951963400    -0.133594155284     0.023331936291     1.007825032230

  Basis Set: AUG-CC-PVTZ
    Blend: AUG-CC-PVTZ
  Basis Set: (AUG-CC-PVTZ AUX)
    Blend: AUG-CC-PVTZ-JKFIT
	 Reference Energy          =    -613.3658539632905331 [Eh]
	 Singles Energy            =      -0.0000000000000000 [Eh]
	 Same-Spin Energy          =      -0.6724399890487799 [Eh]
	 Opposite-Spin Energy      =      -2.1159420441504726 [Eh]
	 Correlation Energy        =      -2.7883820331992526 [Eh]
	 Total Energy              =    -616.1542359964897742 [Eh]

	 ================> DF-SCS-MP2 Energies <==================
	-----------------------------------------------------------
	 SCS Same-Spin Scale       =       0.3333333333333333 [-]
	 SCS Opposite-Spin Scale   =       1.2000000000000000 [-]
	 SCS Same-Spin Energy      =      -0.2241466630162600 [Eh]
	 SCS Opposite-Spin Energy  =      -2.5391304529805669 [Eh]
	 SCS Correlation Energy    =      -2.7632771159968268 [Eh]
	 SCS Total Energy          =    -616.1291310792873901 [Eh]
	-----------------------------------------------------------

  Dipole Moment: [D]
     X:    -0.9841      Y:     0.7230      Z:     0.4856     Total:     1.3142

*** Psi4 exiting successfully. Buy a developer a beer!
