                               Psi4 1.4a3.dev225

  ==> Input File <==

--------------------------------------------------------------------------
#psi4
#
memory 32 gb

molecule  {
0 1
  O        0.8655410    -0.2383350    -0.1978900
  C       -1.3532420     0.4851090     0.1659470
  C        0.0923410     0.8600100     0.3004220
  C       -4.0760200    -0.2326370    -0.0482320
  C       -1.8292680    -0.6845410     0.7713590
  C       -2.2449120     1.2876570    -0.5496990
  C       -3.1721270    -1.0365930     0.6617200
  C       -3.5922330     0.9350480    -0.6483300
  C        2.2320470    -0.1282220    -0.1046120
  C       -5.5355430    -0.5984480    -0.1257210
  C        2.9140800     0.9938170     0.3783620
  C        2.9472190    -1.2508620    -0.5439590
  C        4.3132210     0.9773220     0.4183570
  C        4.3370840    -1.2508910    -0.4991240
  C        5.0300920    -0.1353830    -0.0155080
  H        0.3103430     1.7730630    -0.2708990
  H        0.3551050     1.0439550     1.3523320
  H       -1.1374380    -1.3254410     1.3139440
  H       -1.8855300     2.1916430    -1.0389860
  H       -3.5267120    -1.9532640     1.1308580
  H       -4.2733370     1.5694920    -1.2133600
  H       -6.0038750    -0.1617940    -1.0122750
  H       -5.6673980    -1.6833350    -0.1714030
  H       -6.0811880    -0.2353180     0.7521400
  H        2.2847131     2.0391538     0.7801713
  H        2.3879470    -2.1054110    -0.9150460
  H        4.8399070     1.8514100     0.7945710
  H        4.8825510    -2.1268580    -0.8422600
  H        6.1161710    -0.1361850     0.0199920
units angstrom
no_reorient  #important for SAPT in psi4, default
symmetry c1  #important for SAPT in psi4, default
}

set PROPERTIES_ORIGIN ["COM"]
properties('MP2/aug-cc-pvtz', properties = ['dipole'])
--------------------------------------------------------------------------

    Molecular point group: c1
  Charge       = 0
  Multiplicity = 1
  Basis Set: AUG-CC-PVTZ
    Blend: AUG-CC-PVTZ
  Basis Set: (AUG-CC-PVTZ AUX)
    Blend: AUG-CC-PVTZ-JKFIT

    Orbital Energies [Eh]
    ---------------------

    Doubly Occupied:

       1A    -20.584192     2A    -11.303569     3A    -11.292139
       4A    -11.254312     5A    -11.243495     6A    -11.243139
       7A    -11.240506     8A    -11.238573     9A    -11.237111
      10A    -11.234560    11A    -11.231959    12A    -11.231794
      13A    -11.229512    14A    -11.228971    15A    -11.225639
      16A     -1.405024    17A     -1.158600    18A     -1.144477
      19A     -1.066774    20A     -1.016466    21A     -1.012890
      22A     -1.006814    23A     -0.963621    24A     -0.898555
      25A     -0.832801    26A     -0.828981    27A     -0.806799
      28A     -0.781409    29A     -0.717626    30A     -0.683129
      31A     -0.669750    32A     -0.657304    33A     -0.642672
      34A     -0.629114    35A     -0.620228    36A     -0.604250
      37A     -0.583224    38A     -0.578894    39A     -0.576254
      40A     -0.559070    41A     -0.543275    42A     -0.532133
      43A     -0.522929    44A     -0.511286    45A     -0.489930
      46A     -0.486451    47A     -0.484773    48A     -0.471079
      49A     -0.464648    50A     -0.341329    51A     -0.336443
      52A     -0.321836    53A     -0.313743

  @DF-RHF Final Energy:  -613.34870002527839

   => Energetics <=

    Nuclear Repulsion Energy =            869.8981516974414490
    One-Electron Energy =               -2557.9255960439604678
    Two-Electron Energy =                1074.6787443212406288
    Total Energy =                       -613.3487000252785037
  Basis Set: (AUG-CC-PVTZ AUX)
    Blend: AUG-CC-PVTZ-RI
    Molecular point group: c1

    Geometry (in Angstrom), charge = 0, multiplicity = 1:

       Center              X                  Y                   Z               Mass
    ------------   -----------------  -----------------  -----------------  -----------------
         O            0.829496955732    -0.236272421755    -0.195122010601    15.994914619570
         C           -1.389286044268     0.487171578245     0.168714989399    12.000000000000
         C            0.056296955732     0.862072578245     0.303189989399    12.000000000000
         C           -4.112064044268    -0.230574421755    -0.045464010601    12.000000000000
         C           -1.865312044268    -0.682478421755     0.774126989399    12.000000000000
         C           -2.280956044268     1.289719578245    -0.546931010601    12.000000000000
         C           -3.208171044268    -1.034530421755     0.664487989399    12.000000000000
         C           -3.628277044268     0.937110578245    -0.645562010601    12.000000000000
         C            2.196002955732    -0.126159421755    -0.101844010601    12.000000000000
         C           -5.571587044268    -0.596385421755    -0.122953010601    12.000000000000
         C            2.878035955732     0.995879578245     0.381129989399    12.000000000000
         C            2.911174955732    -1.248799421755    -0.541191010601    12.000000000000
         C            4.277176955732     0.979384578245     0.421124989399    12.000000000000
         C            4.301039955732    -1.248828421755    -0.496356010601    12.000000000000
         C            4.994047955732    -0.133320421755    -0.012740010601    12.000000000000
         H            0.274298955732     1.775125578245    -0.268131010601     1.007825032230
         H            0.319060955732     1.046017578245     1.355099989399     1.007825032230
         H           -1.173482044268    -1.323378421755     1.316711989399     1.007825032230
         H           -1.921574044268     2.193705578245    -1.036218010601     1.007825032230
         H           -3.562756044268    -1.951201421755     1.133625989399     1.007825032230
         H           -4.309381044268     1.571554578245    -1.210592010601     1.007825032230
         H           -6.039919044268    -0.159731421755    -1.009507010601     1.007825032230
         H           -5.703442044268    -1.681272421755    -0.168635010601     1.007825032230
         H           -6.117232044268    -0.233255421755     0.754907989399     1.007825032230
         H            2.248669055732     2.041216378245     0.782939289399     1.007825032230
         H            2.351902955732    -2.103348421755    -0.912278010601     1.007825032230
         H            4.803862955732     1.853472578245     0.797338989399     1.007825032230
         H            4.846506955732    -2.124795421755    -0.839492010601     1.007825032230
         H            6.080126955732    -0.134122421755     0.022759989399     1.007825032230

  Basis Set: AUG-CC-PVTZ
    Blend: AUG-CC-PVTZ
  Basis Set: (AUG-CC-PVTZ AUX)
    Blend: AUG-CC-PVTZ-JKFIT
	 Reference Energy          =    -613.3487000252783901 [Eh]
	 Singles Energy            =      -0.0000000000000000 [Eh]
	 Same-Spin Energy          =      -0.6733811521859095 [Eh]
	 Opposite-Spin Energy      =      -2.1188763145990652 [Eh]
	 Correlation Energy        =      -2.7922574667849749 [Eh]
	 Total Energy              =    -616.1409574920634213 [Eh]

	 ================> DF-SCS-MP2 Energies <==================
	-----------------------------------------------------------
	 SCS Same-Spin Scale       =       0.3333333333333333 [-]
	 SCS Opposite-Spin Scale   =       1.2000000000000000 [-]
	 SCS Same-Spin Energy      =      -0.2244603840619698 [Eh]
	 SCS Opposite-Spin Energy  =      -2.5426515775188783 [Eh]
	 SCS Correlation Energy    =      -2.7671119615808482 [Eh]
	 SCS Total Energy          =    -616.1158119868592848 [Eh]
	-----------------------------------------------------------

  Dipole Moment: [D]
     X:    -0.9365      Y:     0.6799      Z:     0.4516     Total:     1.2422

*** Psi4 exiting successfully. Buy a developer a beer!
