                               Psi4 1.4a3.dev225

  ==> Input File <==

--------------------------------------------------------------------------
#psi4
#
memory 32 gb

molecule  {
0 1
  O        0.8655410    -0.2383350    -0.1978900
  C       -1.3532420     0.4851090     0.1659470
  C        0.1099278     0.7289946     0.3850328
  C       -4.0760200    -0.2326370    -0.0482320
  C       -1.8292680    -0.6845410     0.7713590
  C       -2.2449120     1.2876570    -0.5496990
  C       -3.1721270    -1.0365930     0.6617200
  C       -3.5922330     0.9350480    -0.6483300
  C        2.2320470    -0.1282220    -0.1046120
  C       -5.5355430    -0.5984480    -0.1257210
  C        2.9140800     0.9938170     0.3783620
  C        2.9472190    -1.2508620    -0.5439590
  C        4.3132210     0.9773220     0.4183570
  C        4.3370840    -1.2508910    -0.4991240
  C        5.0300920    -0.1353830    -0.0155080
  H        0.3103430     1.7730630    -0.2708990
  H        0.3551050     1.0439550     1.3523320
  H       -1.1374380    -1.3254410     1.3139440
  H       -1.8855300     2.1916430    -1.0389860
  H       -3.5267120    -1.9532640     1.1308580
  H       -4.2733370     1.5694920    -1.2133600
  H       -6.0038750    -0.1617940    -1.0122750
  H       -5.6673980    -1.6833350    -0.1714030
  H       -6.0811880    -0.2353180     0.7521400
  H        2.3826970     1.8764090     0.7176150
  H        2.3879470    -2.1054110    -0.9150460
  H        4.8399070     1.8514100     0.7945710
  H        4.8825510    -2.1268580    -0.8422600
  H        6.1161710    -0.1361850     0.0199920
units angstrom
no_reorient  #important for SAPT in psi4, default
symmetry c1  #important for SAPT in psi4, default
}

set PROPERTIES_ORIGIN ["COM"]
properties('MP2/aug-cc-pvtz', properties = ['dipole'])
--------------------------------------------------------------------------

    Molecular point group: c1
  Charge       = 0
  Multiplicity = 1
  Basis Set: AUG-CC-PVTZ
    Blend: AUG-CC-PVTZ
  Basis Set: (AUG-CC-PVTZ AUX)
    Blend: AUG-CC-PVTZ-JKFIT

    Orbital Energies [Eh]
    ---------------------

    Doubly Occupied:

       1A    -20.591019     2A    -11.304985     3A    -11.296970
       4A    -11.243365     5A    -11.242806     6A    -11.241566
       7A    -11.238932     8A    -11.237341     9A    -11.236006
      10A    -11.232519    11A    -11.232108    12A    -11.231552
      13A    -11.230512    14A    -11.230359    15A    -11.225445
      16A     -1.431676    17A     -1.158907    18A     -1.147166
      19A     -1.066736    20A     -1.020743    21A     -1.015111
      22A     -1.011072    23A     -0.962123    24A     -0.899403
      25A     -0.836189    26A     -0.829117    27A     -0.815189
      28A     -0.781950    29A     -0.733722    30A     -0.690277
      31A     -0.674344    32A     -0.666805    33A     -0.646187
      34A     -0.633145    35A     -0.618775    36A     -0.612736
      37A     -0.589559    38A     -0.582758    39A     -0.576721
      40A     -0.572683    41A     -0.542071    42A     -0.537923
      43A     -0.517844    44A     -0.506578    45A     -0.493685
      46A     -0.487954    47A     -0.485966    48A     -0.478154
      49A     -0.437130    50A     -0.341921    51A     -0.335856
      52A     -0.322616    53A     -0.316162

  @DF-RHF Final Energy:  -613.34939303439432

   => Energetics <=

    Nuclear Repulsion Energy =            871.9853491855092216
    One-Electron Energy =               -2561.8846116182135120
    Two-Electron Energy =                1076.5498693983099656
    Total Energy =                       -613.3493930343943248
  Basis Set: (AUG-CC-PVTZ AUX)
    Blend: AUG-CC-PVTZ-RI
    Molecular point group: c1

    Geometry (in Angstrom), charge = 0, multiplicity = 1:

       Center              X                  Y                   Z               Mass
    ------------   -----------------  -----------------  -----------------  -----------------
         O            0.827933173577    -0.227508343254    -0.199928988549    15.994914619570
         C           -1.390849826423     0.495935656746     0.163908011451    12.000000000000
         C            0.072319973577     0.739821256746     0.382993811451    12.000000000000
         C           -4.113627826423    -0.221810343254    -0.050270988549    12.000000000000
         C           -1.866875826423    -0.673714343254     0.769320011451    12.000000000000
         C           -2.282519826423     1.298483656746    -0.551737988549    12.000000000000
         C           -3.209734826423    -1.025766343254     0.659681011451    12.000000000000
         C           -3.629840826423     0.945874656746    -0.650368988549    12.000000000000
         C            2.194439173577    -0.117395343254    -0.106650988549    12.000000000000
         C           -5.573150826423    -0.587621343254    -0.127759988549    12.000000000000
         C            2.876472173577     1.004643656746     0.376323011451    12.000000000000
         C            2.909611173577    -1.240035343254    -0.545997988549    12.000000000000
         C            4.275613173577     0.988148656746     0.416318011451    12.000000000000
         C            4.299476173577    -1.240064343254    -0.501162988549    12.000000000000
         C            4.992484173577    -0.124556343254    -0.017546988549    12.000000000000
         H            0.272735173577     1.783889656746    -0.272937988549     1.007825032230
         H            0.317497173577     1.054781656746     1.350293011451     1.007825032230
         H           -1.175045826423    -1.314614343254     1.311905011451     1.007825032230
         H           -1.923137826423     2.202469656746    -1.041024988549     1.007825032230
         H           -3.564319826423    -1.942437343254     1.128819011451     1.007825032230
         H           -4.310944826423     1.580318656746    -1.215398988549     1.007825032230
         H           -6.041482826423    -0.150967343254    -1.014313988549     1.007825032230
         H           -5.705005826423    -1.672508343254    -0.173441988549     1.007825032230
         H           -6.118795826423    -0.224491343254     0.750101011451     1.007825032230
         H            2.345089173577     1.887235656746     0.715576011451     1.007825032230
         H            2.350339173577    -2.094584343254    -0.917084988549     1.007825032230
         H            4.802299173577     1.862236656746     0.792532011451     1.007825032230
         H            4.844943173577    -2.116031343254    -0.844298988549     1.007825032230
         H            6.078563173577    -0.125358343254     0.017953011451     1.007825032230

  Basis Set: AUG-CC-PVTZ
    Blend: AUG-CC-PVTZ
  Basis Set: (AUG-CC-PVTZ AUX)
    Blend: AUG-CC-PVTZ-JKFIT
	 Reference Energy          =    -613.3493930343943248 [Eh]
	 Singles Energy            =      -0.0000000000000000 [Eh]
	 Same-Spin Energy          =      -0.6732420926720296 [Eh]
	 Opposite-Spin Energy      =      -2.1170104394442180 [Eh]
	 Correlation Energy        =      -2.7902525321162477 [Eh]
	 Total Energy              =    -616.1396455665105805 [Eh]

	 ================> DF-SCS-MP2 Energies <==================
	-----------------------------------------------------------
	 SCS Same-Spin Scale       =       0.3333333333333333 [-]
	 SCS Opposite-Spin Scale   =       1.2000000000000000 [-]
	 SCS Same-Spin Energy      =      -0.2244140308906765 [Eh]
	 SCS Opposite-Spin Energy  =      -2.5404125273330616 [Eh]
	 SCS Correlation Energy    =      -2.7648265582237381 [Eh]
	 SCS Total Energy          =    -616.1142195926180420 [Eh]
	-----------------------------------------------------------

  Dipole Moment: [D]
     X:    -0.6986      Y:     0.3871      Z:     0.5682     Total:     0.9802

*** Psi4 exiting successfully. Buy a developer a beer!
