                               Psi4 1.4a3.dev225

  ==> Input File <==

--------------------------------------------------------------------------
#psi4
#
memory 32 gb

molecule  {
0 1
  O        0.8655410    -0.2383350    -0.1978900
  C       -1.3532420     0.4851090     0.1659470
  C        0.0923410     0.8600100     0.3004220
  C       -4.0760200    -0.2326370    -0.0482320
  C       -1.8292680    -0.6845410     0.7713590
  C       -2.2449120     1.2876570    -0.5496990
  C       -3.1721270    -1.0365930     0.6617200
  C       -3.5922330     0.9350480    -0.6483300
  C        2.2320470    -0.1282220    -0.1046120
  C       -5.5355430    -0.5984480    -0.1257210
  C        2.9140800     0.9938170     0.3783620
  C        2.9472190    -1.2508620    -0.5439590
  C        4.3132210     0.9773220     0.4183570
  C        4.3370840    -1.2508910    -0.4991240
  C        5.0300920    -0.1353830    -0.0155080
  H        0.3103430     1.7730630    -0.2708990
  H        0.3551050     1.0439550     1.3523320
  H       -1.1374380    -1.3254410     1.3139440
  H       -1.8855300     2.1916430    -1.0389860
  H       -3.5267120    -1.9532640     1.1308580
  H       -4.2733370     1.5694920    -1.2133600
  H       -6.0038750    -0.1617940    -1.0122750
  H       -5.6673980    -1.6833350    -0.1714030
  H       -6.0811880    -0.2353180     0.7521400
  H        2.4071930     1.8357228     0.7019759
  H        2.3879470    -2.1054110    -0.9150460
  H        4.8399070     1.8514100     0.7945710
  H        4.8825510    -2.1268580    -0.8422600
  H        6.1161710    -0.1361850     0.0199920
units angstrom
no_reorient  #important for SAPT in psi4, default
symmetry c1  #important for SAPT in psi4, default
}

set PROPERTIES_ORIGIN ["COM"]
properties('MP2/aug-cc-pvtz', properties = ['dipole'])
--------------------------------------------------------------------------

    Molecular point group: c1
  Charge       = 0
  Multiplicity = 1
  Basis Set: AUG-CC-PVTZ
    Blend: AUG-CC-PVTZ
  Basis Set: (AUG-CC-PVTZ AUX)
    Blend: AUG-CC-PVTZ-JKFIT

    Orbital Energies [Eh]
    ---------------------

    Doubly Occupied:

       1A    -20.583871     2A    -11.300550     3A    -11.293388
       4A    -11.243909     5A    -11.240533     6A    -11.239226
       7A    -11.239219     8A    -11.237641     9A    -11.235044
      10A    -11.232323    11A    -11.232163    12A    -11.227313
      13A    -11.227089    14A    -11.226917    15A    -11.225917
      16A     -1.404866    17A     -1.158908    18A     -1.143763
      19A     -1.067077    20A     -1.018924    21A     -1.013522
      22A     -1.008754    23A     -0.964227    24A     -0.899843
      25A     -0.833356    26A     -0.832525    27A     -0.809717
      28A     -0.782765    29A     -0.722698    30A     -0.684443
      31A     -0.671079    32A     -0.666257    33A     -0.644072
      34A     -0.631634    35A     -0.620648    36A     -0.611154
      37A     -0.588174    38A     -0.583622    39A     -0.577056
      40A     -0.564608    41A     -0.543353    42A     -0.531755
      43A     -0.522883    44A     -0.514615    45A     -0.491580
      46A     -0.486644    47A     -0.485162    48A     -0.479802
      49A     -0.464137    50A     -0.339736    51A     -0.336814
      52A     -0.322333    53A     -0.312055

  @DF-RHF Final Energy:  -613.37085521944891

   => Energetics <=

    Nuclear Repulsion Energy =            870.9873061474361293
    One-Electron Energy =               -2560.0769953100598286
    Two-Electron Energy =                1075.7188339431747863
    Total Energy =                       -613.3708552194489130
  Basis Set: (AUG-CC-PVTZ AUX)
    Blend: AUG-CC-PVTZ-RI
    Molecular point group: c1

    Geometry (in Angstrom), charge = 0, multiplicity = 1:

       Center              X                  Y                   Z               Mass
    ------------   -----------------  -----------------  -----------------  -----------------
         O            0.828873858675    -0.235237498821    -0.194724203911    15.994914619570
         C           -1.389909141325     0.488206501179     0.169112796089    12.000000000000
         C            0.055673858675     0.863107501179     0.303587796089    12.000000000000
         C           -4.112687141325    -0.229539498821    -0.045066203911    12.000000000000
         C           -1.865935141325    -0.681443498821     0.774524796089    12.000000000000
         C           -2.281579141325     1.290754501179    -0.546533203911    12.000000000000
         C           -3.208794141325    -1.033495498821     0.664885796089    12.000000000000
         C           -3.628900141325     0.938145501179    -0.645164203911    12.000000000000
         C            2.195379858675    -0.125124498821    -0.101446203911    12.000000000000
         C           -5.572210141325    -0.595350498821    -0.122555203911    12.000000000000
         C            2.877412858675     0.996914501179     0.381527796089    12.000000000000
         C            2.910551858675    -1.247764498821    -0.540793203911    12.000000000000
         C            4.276553858675     0.980419501179     0.421522796089    12.000000000000
         C            4.300416858675    -1.247793498821    -0.495958203911    12.000000000000
         C            4.993424858675    -0.132285498821    -0.012342203911    12.000000000000
         H            0.273675858675     1.776160501179    -0.267733203911     1.007825032230
         H            0.318437858675     1.047052501179     1.355497796089     1.007825032230
         H           -1.174105141325    -1.322343498821     1.317109796089     1.007825032230
         H           -1.922197141325     2.194740501179    -1.035820203911     1.007825032230
         H           -3.563379141325    -1.950166498821     1.134023796089     1.007825032230
         H           -4.310004141325     1.572589501179    -1.210194203911     1.007825032230
         H           -6.040542141325    -0.158696498821    -1.009109203911     1.007825032230
         H           -5.704065141325    -1.680237498821    -0.168237203911     1.007825032230
         H           -6.117855141325    -0.232220498821     0.755305796089     1.007825032230
         H            2.370525858675     1.838820301179     0.705141696089     1.007825032230
         H            2.351279858675    -2.102313498821    -0.911880203911     1.007825032230
         H            4.803239858675     1.854507501179     0.797736796089     1.007825032230
         H            4.845883858675    -2.123760498821    -0.839094203911     1.007825032230
         H            6.079503858675    -0.133087498821     0.023157796089     1.007825032230

  Basis Set: AUG-CC-PVTZ
    Blend: AUG-CC-PVTZ
  Basis Set: (AUG-CC-PVTZ AUX)
    Blend: AUG-CC-PVTZ-JKFIT
	 Reference Energy          =    -613.3708552194489130 [Eh]
	 Singles Energy            =      -0.0000000000000000 [Eh]
	 Same-Spin Energy          =      -0.6725074491211506 [Eh]
	 Opposite-Spin Energy      =      -2.1161723413540892 [Eh]
	 Correlation Energy        =      -2.7886797904752396 [Eh]
	 Total Energy              =    -616.1595350099241841 [Eh]

	 ================> DF-SCS-MP2 Energies <==================
	-----------------------------------------------------------
	 SCS Same-Spin Scale       =       0.3333333333333333 [-]
	 SCS Opposite-Spin Scale   =       1.2000000000000000 [-]
	 SCS Same-Spin Energy      =      -0.2241691497070502 [Eh]
	 SCS Opposite-Spin Energy  =      -2.5394068096249067 [Eh]
	 SCS Correlation Energy    =      -2.7635759593319569 [Eh]
	 SCS Total Energy          =    -616.1344311787809147 [Eh]
	-----------------------------------------------------------

  Dipole Moment: [D]
     X:    -1.0158      Y:     0.7384      Z:     0.4739     Total:     1.3422

*** Psi4 exiting successfully. Buy a developer a beer!
