                               Psi4 1.3.2 release

  ==> Input File <==

--------------------------------------------------------------------------
#psi4
#
memory 32 gb

molecule  {
0 1
  O       -0.5230660    -0.8124530    -0.0079950
  O        0.1289150     1.3564030    -0.0013430
  O       -1.8621010    -0.2365450     0.0068560
  C        1.7937210    -0.4249780     0.0036230
  C        0.3985310     0.1220738    -0.0154334
  H        2.2615610    -0.2048250     0.9659560
  H        1.7606640    -1.5032570    -0.1498870
  H        2.3854820     0.0509630    -0.7800310
  H       -1.6289270     0.7283940     0.0063510
units angstrom
no_reorient  #important for SAPT in psi4, default
symmetry c1  #important for SAPT in psi4, default
}

set PROPERTIES_ORIGIN ["COM"]
properties('MP2/aug-cc-pvtz', properties = ['dipole'])
--------------------------------------------------------------------------

    Molecular point group: c1
  Charge       = 0
  Multiplicity = 1
  Basis Set: AUG-CC-PVTZ
    Blend: AUG-CC-PVTZ
  Basis Set: (AUG-CC-PVTZ AUX)
    Blend: AUG-CC-PVTZ-JKFIT

    Orbital Energies [Eh]
    ---------------------

    Doubly Occupied:

       1A    -20.688431     2A    -20.659566     3A    -20.567115
       4A    -11.416262     5A    -11.265473     6A     -1.548615
       7A     -1.377082     8A     -1.284389     9A     -1.034568
      10A     -0.846489    11A     -0.731821    12A     -0.706277
      13A     -0.701539    14A     -0.621341    15A     -0.610271
      16A     -0.591336    17A     -0.575611    18A     -0.530231
      19A     -0.479615    20A     -0.477232

  @DF-RHF Final Energy:  -302.67505125573172

   => Energetics <=

    Nuclear Repulsion Energy =            180.4823689528375041
    One-Electron Energy =                -772.8883135756991578
    Two-Electron Energy =                 289.7308933671299087
    Total Energy =                       -302.6750512557317165
  Basis Set: (AUG-CC-PVTZ AUX)
    Blend: AUG-CC-PVTZ-RI
    Molecular point group: c1

    Geometry (in Angstrom), charge = 0, multiplicity = 1:

       Center              X                  Y                   Z               Mass
    ------------   -----------------  -----------------  -----------------  -----------------
         O           -0.457746105248    -0.817005644513    -0.006170339369    15.994914619570
         O            0.194234894752     1.351850355487     0.000481660631    15.994914619570
         O           -1.796781105248    -0.241097644513     0.008680660631    15.994914619570
         C            1.859040894752    -0.429530644513     0.005447660631    12.000000000000
         C            0.463850894752     0.117521155487    -0.013608739369    12.000000000000
         H            2.326880894752    -0.209377644513     0.967780660631     1.007825032230
         H            1.825983894752    -1.507809644513    -0.148062339369     1.007825032230
         H            2.450801894752     0.046410355487    -0.778206339369     1.007825032230
         H           -1.563607105248     0.723841355487     0.008175660631     1.007825032230

  Basis Set: AUG-CC-PVTZ
    Blend: AUG-CC-PVTZ
  Basis Set: (AUG-CC-PVTZ AUX)
    Blend: AUG-CC-PVTZ-JKFIT
	 Reference Energy          =    -302.6750512557317165 [Eh]
	 Singles Energy            =      -0.0000000000000000 [Eh]
	 Same-Spin Energy          =      -0.2841866340256457 [Eh]
	 Opposite-Spin Energy      =      -0.8668183523353959 [Eh]
	 Correlation Energy        =      -1.1510049863610416 [Eh]
	 Total Energy              =    -303.8260562420927613 [Eh]

	 ================> DF-SCS-MP2 Energies <==================
	-----------------------------------------------------------
	 SCS Same-Spin Scale       =       0.3333333333333333 [-]
	 SCS Opposite-Spin Scale   =       1.2000000000000000 [-]
	 SCS Same-Spin Energy      =      -0.0947288780085486 [Eh]
	 SCS Opposite-Spin Energy  =      -1.0401820228024752 [Eh]
	 SCS Correlation Energy    =      -1.1349109008110236 [Eh]
	 SCS Total Energy          =    -303.8099621565427242 [Eh]
	-----------------------------------------------------------

  Dipole Moment: [D]
     X:     2.1864      Y:    -0.8450      Z:     0.0069     Total:     2.3440

*** Psi4 exiting successfully. Buy a developer a beer!
