                               Psi4 1.3.2 release

  ==> Input File <==

--------------------------------------------------------------------------
#psi4
#
memory 32 gb

molecule  {
0 1
  O       -0.5230660    -0.8124530    -0.0079950
  O        0.1289150     1.3564030    -0.0013430
  O       -1.8621010    -0.2365450     0.0068560
  C        1.7937210    -0.4249780     0.0036230
  C        0.4181520     0.1698940    -0.0073790
  H        2.2615610    -0.2048250     0.9659560
  H        1.7606640    -1.5032570    -0.1498870
  H        2.3854820     0.0509630    -0.7800310
  H       -1.6524156     0.6311917     0.0064019
units angstrom
no_reorient  #important for SAPT in psi4, default
symmetry c1  #important for SAPT in psi4, default
}

set PROPERTIES_ORIGIN ["COM"]
properties('MP2/aug-cc-pvtz', properties = ['dipole'])
--------------------------------------------------------------------------

    Molecular point group: c1
  Charge       = 0
  Multiplicity = 1
  Basis Set: AUG-CC-PVTZ
    Blend: AUG-CC-PVTZ
  Basis Set: (AUG-CC-PVTZ AUX)
    Blend: AUG-CC-PVTZ-JKFIT

    Orbital Energies [Eh]
    ---------------------

    Doubly Occupied:

       1A    -20.679555     2A    -20.645846     3A    -20.576362
       4A    -11.415263     5A    -11.266196     6A     -1.541976
       7A     -1.407929     8A     -1.287484     9A     -1.036951
      10A     -0.845746    11A     -0.740609    12A     -0.699179
      13A     -0.698515    14A     -0.632234    15A     -0.612761
      16A     -0.601300    17A     -0.574708    18A     -0.537083
      19A     -0.485840    20A     -0.480907

  @DF-RHF Final Energy:  -302.67696335192983

   => Energetics <=

    Nuclear Repulsion Energy =            180.8537266047572700
    One-Electron Energy =                -773.5284918600808624
    Two-Electron Energy =                 289.9978019033937358
    Total Energy =                       -302.6769633519298281
  Basis Set: (AUG-CC-PVTZ AUX)
    Blend: AUG-CC-PVTZ-RI
    Molecular point group: c1

    Geometry (in Angstrom), charge = 0, multiplicity = 1:

       Center              X                  Y                   Z               Mass
    ------------   -----------------  -----------------  -----------------  -----------------
         O           -0.460532090809    -0.823265895164    -0.007442493157    15.994914619570
         O            0.191448909191     1.345590104836    -0.000790493157    15.994914619570
         O           -1.799567090809    -0.247357895164     0.007408506843    15.994914619570
         C            1.856254909191    -0.435790895164     0.004175506843    12.000000000000
         C            0.480685909191     0.159081104836    -0.006826493157    12.000000000000
         H            2.324094909191    -0.215637895164     0.966508506843     1.007825032230
         H            1.823197909191    -1.514069895164    -0.149334493157     1.007825032230
         H            2.448015909191     0.040150104836    -0.779478493157     1.007825032230
         H           -1.589881690809     0.620378804836     0.006954406843     1.007825032230

  Basis Set: AUG-CC-PVTZ
    Blend: AUG-CC-PVTZ
  Basis Set: (AUG-CC-PVTZ AUX)
    Blend: AUG-CC-PVTZ-JKFIT
	 Reference Energy          =    -302.6769633519298281 [Eh]
	 Singles Energy            =      -0.0000000000000000 [Eh]
	 Same-Spin Energy          =      -0.2821635085989232 [Eh]
	 Opposite-Spin Energy      =      -0.8632427594294890 [Eh]
	 Correlation Energy        =      -1.1454062680284123 [Eh]
	 Total Energy              =    -303.8223696199582378 [Eh]

	 ================> DF-SCS-MP2 Energies <==================
	-----------------------------------------------------------
	 SCS Same-Spin Scale       =       0.3333333333333333 [-]
	 SCS Opposite-Spin Scale   =       1.2000000000000000 [-]
	 SCS Same-Spin Energy      =      -0.0940545028663077 [Eh]
	 SCS Opposite-Spin Energy  =      -1.0358913113153867 [Eh]
	 SCS Correlation Energy    =      -1.1299458141816945 [Eh]
	 SCS Total Energy          =    -303.8069091661114953 [Eh]
	-----------------------------------------------------------

  Dipole Moment: [D]
     X:     2.3520      Y:    -0.6138      Z:     0.0149     Total:     2.4308

*** Psi4 exiting successfully. Buy a developer a beer!
