                               Psi4 1.3.2 release

  ==> Input File <==

--------------------------------------------------------------------------
#psi4
#
memory 32 gb

molecule  {
0 1
  O       -0.5230660    -0.8124530    -0.0079950
  O        0.0468575     1.3333433    -0.0024598
  O       -1.8621010    -0.2365450     0.0068560
  C        1.7937210    -0.4249780     0.0036230
  C        0.4181520     0.1698940    -0.0073790
  H        2.2615610    -0.2048250     0.9659560
  H        1.7606640    -1.5032570    -0.1498870
  H        2.3854820     0.0509630    -0.7800310
  H       -1.6289270     0.7283940     0.0063510
units angstrom
no_reorient  #important for SAPT in psi4, default
symmetry c1  #important for SAPT in psi4, default
}

set PROPERTIES_ORIGIN ["COM"]
properties('MP2/aug-cc-pvtz', properties = ['dipole'])
--------------------------------------------------------------------------

    Molecular point group: c1
  Charge       = 0
  Multiplicity = 1
  Basis Set: AUG-CC-PVTZ
    Blend: AUG-CC-PVTZ
  Basis Set: (AUG-CC-PVTZ AUX)
    Blend: AUG-CC-PVTZ-JKFIT

    Orbital Energies [Eh]
    ---------------------

    Doubly Occupied:

       1A    -20.670486     2A    -20.643640     3A    -20.577327
       4A    -11.415800     5A    -11.270729     6A     -1.530369
       7A     -1.402507     8A     -1.262089     9A     -1.039228
      10A     -0.829914    11A     -0.742868    12A     -0.697157
      13A     -0.694392    14A     -0.618236    15A     -0.611202
      16A     -0.590887    17A     -0.571230    18A     -0.535701
      19A     -0.489400    20A     -0.473752

  @DF-RHF Final Energy:  -302.67873287959463

   => Energetics <=

    Nuclear Repulsion Energy =            180.9543940800119515
    One-Electron Energy =                -773.9324319408150359
    Two-Electron Energy =                 290.2993049812084223
    Total Energy =                       -302.6787328795946337
  Basis Set: (AUG-CC-PVTZ AUX)
    Blend: AUG-CC-PVTZ-RI
    Molecular point group: c1

    Geometry (in Angstrom), charge = 0, multiplicity = 1:

       Center              X                  Y                   Z               Mass
    ------------   -----------------  -----------------  -----------------  -----------------
         O           -0.443577376518    -0.819702502395    -0.007206826868    15.994914619570
         O            0.126346123482     1.326093797605    -0.001671626868    15.994914619570
         O           -1.782612376518    -0.243794502395     0.007644173132    15.994914619570
         C            1.873209623482    -0.432227502395     0.004411173132    12.000000000000
         C            0.497640623482     0.162644497605    -0.006590826868    12.000000000000
         H            2.341049623482    -0.212074502395     0.966744173132     1.007825032230
         H            1.840152623482    -1.510506502395    -0.149098826868     1.007825032230
         H            2.464970623482     0.043713497605    -0.779242826868     1.007825032230
         H           -1.549438376518     0.721144497605     0.007139173132     1.007825032230

  Basis Set: AUG-CC-PVTZ
    Blend: AUG-CC-PVTZ
  Basis Set: (AUG-CC-PVTZ AUX)
    Blend: AUG-CC-PVTZ-JKFIT
	 Reference Energy          =    -302.6787328795946337 [Eh]
	 Singles Energy            =      -0.0000000000000000 [Eh]
	 Same-Spin Energy          =      -0.2840920020106299 [Eh]
	 Opposite-Spin Energy      =      -0.8663276952913399 [Eh]
	 Correlation Energy        =      -1.1504196973019698 [Eh]
	 Total Energy              =    -303.8291525768966039 [Eh]

	 ================> DF-SCS-MP2 Energies <==================
	-----------------------------------------------------------
	 SCS Same-Spin Scale       =       0.3333333333333333 [-]
	 SCS Opposite-Spin Scale   =       1.2000000000000000 [-]
	 SCS Same-Spin Energy      =      -0.0946973340035433 [Eh]
	 SCS Opposite-Spin Energy  =      -1.0395932343496079 [Eh]
	 SCS Correlation Energy    =      -1.1342905683531512 [Eh]
	 SCS Total Energy          =    -303.8130234479477849 [Eh]
	-----------------------------------------------------------

  Dipole Moment: [D]
     X:     2.6770      Y:    -0.4659      Z:     0.0165     Total:     2.7173

*** Psi4 exiting successfully. Buy a developer a beer!
