                               Psi4 1.4a3.dev225

  ==> Input File <==

--------------------------------------------------------------------------
#psi4
#
memory 32 gb

molecule  {
0 1
  O       -0.5230660    -0.8124530    -0.0079950
  O        0.1289150     1.3564030    -0.0013430
  O       -1.8161715    -0.2562989     0.0063466
  C        1.7937210    -0.4249780     0.0036230
  C        0.4181520     0.1698940    -0.0073790
  H        2.2615610    -0.2048250     0.9659560
  H        1.7606640    -1.5032570    -0.1498870
  H        2.3854820     0.0509630    -0.7800310
  H       -1.6289270     0.7283940     0.0063510
units angstrom
no_reorient  #important for SAPT in psi4, default
symmetry c1  #important for SAPT in psi4, default
}

set PROPERTIES_ORIGIN ["COM"]
properties('MP2/aug-cc-pvtz', properties = ['dipole'])
--------------------------------------------------------------------------

    Molecular point group: c1
  Charge       = 0
  Multiplicity = 1
  Basis Set: AUG-CC-PVTZ
    Blend: AUG-CC-PVTZ
  Basis Set: (AUG-CC-PVTZ AUX)
    Blend: AUG-CC-PVTZ-JKFIT

    Orbital Energies [Eh]
    ---------------------

    Doubly Occupied:

       1A    -20.676860     2A    -20.643188     3A    -20.578471
       4A    -11.414666     5A    -11.265423     6A     -1.549075
       7A     -1.408795     8A     -1.256931     9A     -1.034457
      10A     -0.843629    11A     -0.739235    12A     -0.703392
      13A     -0.701884    14A     -0.614272    15A     -0.612900
      16A     -0.595991    17A     -0.573345    18A     -0.534899
      19A     -0.488159    20A     -0.469550

  @DF-RHF Final Energy:  -302.68245437179144

   => Energetics <=

    Nuclear Repulsion Energy =            181.5936840243673771
    One-Electron Energy =                -775.1420304656770668
    Two-Electron Energy =                 290.8658920695182815
    Total Energy =                       -302.6824543717914366
  Basis Set: (AUG-CC-PVTZ AUX)
    Blend: AUG-CC-PVTZ-RI
    Molecular point group: c1

    Geometry (in Angstrom), charge = 0, multiplicity = 1:

       Center              X                  Y                   Z               Mass
    ------------   -----------------  -----------------  -----------------  -----------------
         O           -0.470507758975    -0.820398092246    -0.007334632929    15.994914619570
         O            0.181473241025     1.348457907754    -0.000682632929    15.994914619570
         O           -1.763613258975    -0.264243992246     0.007006967071    15.994914619570
         C            1.846279241025    -0.432923092246     0.004283367071    12.000000000000
         C            0.470710241025     0.161948907754    -0.006718632929    12.000000000000
         H            2.314119241025    -0.212770092246     0.966616367071     1.007825032230
         H            1.813222241025    -1.511202092246    -0.149226632929     1.007825032230
         H            2.438040241025     0.043017907754    -0.779370632929     1.007825032230
         H           -1.576368758975     0.720448907754     0.007011367071     1.007825032230

  Basis Set: AUG-CC-PVTZ
    Blend: AUG-CC-PVTZ
  Basis Set: (AUG-CC-PVTZ AUX)
    Blend: AUG-CC-PVTZ-JKFIT
	 Reference Energy          =    -302.6824543717914366 [Eh]
	 Singles Energy            =      -0.0000000000000000 [Eh]
	 Same-Spin Energy          =      -0.2835480966953677 [Eh]
	 Opposite-Spin Energy      =      -0.8638357405500808 [Eh]
	 Correlation Energy        =      -1.1473838372454486 [Eh]
	 Total Energy              =    -303.8298382090368932 [Eh]

	 ================> DF-SCS-MP2 Energies <==================
	-----------------------------------------------------------
	 SCS Same-Spin Scale       =       0.3333333333333333 [-]
	 SCS Opposite-Spin Scale   =       1.2000000000000000 [-]
	 SCS Same-Spin Energy      =      -0.0945160322317892 [Eh]
	 SCS Opposite-Spin Energy  =      -1.0366028886600969 [Eh]
	 SCS Correlation Energy    =      -1.1311189208918861 [Eh]
	 SCS Total Energy          =    -303.8135732926833157 [Eh]
	-----------------------------------------------------------

  Dipole Moment: [D]
     X:     2.3130      Y:    -0.4912      Z:     0.0152     Total:     2.3646

*** Psi4 exiting successfully. Buy a developer a beer!
