                               Psi4 1.4a3.dev225

  ==> Input File <==

--------------------------------------------------------------------------
#psi4
#
memory 32 gb

molecule  {
0 1
  O       -0.5230660    -0.8124530    -0.0079950
  O        0.1289150     1.3564030    -0.0013430
  O       -1.8621010    -0.2365450     0.0068560
  C        1.7937210    -0.4249780     0.0036230
  C        0.3997955     0.1778324    -0.0075258
  H        2.2615610    -0.2048250     0.9659560
  H        1.7606640    -1.5032570    -0.1498870
  H        2.3854820     0.0509630    -0.7800310
  H       -1.6289270     0.7283940     0.0063510
units angstrom
no_reorient  #important for SAPT in psi4, default
symmetry c1  #important for SAPT in psi4, default
}

set PROPERTIES_ORIGIN ["COM"]
properties('MP2/aug-cc-pvtz', properties = ['dipole'])
--------------------------------------------------------------------------

    Molecular point group: c1
  Charge       = 0
  Multiplicity = 1
  Basis Set: AUG-CC-PVTZ
    Blend: AUG-CC-PVTZ
  Basis Set: (AUG-CC-PVTZ AUX)
    Blend: AUG-CC-PVTZ-JKFIT

    Orbital Energies [Eh]
    ---------------------

    Doubly Occupied:

       1A    -20.678176     2A    -20.650359     3A    -20.579598
       4A    -11.413843     5A    -11.264783     6A     -1.535599
       7A     -1.413588     8A     -1.268587     9A     -1.028334
      10A     -0.835864    11A     -0.739585    12A     -0.698898
      13A     -0.698484    14A     -0.617390    15A     -0.609012
      16A     -0.599917    17A     -0.569585    18A     -0.539648
      19A     -0.486453    20A     -0.479900

  @DF-RHF Final Energy:  -302.68095445734565

   => Energetics <=

    Nuclear Repulsion Energy =            180.5517018116737518
    One-Electron Energy =                -773.0501066829990577
    Two-Electron Energy =                 289.8174504139796568
    Total Energy =                       -302.6809544573456492
  Basis Set: (AUG-CC-PVTZ AUX)
    Blend: AUG-CC-PVTZ-RI
    Molecular point group: c1

    Geometry (in Angstrom), charge = 0, multiplicity = 1:

       Center              X                  Y                   Z               Mass
    ------------   -----------------  -----------------  -----------------  -----------------
         O           -0.457945721003    -0.825807775812    -0.007418644266    15.994914619570
         O            0.194035278997     1.343048224188    -0.000766644266    15.994914619570
         O           -1.796980721003    -0.249899775812     0.007432355734    15.994914619570
         C            1.858841278997    -0.438332775812     0.004199355734    12.000000000000
         C            0.464915778997     0.164477624188    -0.006949444266    12.000000000000
         H            2.326681278997    -0.218179775812     0.966532355734     1.007825032230
         H            1.825784278997    -1.516611775812    -0.149310644266     1.007825032230
         H            2.450602278997     0.037608224188    -0.779454644266     1.007825032230
         H           -1.563806721003     0.715039224188     0.006927355734     1.007825032230

  Basis Set: AUG-CC-PVTZ
    Blend: AUG-CC-PVTZ
  Basis Set: (AUG-CC-PVTZ AUX)
    Blend: AUG-CC-PVTZ-JKFIT
	 Reference Energy          =    -302.6809544573456492 [Eh]
	 Singles Energy            =      -0.0000000000000000 [Eh]
	 Same-Spin Energy          =      -0.2834388120105293 [Eh]
	 Opposite-Spin Energy      =      -0.8657365977873025 [Eh]
	 Correlation Energy        =      -1.1491754097978317 [Eh]
	 Total Energy              =    -303.8301298671434552 [Eh]

	 ================> DF-SCS-MP2 Energies <==================
	-----------------------------------------------------------
	 SCS Same-Spin Scale       =       0.3333333333333333 [-]
	 SCS Opposite-Spin Scale   =       1.2000000000000000 [-]
	 SCS Same-Spin Energy      =      -0.0944796040035098 [Eh]
	 SCS Opposite-Spin Energy  =      -1.0388839173447630 [Eh]
	 SCS Correlation Energy    =      -1.1333635213482729 [Eh]
	 SCS Total Energy          =    -303.8143179786939072 [Eh]
	-----------------------------------------------------------

  Dipole Moment: [D]
     X:     2.3096      Y:    -0.4513      Z:     0.0136     Total:     2.3533

*** Psi4 exiting successfully. Buy a developer a beer!
