                               Psi4 1.3.2 release

  ==> Input File <==

--------------------------------------------------------------------------
#psi4
#
memory 32 gb

molecule  {
0 1
  O       -0.4882103    -0.8447018    -0.0076308
  O        0.1289150     1.3564030    -0.0013430
  O       -1.8621010    -0.2365450     0.0068560
  C        1.7937210    -0.4249780     0.0036230
  C        0.4181520     0.1698940    -0.0073790
  H        2.2615610    -0.2048250     0.9659560
  H        1.7606640    -1.5032570    -0.1498870
  H        2.3854820     0.0509630    -0.7800310
  H       -1.6289270     0.7283940     0.0063510
units angstrom
no_reorient  #important for SAPT in psi4, default
symmetry c1  #important for SAPT in psi4, default
}

set PROPERTIES_ORIGIN ["COM"]
properties('MP2/aug-cc-pvtz', properties = ['dipole'])
--------------------------------------------------------------------------

    Molecular point group: c1
  Charge       = 0
  Multiplicity = 1
  Basis Set: AUG-CC-PVTZ
    Blend: AUG-CC-PVTZ
  Basis Set: (AUG-CC-PVTZ AUX)
    Blend: AUG-CC-PVTZ-JKFIT

    Orbital Energies [Eh]
    ---------------------

    Doubly Occupied:

       1A    -20.680717     2A    -20.652934     3A    -20.580213
       4A    -11.416134     5A    -11.264021     6A     -1.519335
       7A     -1.403750     8A     -1.274109     9A     -1.034245
      10A     -0.827539    11A     -0.738098    12A     -0.694202
      13A     -0.692565    14A     -0.620087    15A     -0.607595
      16A     -0.601828    17A     -0.561946    18A     -0.536624
      19A     -0.487220    20A     -0.485680

  @DF-RHF Final Energy:  -302.67393289645412

   => Energetics <=

    Nuclear Repulsion Energy =            179.6646741316027089
    One-Electron Energy =                -771.3195288851538862
    Two-Electron Energy =                 288.9809218570970302
    Total Energy =                       -302.6739328964541187
  Basis Set: (AUG-CC-PVTZ AUX)
    Blend: AUG-CC-PVTZ-RI
    Molecular point group: c1

    Geometry (in Angstrom), charge = 0, multiplicity = 1:

       Center              X                  Y                   Z               Mass
    ------------   -----------------  -----------------  -----------------  -----------------
         O           -0.433321965534    -0.850017778072    -0.007154251459    15.994914619570
         O            0.183803334466     1.351087021928    -0.000866451459    15.994914619570
         O           -1.807212665534    -0.241860978072     0.007332548541    15.994914619570
         C            1.848609334466    -0.430293978072     0.004099548541    12.000000000000
         C            0.473040334466     0.164578021928    -0.006902451459    12.000000000000
         H            2.316449334466    -0.210140978072     0.966432548541     1.007825032230
         H            1.815552334466    -1.508572978072    -0.149410451459     1.007825032230
         H            2.440370334466     0.045647021928    -0.779554451459     1.007825032230
         H           -1.574038665534     0.723078021928     0.006827548541     1.007825032230

  Basis Set: AUG-CC-PVTZ
    Blend: AUG-CC-PVTZ
  Basis Set: (AUG-CC-PVTZ AUX)
    Blend: AUG-CC-PVTZ-JKFIT
	 Reference Energy          =    -302.6739328964541187 [Eh]
	 Singles Energy            =      -0.0000000000000000 [Eh]
	 Same-Spin Energy          =      -0.2845309505272736 [Eh]
	 Opposite-Spin Energy      =      -0.8696609355333318 [Eh]
	 Correlation Energy        =      -1.1541918860606053 [Eh]
	 Total Energy              =    -303.8281247825147489 [Eh]

	 ================> DF-SCS-MP2 Energies <==================
	-----------------------------------------------------------
	 SCS Same-Spin Scale       =       0.3333333333333333 [-]
	 SCS Opposite-Spin Scale   =       1.2000000000000000 [-]
	 SCS Same-Spin Energy      =      -0.0948436501757579 [Eh]
	 SCS Opposite-Spin Energy  =      -1.0435931226399981 [Eh]
	 SCS Correlation Energy    =      -1.1384367728157561 [Eh]
	 SCS Total Energy          =    -303.8123696692698559 [Eh]
	-----------------------------------------------------------

  Dipole Moment: [D]
     X:     2.4027      Y:    -0.4557      Z:     0.0145     Total:     2.4456

*** Psi4 exiting successfully. Buy a developer a beer!
