                               Psi4 1.3.2 release

  ==> Input File <==

--------------------------------------------------------------------------
#psi4
#
memory 32 gb

molecule  {
0 1
  O       -0.5567756    -0.7790071    -0.0077300
  O        0.1289150     1.3564030    -0.0013430
  O       -1.8621010    -0.2365450     0.0068560
  C        1.7937210    -0.4249780     0.0036230
  C        0.4181520     0.1698940    -0.0073790
  H        2.2615610    -0.2048250     0.9659560
  H        1.7606640    -1.5032570    -0.1498870
  H        2.3854820     0.0509630    -0.7800310
  H       -1.6289270     0.7283940     0.0063510
units angstrom
no_reorient  #important for SAPT in psi4, default
symmetry c1  #important for SAPT in psi4, default
}

set PROPERTIES_ORIGIN ["COM"]
properties('MP2/aug-cc-pvtz', properties = ['dipole'])
--------------------------------------------------------------------------

    Molecular point group: c1
  Charge       = 0
  Multiplicity = 1
  Basis Set: AUG-CC-PVTZ
    Blend: AUG-CC-PVTZ
  Basis Set: (AUG-CC-PVTZ AUX)
    Blend: AUG-CC-PVTZ-JKFIT

    Orbital Energies [Eh]
    ---------------------

    Doubly Occupied:

       1A    -20.672064     2A    -20.646886     3A    -20.576155
       4A    -11.414844     5A    -11.268049     6A     -1.546201
       7A     -1.407938     8A     -1.258195     9A     -1.036557
      10A     -0.841100    11A     -0.739941    12A     -0.701106
      13A     -0.700055    14A     -0.619236    15A     -0.614302
      16A     -0.588318    17A     -0.579989    18A     -0.535877
      19A     -0.487487    20A     -0.468836

  @DF-RHF Final Energy:  -302.68281597726269

   => Energetics <=

    Nuclear Repulsion Energy =            181.1102159790187898
    One-Electron Energy =                -774.1797897985371719
    Two-Electron Energy =                 290.3867578422556903
    Total Energy =                       -302.6828159772626918
  Basis Set: (AUG-CC-PVTZ AUX)
    Blend: AUG-CC-PVTZ-RI
    Molecular point group: c1

    Geometry (in Angstrom), charge = 0, multiplicity = 1:

       Center              X                  Y                   Z               Mass
    ------------   -----------------  -----------------  -----------------  -----------------
         O           -0.487460099085    -0.798146227270    -0.007232578292    15.994914619570
         O            0.198230500915     1.337263872730    -0.000845578292    15.994914619570
         O           -1.792785499085    -0.255684127270     0.007353421708    15.994914619570
         C            1.863036500915    -0.444117127270     0.004120421708    12.000000000000
         C            0.487467500915     0.150754872730    -0.006881578292    12.000000000000
         H            2.330876500915    -0.223964127270     0.966453421708     1.007825032230
         H            1.829979500915    -1.522396127270    -0.149389578292     1.007825032230
         H            2.454797500915     0.031823872730    -0.779533578292     1.007825032230
         H           -1.559611499085     0.709254872730     0.006848421708     1.007825032230

  Basis Set: AUG-CC-PVTZ
    Blend: AUG-CC-PVTZ
  Basis Set: (AUG-CC-PVTZ AUX)
    Blend: AUG-CC-PVTZ-JKFIT
	 Reference Energy          =    -302.6828159772626918 [Eh]
	 Singles Energy            =      -0.0000000000000000 [Eh]
	 Same-Spin Energy          =      -0.2832828415446375 [Eh]
	 Opposite-Spin Energy      =      -0.8635394964810094 [Eh]
	 Correlation Energy        =      -1.1468223380256468 [Eh]
	 Total Energy              =    -303.8296383152883209 [Eh]

	 ================> DF-SCS-MP2 Energies <==================
	-----------------------------------------------------------
	 SCS Same-Spin Scale       =       0.3333333333333333 [-]
	 SCS Opposite-Spin Scale   =       1.2000000000000000 [-]
	 SCS Same-Spin Energy      =      -0.0944276138482125 [Eh]
	 SCS Opposite-Spin Energy  =      -1.0362473957772111 [Eh]
	 SCS Correlation Energy    =      -1.1306750096254237 [Eh]
	 SCS Total Energy          =    -303.8134909868880982 [Eh]
	-----------------------------------------------------------

  Dipole Moment: [D]
     X:     2.4109      Y:    -0.5505      Z:     0.0150     Total:     2.4731

*** Psi4 exiting successfully. Buy a developer a beer!
