                               Psi4 1.3.2 release

  ==> Input File <==

--------------------------------------------------------------------------
#psi4
#
memory 32 gb

molecule  {
0 1
  O       -0.5230660    -0.8124530    -0.0079950
  O        0.1496653     1.3612685    -0.0010682
  O       -1.8621010    -0.2365450     0.0068560
  C        1.7937210    -0.4249780     0.0036230
  C        0.4181520     0.1698940    -0.0073790
  H        2.2615610    -0.2048250     0.9659560
  H        1.7606640    -1.5032570    -0.1498870
  H        2.3854820     0.0509630    -0.7800310
  H       -1.6289270     0.7283940     0.0063510
units angstrom
no_reorient  #important for SAPT in psi4, default
symmetry c1  #important for SAPT in psi4, default
}

set PROPERTIES_ORIGIN ["COM"]
properties('MP2/aug-cc-pvtz', properties = ['dipole'])
--------------------------------------------------------------------------

    Molecular point group: c1
  Charge       = 0
  Multiplicity = 1
  Basis Set: AUG-CC-PVTZ
    Blend: AUG-CC-PVTZ
  Basis Set: (AUG-CC-PVTZ AUX)
    Blend: AUG-CC-PVTZ-JKFIT

    Orbital Energies [Eh]
    ---------------------

    Doubly Occupied:

       1A    -20.678013     2A    -20.651321     3A    -20.578447
       4A    -11.415359     5A    -11.264835     6A     -1.531988
       7A     -1.406597     8A     -1.267351     9A     -1.034459
      10A     -0.834798    11A     -0.738152    12A     -0.697148
      13A     -0.696690    14A     -0.618913    15A     -0.610886
      16A     -0.597037    17A     -0.571674    18A     -0.536229
      19A     -0.486828    20A     -0.478578

  @DF-RHF Final Energy:  -302.67985070748409

   => Energetics <=

    Nuclear Repulsion Energy =            180.2299617419509445
    One-Electron Energy =                -772.4290179669984582
    Two-Electron Energy =                 289.5192055175634778
    Total Energy =                       -302.6798507074840927
  Basis Set: (AUG-CC-PVTZ AUX)
    Blend: AUG-CC-PVTZ-RI
    Molecular point group: c1

    Geometry (in Angstrom), charge = 0, multiplicity = 1:

       Center              X                  Y                   Z               Mass
    ------------   -----------------  -----------------  -----------------  -----------------
         O           -0.465209678029    -0.825578382884    -0.007499640359    15.994914619570
         O            0.207521621971     1.348143117116    -0.000572840359    15.994914619570
         O           -1.804244678029    -0.249670382884     0.007351359641    15.994914619570
         C            1.851577321971    -0.438103382884     0.004118359641    12.000000000000
         C            0.476008321971     0.156768617116    -0.006883640359    12.000000000000
         H            2.319417321971    -0.217950382884     0.966451359641     1.007825032230
         H            1.818520321971    -1.516382382884    -0.149391640359     1.007825032230
         H            2.443338321971     0.037837617116    -0.779535640359     1.007825032230
         H           -1.571070678029     0.715268617116     0.006846359641     1.007825032230

  Basis Set: AUG-CC-PVTZ
    Blend: AUG-CC-PVTZ
  Basis Set: (AUG-CC-PVTZ AUX)
    Blend: AUG-CC-PVTZ-JKFIT
	 Reference Energy          =    -302.6798507074840927 [Eh]
	 Singles Energy            =      -0.0000000000000000 [Eh]
	 Same-Spin Energy          =      -0.2837915789566473 [Eh]
	 Opposite-Spin Energy      =      -0.8664696152411100 [Eh]
	 Correlation Energy        =      -1.1502611941977574 [Eh]
	 Total Energy              =    -303.8301119016818461 [Eh]

	 ================> DF-SCS-MP2 Energies <==================
	-----------------------------------------------------------
	 SCS Same-Spin Scale       =       0.3333333333333333 [-]
	 SCS Opposite-Spin Scale   =       1.2000000000000000 [-]
	 SCS Same-Spin Energy      =      -0.0945971929855491 [Eh]
	 SCS Opposite-Spin Energy  =      -1.0397635382893320 [Eh]
	 SCS Correlation Energy    =      -1.1343607312748811 [Eh]
	 SCS Total Energy          =    -303.8142114387589459 [Eh]
	-----------------------------------------------------------

  Dipole Moment: [D]
     X:     2.3393      Y:    -0.5046      Z:     0.0145     Total:     2.3931

*** Psi4 exiting successfully. Buy a developer a beer!
