                               Psi4 1.3.2 release

  ==> Input File <==

--------------------------------------------------------------------------
#psi4
#
memory 32 gb

molecule  {
0 1
  O       -0.5892974    -0.7444052    -0.0074646
  O        0.1289150     1.3564030    -0.0013430
  O       -1.8621010    -0.2365450     0.0068560
  C        1.7937210    -0.4249780     0.0036230
  C        0.4181520     0.1698940    -0.0073790
  H        2.2615610    -0.2048250     0.9659560
  H        1.7606640    -1.5032570    -0.1498870
  H        2.3854820     0.0509630    -0.7800310
  H       -1.6289270     0.7283940     0.0063510
units angstrom
no_reorient  #important for SAPT in psi4, default
symmetry c1  #important for SAPT in psi4, default
}

set PROPERTIES_ORIGIN ["COM"]
properties('MP2/aug-cc-pvtz', properties = ['dipole'])
--------------------------------------------------------------------------

    Molecular point group: c1
  Charge       = 0
  Multiplicity = 1
  Basis Set: AUG-CC-PVTZ
    Blend: AUG-CC-PVTZ
  Basis Set: (AUG-CC-PVTZ AUX)
    Blend: AUG-CC-PVTZ-JKFIT

    Orbital Energies [Eh]
    ---------------------

    Doubly Occupied:

       1A    -20.667349     2A    -20.644064     3A    -20.573860
       4A    -11.414392     5A    -11.270089     6A     -1.563408
       7A     -1.409941     8A     -1.249851     9A     -1.037596
      10A     -0.849191    11A     -0.741091    12A     -0.706885
      13A     -0.703541    14A     -0.621445    15A     -0.617592
      16A     -0.589556    17A     -0.576581    18A     -0.535645
      19A     -0.487000    20A     -0.459241

  @DF-RHF Final Energy:  -302.68165578919633

   => Energetics <=

    Nuclear Repulsion Energy =            181.9078950072491523
    One-Electron Energy =                -775.7424660831489973
    Two-Electron Energy =                 291.1529152867034895
    Total Energy =                       -302.6816557891963271
  Basis Set: (AUG-CC-PVTZ AUX)
    Blend: AUG-CC-PVTZ-RI
    Molecular point group: c1

    Geometry (in Angstrom), charge = 0, multiplicity = 1:

       Center              X                  Y                   Z               Mass
    ------------   -----------------  -----------------  -----------------  -----------------
         O           -0.513138825084    -0.770825085478    -0.007023022429    15.994914619570
         O            0.205073574916     1.329983114522    -0.000901422429    15.994914619570
         O           -1.785942425084    -0.262964885478     0.007297577571    15.994914619570
         C            1.869879574916    -0.451397885478     0.004064577571    12.000000000000
         C            0.494310574916     0.143474114522    -0.006937422429    12.000000000000
         H            2.337719574916    -0.231244885478     0.966397577571     1.007825032230
         H            1.836822574916    -1.529676885478    -0.149445422429     1.007825032230
         H            2.461640574916     0.024543114522    -0.779589422429     1.007825032230
         H           -1.552768425084     0.701974114522     0.006792577571     1.007825032230

  Basis Set: AUG-CC-PVTZ
    Blend: AUG-CC-PVTZ
  Basis Set: (AUG-CC-PVTZ AUX)
    Blend: AUG-CC-PVTZ-JKFIT
	 Reference Energy          =    -302.6816557891963271 [Eh]
	 Singles Energy            =      -0.0000000000000000 [Eh]
	 Same-Spin Energy          =      -0.2828956207754574 [Eh]
	 Opposite-Spin Energy      =      -0.8610830896029720 [Eh]
	 Correlation Energy        =      -1.1439787103784294 [Eh]
	 Total Energy              =    -303.8256344995747327 [Eh]

	 ================> DF-SCS-MP2 Energies <==================
	-----------------------------------------------------------
	 SCS Same-Spin Scale       =       0.3333333333333333 [-]
	 SCS Opposite-Spin Scale   =       1.2000000000000000 [-]
	 SCS Same-Spin Energy      =      -0.0942985402584858 [Eh]
	 SCS Opposite-Spin Energy  =      -1.0332997075235664 [Eh]
	 SCS Correlation Energy    =      -1.1275982477820521 [Eh]
	 SCS Total Energy          =    -303.8092540369783592 [Eh]
	-----------------------------------------------------------

  Dipole Moment: [D]
     X:     2.4127      Y:    -0.6115      Z:     0.0149     Total:     2.4891

*** Psi4 exiting successfully. Buy a developer a beer!
