                               Psi4 1.3.2 release

  ==> Input File <==

--------------------------------------------------------------------------
#psi4
#
memory 32 gb

molecule  {
0 1
  O       -0.5230660    -0.8124530    -0.0079950
  O        0.1289150     1.3564030    -0.0013430
  O       -1.8621010    -0.2365450     0.0068560
  C        1.7937210    -0.4249780     0.0036230
  C        0.4623957     0.2633028     0.0087602
  H        2.2615610    -0.2048250     0.9659560
  H        1.7606640    -1.5032570    -0.1498870
  H        2.3854820     0.0509630    -0.7800310
  H       -1.6289270     0.7283940     0.0063510
units angstrom
no_reorient  #important for SAPT in psi4, default
symmetry c1  #important for SAPT in psi4, default
}

set PROPERTIES_ORIGIN ["COM"]
properties('MP2/aug-cc-pvtz', properties = ['dipole'])
--------------------------------------------------------------------------

    Molecular point group: c1
  Charge       = 0
  Multiplicity = 1
  Basis Set: AUG-CC-PVTZ
    Blend: AUG-CC-PVTZ
  Basis Set: (AUG-CC-PVTZ AUX)
    Blend: AUG-CC-PVTZ-JKFIT

    Orbital Energies [Eh]
    ---------------------

    Doubly Occupied:

       1A    -20.649921     2A    -20.630511     3A    -20.599427
       4A    -11.412846     5A    -11.269237     6A     -1.522164
       7A     -1.446321     8A     -1.228854     9A     -1.038592
      10A     -0.812423    11A     -0.756880    12A     -0.699934
      13A     -0.687463    14A     -0.623350    15A     -0.609668
      16A     -0.590699    17A     -0.561898    18A     -0.561108
      19A     -0.488724    20A     -0.462101

  @DF-RHF Final Energy:  -302.66898896627725

   => Energetics <=

    Nuclear Repulsion Energy =            180.2373843849647130
    One-Electron Energy =                -772.5085020993407170
    Two-Electron Energy =                 289.6021287480987780
    Total Energy =                       -302.6689889662772543
  Basis Set: (AUG-CC-PVTZ AUX)
    Blend: AUG-CC-PVTZ-RI
    Molecular point group: c1

    Geometry (in Angstrom), charge = 0, multiplicity = 1:

       Center              X                  Y                   Z               Mass
    ------------   -----------------  -----------------  -----------------  -----------------
         O           -0.467827876935    -0.839300253797    -0.009989575214    15.994914619570
         O            0.184153123065     1.329555746203    -0.003337575214    15.994914619570
         O           -1.806862876935    -0.263392253797     0.004861424786    15.994914619570
         C            1.848959123065    -0.451825253797     0.001628424786    12.000000000000
         C            0.517633823065     0.236455546203     0.006765624786    12.000000000000
         H            2.316799123065    -0.231672253797     0.963961424786     1.007825032230
         H            1.815902123065    -1.530104253797    -0.151881575214     1.007825032230
         H            2.440720123065     0.024115746203    -0.782025575214     1.007825032230
         H           -1.573688876935     0.701546746203     0.004356424786     1.007825032230

  Basis Set: AUG-CC-PVTZ
    Blend: AUG-CC-PVTZ
  Basis Set: (AUG-CC-PVTZ AUX)
    Blend: AUG-CC-PVTZ-JKFIT
	 Reference Energy          =    -302.6689889662772543 [Eh]
	 Singles Energy            =      -0.0000000000000000 [Eh]
	 Same-Spin Energy          =      -0.2833687985913635 [Eh]
	 Opposite-Spin Energy      =      -0.8659017783450371 [Eh]
	 Correlation Energy        =      -1.1492705769364007 [Eh]
	 Total Energy              =    -303.8182595432136281 [Eh]

	 ================> DF-SCS-MP2 Energies <==================
	-----------------------------------------------------------
	 SCS Same-Spin Scale       =       0.3333333333333333 [-]
	 SCS Opposite-Spin Scale   =       1.2000000000000000 [-]
	 SCS Same-Spin Energy      =      -0.0944562661971212 [Eh]
	 SCS Opposite-Spin Energy  =      -1.0390821340140446 [Eh]
	 SCS Correlation Energy    =      -1.1335384002111657 [Eh]
	 SCS Total Energy          =    -303.8025273664884480 [Eh]
	-----------------------------------------------------------

  Dipole Moment: [D]
     X:     2.9124      Y:     0.2108      Z:     0.0370     Total:     2.9202

*** Psi4 exiting successfully. Buy a developer a beer!
