                               Psi4 1.3.2 release

  ==> Input File <==

--------------------------------------------------------------------------
#psi4
#
memory 32 gb

molecule  {
0 1
  O       -0.5230660    -0.8124530    -0.0079950
  O        0.1289150     1.3564030    -0.0013430
  O       -1.8621010    -0.2365450     0.0068560
  C        1.7937210    -0.4249780     0.0036230
  C        0.4394489     0.2169895     0.0006888
  H        2.2615610    -0.2048250     0.9659560
  H        1.7606640    -1.5032570    -0.1498870
  H        2.3854820     0.0509630    -0.7800310
  H       -1.6289270     0.7283940     0.0063510
units angstrom
no_reorient  #important for SAPT in psi4, default
symmetry c1  #important for SAPT in psi4, default
}

set PROPERTIES_ORIGIN ["COM"]
properties('MP2/aug-cc-pvtz', properties = ['dipole'])
--------------------------------------------------------------------------

    Molecular point group: c1
  Charge       = 0
  Multiplicity = 1
  Basis Set: AUG-CC-PVTZ
    Blend: AUG-CC-PVTZ
  Basis Set: (AUG-CC-PVTZ AUX)
    Blend: AUG-CC-PVTZ-JKFIT

    Orbital Energies [Eh]
    ---------------------

    Doubly Occupied:

       1A    -20.663777     2A    -20.640209     3A    -20.588964
       4A    -11.414170     5A    -11.267215     6A     -1.520606
       7A     -1.431513     8A     -1.247558     9A     -1.036758
      10A     -0.822284    11A     -0.747589    12A     -0.696252
      13A     -0.689609    14A     -0.621190    15A     -0.611062
      16A     -0.594272    17A     -0.566170    18A     -0.547921
      19A     -0.491079    20A     -0.471525

  @DF-RHF Final Energy:  -302.67799610369195

   => Energetics <=

    Nuclear Repulsion Energy =            180.2826915254093763
    One-Electron Energy =                -772.5819286310745611
    Two-Electron Energy =                 289.6212410019732033
    Total Energy =                       -302.6779961036919531
  Basis Set: (AUG-CC-PVTZ AUX)
    Blend: AUG-CC-PVTZ-RI
    Molecular point group: c1

    Geometry (in Angstrom), charge = 0, multiplicity = 1:

       Center              X                  Y                   Z               Mass
    ------------   -----------------  -----------------  -----------------  -----------------
         O           -0.464205462698    -0.831989170888    -0.008715412617    15.994914619570
         O            0.187775537302     1.336866829112    -0.002063412617    15.994914619570
         O           -1.803240462698    -0.256081170888     0.006135587383    15.994914619570
         C            1.852581537302    -0.444514170888     0.002902587383    12.000000000000
         C            0.498309437302     0.197453329112    -0.000031612617    12.000000000000
         H            2.320421537302    -0.224361170888     0.965235587383     1.007825032230
         H            1.819524537302    -1.522793170888    -0.150607412617     1.007825032230
         H            2.444342537302     0.031426829112    -0.780751412617     1.007825032230
         H           -1.570066462698     0.708857829112     0.005630587383     1.007825032230

  Basis Set: AUG-CC-PVTZ
    Blend: AUG-CC-PVTZ
  Basis Set: (AUG-CC-PVTZ AUX)
    Blend: AUG-CC-PVTZ-JKFIT
	 Reference Energy          =    -302.6779961036919531 [Eh]
	 Singles Energy            =      -0.0000000000000000 [Eh]
	 Same-Spin Energy          =      -0.2835513624043300 [Eh]
	 Opposite-Spin Energy      =      -0.8660882815474229 [Eh]
	 Correlation Energy        =      -1.1496396439517529 [Eh]
	 Total Energy              =    -303.8276357476436829 [Eh]

	 ================> DF-SCS-MP2 Energies <==================
	-----------------------------------------------------------
	 SCS Same-Spin Scale       =       0.3333333333333333 [-]
	 SCS Opposite-Spin Scale   =       1.2000000000000000 [-]
	 SCS Same-Spin Energy      =      -0.0945171208014433 [Eh]
	 SCS Opposite-Spin Energy  =      -1.0393059378569074 [Eh]
	 SCS Correlation Energy    =      -1.1338230586583506 [Eh]
	 SCS Total Energy          =    -303.8118191623502753 [Eh]
	-----------------------------------------------------------

  Dipole Moment: [D]
     X:     2.6491      Y:    -0.1472      Z:     0.0250     Total:     2.6533

*** Psi4 exiting successfully. Buy a developer a beer!
