                               Psi4 1.3.2 release

  ==> Input File <==

--------------------------------------------------------------------------
#psi4
#
memory 32 gb

molecule  {
0 1
  O       -0.5230660    -0.8124530    -0.0079950
  O        0.1289150     1.3564030    -0.0013430
  O       -1.8621010    -0.2365450     0.0068560
  C        1.7937210    -0.4249780     0.0036230
  C        0.2797861     0.0254818    -0.0074696
  H        2.2615610    -0.2048250     0.9659560
  H        1.7606640    -1.5032570    -0.1498870
  H        2.3854820     0.0509630    -0.7800310
  H       -1.6289270     0.7283940     0.0063510
units angstrom
no_reorient  #important for SAPT in psi4, default
symmetry c1  #important for SAPT in psi4, default
}

set PROPERTIES_ORIGIN ["COM"]
properties('MP2/aug-cc-pvtz', properties = ['dipole'])
--------------------------------------------------------------------------

    Molecular point group: c1
  Charge       = 0
  Multiplicity = 1
  Basis Set: AUG-CC-PVTZ
    Blend: AUG-CC-PVTZ
  Basis Set: (AUG-CC-PVTZ AUX)
    Blend: AUG-CC-PVTZ-JKFIT

    Orbital Energies [Eh]
    ---------------------

    Doubly Occupied:

       1A    -20.723381     2A    -20.686646     3A    -20.541155
       4A    -11.409871     5A    -11.261952     6A     -1.631115
       7A     -1.354295     8A     -1.309561     9A     -1.007931
      10A     -0.891711    11A     -0.755721    12A     -0.745049
      13A     -0.708538    14A     -0.647464    15A     -0.600090
      16A     -0.587703    17A     -0.551104    18A     -0.540567
      19A     -0.459833    20A     -0.446721

  @DF-RHF Final Energy:  -302.62429839127157

   => Energetics <=

    Nuclear Repulsion Energy =            181.8219428689339736
    One-Electron Energy =                -775.1716672398456467
    Two-Electron Energy =                 290.7254259796400788
    Total Energy =                       -302.6242983912715658
  Basis Set: (AUG-CC-PVTZ AUX)
    Blend: AUG-CC-PVTZ-RI
    Molecular point group: c1

    Geometry (in Angstrom), charge = 0, multiplicity = 1:

       Center              X                  Y                   Z               Mass
    ------------   -----------------  -----------------  -----------------  -----------------
         O           -0.439000867727    -0.801757495054    -0.007427516078    15.994914619570
         O            0.212980132273     1.367098504946    -0.000775516078    15.994914619570
         O           -1.778035867727    -0.225849495054     0.007423483922    15.994914619570
         C            1.877786132273    -0.414282495054     0.004190483922    12.000000000000
         C            0.363851232273     0.036177304946    -0.006902116078    12.000000000000
         H            2.345626132273    -0.194129495054     0.966523483922     1.007825032230
         H            1.844729132273    -1.492561495054    -0.149319516078     1.007825032230
         H            2.469547132273     0.061658504946    -0.779463516078     1.007825032230
         H           -1.544861867727     0.739089504946     0.006918483922     1.007825032230

  Basis Set: AUG-CC-PVTZ
    Blend: AUG-CC-PVTZ
  Basis Set: (AUG-CC-PVTZ AUX)
    Blend: AUG-CC-PVTZ-JKFIT
	 Reference Energy          =    -302.6242983912715658 [Eh]
	 Singles Energy            =      -0.0000000000000000 [Eh]
	 Same-Spin Energy          =      -0.2841417677628677 [Eh]
	 Opposite-Spin Energy      =      -0.8659044970910593 [Eh]
	 Correlation Energy        =      -1.1500462648539269 [Eh]
	 Total Energy              =    -303.7743446561254927 [Eh]

	 ================> DF-SCS-MP2 Energies <==================
	-----------------------------------------------------------
	 SCS Same-Spin Scale       =       0.3333333333333333 [-]
	 SCS Opposite-Spin Scale   =       1.2000000000000000 [-]
	 SCS Same-Spin Energy      =      -0.0947139225876226 [Eh]
	 SCS Opposite-Spin Energy  =      -1.0390853965092712 [Eh]
	 SCS Correlation Energy    =      -1.1337993190968938 [Eh]
	 SCS Total Energy          =    -303.7580977103684745 [Eh]
	-----------------------------------------------------------

  Dipole Moment: [D]
     X:     1.4066      Y:    -1.6255      Z:     0.0121     Total:     2.1496

*** Psi4 exiting successfully. Buy a developer a beer!
