                               Psi4 1.3.2 release

  ==> Input File <==

--------------------------------------------------------------------------
#psi4
#
memory 32 gb

molecule  {
0 1
  O       -0.5057786    -0.8287296    -0.0081272
  O        0.1289150     1.3564030    -0.0013430
  O       -1.8621010    -0.2365450     0.0068560
  C        1.7937210    -0.4249780     0.0036230
  C        0.4181520     0.1698940    -0.0073790
  H        2.2615610    -0.2048250     0.9659560
  H        1.7606640    -1.5032570    -0.1498870
  H        2.3854820     0.0509630    -0.7800310
  H       -1.6289270     0.7283940     0.0063510
units angstrom
no_reorient  #important for SAPT in psi4, default
symmetry c1  #important for SAPT in psi4, default
}

set PROPERTIES_ORIGIN ["COM"]
properties('MP2/aug-cc-pvtz', properties = ['dipole'])
--------------------------------------------------------------------------

    Molecular point group: c1
  Charge       = 0
  Multiplicity = 1
  Basis Set: AUG-CC-PVTZ
    Blend: AUG-CC-PVTZ
  Basis Set: (AUG-CC-PVTZ AUX)
    Blend: AUG-CC-PVTZ-JKFIT

    Orbital Energies [Eh]
    ---------------------

    Doubly Occupied:

       1A    -20.678664     2A    -20.651394     3A    -20.579253
       4A    -11.415766     5A    -11.265015     6A     -1.525176
       7A     -1.404796     8A     -1.270252     9A     -1.034851
      10A     -0.830576    11A     -0.738541    12A     -0.695569
      13A     -0.694324    14A     -0.619006    15A     -0.609264
      16A     -0.599268    17A     -0.566906    18A     -0.536389
      19A     -0.487420    20A     -0.481769

  @DF-RHF Final Energy:  -302.67736318916371

   => Energetics <=

    Nuclear Repulsion Energy =            180.0071159098623070
    One-Electron Energy =                -772.0005595277621069
    Two-Electron Energy =                 289.3160804287361429
    Total Energy =                       -302.6773631891637137
  Basis Set: (AUG-CC-PVTZ AUX)
    Blend: AUG-CC-PVTZ-RI
    Molecular point group: c1

    Geometry (in Angstrom), charge = 0, multiplicity = 1:

       Center              X                  Y                   Z               Mass
    ------------   -----------------  -----------------  -----------------  -----------------
         O           -0.447193631984    -0.837406368267    -0.007546201461    15.994914619570
         O            0.187499968016     1.347726231733    -0.000762001461    15.994914619570
         O           -1.803516031984    -0.245221768267     0.007436998539    15.994914619570
         C            1.852305968016    -0.433654768267     0.004203998539    12.000000000000
         C            0.476736968016     0.161217231733    -0.006798001461    12.000000000000
         H            2.320145968016    -0.213501768267     0.966536998539     1.007825032230
         H            1.819248968016    -1.511933768267    -0.149306001461     1.007825032230
         H            2.444066968016     0.042286231733    -0.779450001461     1.007825032230
         H           -1.570342031984     0.719717231733     0.006931998539     1.007825032230

  Basis Set: AUG-CC-PVTZ
    Blend: AUG-CC-PVTZ
  Basis Set: (AUG-CC-PVTZ AUX)
    Blend: AUG-CC-PVTZ-JKFIT
	 Reference Energy          =    -302.6773631891637137 [Eh]
	 Singles Energy            =      -0.0000000000000000 [Eh]
	 Same-Spin Energy          =      -0.2841645469391599 [Eh]
	 Opposite-Spin Energy      =      -0.8679907926795642 [Eh]
	 Correlation Energy        =      -1.1521553396187243 [Eh]
	 Total Energy              =    -303.8295185287824438 [Eh]

	 ================> DF-SCS-MP2 Energies <==================
	-----------------------------------------------------------
	 SCS Same-Spin Scale       =       0.3333333333333333 [-]
	 SCS Opposite-Spin Scale   =       1.2000000000000000 [-]
	 SCS Same-Spin Energy      =      -0.0947215156463866 [Eh]
	 SCS Opposite-Spin Energy  =      -1.0415889512154770 [Eh]
	 SCS Correlation Energy    =      -1.1363104668618638 [Eh]
	 SCS Total Energy          =    -303.8136736560255713 [Eh]
	-----------------------------------------------------------

  Dipole Moment: [D]
     X:     2.4045      Y:    -0.4764      Z:     0.0149     Total:     2.4513

*** Psi4 exiting successfully. Buy a developer a beer!
