                               Psi4 1.4a3.dev225

  ==> Input File <==

--------------------------------------------------------------------------
#psi4
#
memory 32 gb

molecule  {
0 1
  O       -0.5230660    -0.8124530    -0.0079950
  O        0.1289150     1.3564030    -0.0013430
  O       -1.8621010    -0.2365450     0.0068560
  C        1.7937210    -0.4249780     0.0036230
  C        0.4181520     0.1698940    -0.0073790
  H        2.2615610    -0.2048250     0.9659560
  H        1.7606640    -1.5032570    -0.1498870
  H        2.3854820     0.0509630    -0.7800310
  H       -1.6171827     0.7769951     0.0063256
units angstrom
no_reorient  #important for SAPT in psi4, default
symmetry c1  #important for SAPT in psi4, default
}

set PROPERTIES_ORIGIN ["COM"]
properties('MP2/aug-cc-pvtz', properties = ['dipole'])
--------------------------------------------------------------------------

    Molecular point group: c1
  Charge       = 0
  Multiplicity = 1
  Basis Set: AUG-CC-PVTZ
    Blend: AUG-CC-PVTZ
  Basis Set: (AUG-CC-PVTZ AUX)
    Blend: AUG-CC-PVTZ-JKFIT

    Orbital Energies [Eh]
    ---------------------

    Doubly Occupied:

       1A    -20.675014     2A    -20.650602     3A    -20.579517
       4A    -11.415635     5A    -11.266008     6A     -1.527553
       7A     -1.405456     8A     -1.257044     9A     -1.034842
      10A     -0.828665    11A     -0.738497    12A     -0.696324
      13A     -0.695005    14A     -0.613762    15A     -0.610053
      16A     -0.590838    17A     -0.569847    18A     -0.536016
      19A     -0.488411    20A     -0.475854

  @DF-RHF Final Energy:  -302.67508261159236

   => Energetics <=

    Nuclear Repulsion Energy =            180.1497458129946097
    One-Electron Energy =                -772.3397652045575796
    Two-Electron Energy =                 289.5149367799705828
    Total Energy =                       -302.6750826115923587
  Basis Set: (AUG-CC-PVTZ AUX)
    Blend: AUG-CC-PVTZ-RI
    Molecular point group: c1

    Geometry (in Angstrom), charge = 0, multiplicity = 1:

       Center              X                  Y                   Z               Mass
    ------------   -----------------  -----------------  -----------------  -----------------
         O           -0.460999210600    -0.825198964929    -0.007441481567    15.994914619570
         O            0.190981789400     1.343657035071    -0.000789481567    15.994914619570
         O           -1.800034210600    -0.249290964929     0.007409518433    15.994914619570
         C            1.855787789400    -0.437723964929     0.004176518433    12.000000000000
         C            0.480218789400     0.157148035071    -0.006825481567    12.000000000000
         H            2.323627789400    -0.217570964929     0.966509518433     1.007825032230
         H            1.822730789400    -1.516002964929    -0.149333481567     1.007825032230
         H            2.447548789400     0.038217035071    -0.779477481567     1.007825032230
         H           -1.555115910600     0.764249135071     0.006879118433     1.007825032230

  Basis Set: AUG-CC-PVTZ
    Blend: AUG-CC-PVTZ
  Basis Set: (AUG-CC-PVTZ AUX)
    Blend: AUG-CC-PVTZ-JKFIT
	 Reference Energy          =    -302.6750826115923587 [Eh]
	 Singles Energy            =      -0.0000000000000000 [Eh]
	 Same-Spin Energy          =      -0.2846963634095384 [Eh]
	 Opposite-Spin Energy      =      -0.8680921086549506 [Eh]
	 Correlation Energy        =      -1.1527884720644890 [Eh]
	 Total Energy              =    -303.8278710836568735 [Eh]

	 ================> DF-SCS-MP2 Energies <==================
	-----------------------------------------------------------
	 SCS Same-Spin Scale       =       0.3333333333333333 [-]
	 SCS Opposite-Spin Scale   =       1.2000000000000000 [-]
	 SCS Same-Spin Energy      =      -0.0948987878031795 [Eh]
	 SCS Opposite-Spin Energy  =      -1.0417105303859406 [Eh]
	 SCS Correlation Energy    =      -1.1366093181891201 [Eh]
	 SCS Total Energy          =    -303.8116919297814889 [Eh]
	-----------------------------------------------------------

  Dipole Moment: [D]
     X:     2.4469      Y:    -0.4385      Z:     0.0149     Total:     2.4859

*** Psi4 exiting successfully. Buy a developer a beer!
