                               Psi4 1.3.2 release

  ==> Input File <==

--------------------------------------------------------------------------
#psi4
#
memory 32 gb

molecule  {
0 1
  O       -0.5230660    -0.8124530    -0.0079950
  O        0.1289150     1.3564030    -0.0013430
  O       -1.8621010    -0.2365450     0.0068560
  C        1.7937210    -0.4249780     0.0036230
  C        0.4869646     0.3087776     0.0168253
  H        2.2615610    -0.2048250     0.9659560
  H        1.7606640    -1.5032570    -0.1498870
  H        2.3854820     0.0509630    -0.7800310
  H       -1.6289270     0.7283940     0.0063510
units angstrom
no_reorient  #important for SAPT in psi4, default
symmetry c1  #important for SAPT in psi4, default
}

set PROPERTIES_ORIGIN ["COM"]
properties('MP2/aug-cc-pvtz', properties = ['dipole'])
--------------------------------------------------------------------------

    Molecular point group: c1
  Charge       = 0
  Multiplicity = 1
  Basis Set: AUG-CC-PVTZ
    Blend: AUG-CC-PVTZ
  Basis Set: (AUG-CC-PVTZ AUX)
    Blend: AUG-CC-PVTZ-JKFIT

    Orbital Energies [Eh]
    ---------------------

    Doubly Occupied:

       1A    -20.634741     2A    -20.620657     3A    -20.609918
       4A    -11.411796     5A    -11.272257     6A     -1.540073
       7A     -1.445497     8A     -1.210454     9A     -1.040985
      10A     -0.805439    11A     -0.765994    12A     -0.706873
      13A     -0.691290    14A     -0.623258    15A     -0.605884
      16A     -0.589202    17A     -0.573143    18A     -0.557906
      19A     -0.480531    20A     -0.450941

  @DF-RHF Final Energy:  -302.65320668524987

   => Energetics <=

    Nuclear Repulsion Energy =            180.2174573451490289
    One-Electron Energy =                -772.4676521967114695
    Two-Electron Energy =                 289.5969881663125989
    Total Energy =                       -302.6532066852498701
  Basis Set: (AUG-CC-PVTZ AUX)
    Blend: AUG-CC-PVTZ-RI
    Molecular point group: c1

    Geometry (in Angstrom), charge = 0, multiplicity = 1:

       Center              X                  Y                   Z               Mass
    ------------   -----------------  -----------------  -----------------  -----------------
         O           -0.471706358168    -0.846478969912    -0.011262743284    15.994914619570
         O            0.180274641832     1.322377030088    -0.004610743284    15.994914619570
         O           -1.810741358168    -0.270570969912     0.003588256716    15.994914619570
         C            1.845080641832    -0.459003969912     0.000355256716    12.000000000000
         C            0.538324241832     0.274751630088     0.013557556716    12.000000000000
         H            2.312920641832    -0.238850969912     0.962688256716     1.007825032230
         H            1.812023641832    -1.537282969912    -0.153154743284     1.007825032230
         H            2.436841641832     0.016937030088    -0.783298743284     1.007825032230
         H           -1.577567358168     0.694368030088     0.003083256716     1.007825032230

  Basis Set: AUG-CC-PVTZ
    Blend: AUG-CC-PVTZ
  Basis Set: (AUG-CC-PVTZ AUX)
    Blend: AUG-CC-PVTZ-JKFIT
	 Reference Energy          =    -302.6532066852498701 [Eh]
	 Singles Energy            =      -0.0000000000000000 [Eh]
	 Same-Spin Energy          =      -0.2832693106153115 [Eh]
	 Opposite-Spin Energy      =      -0.8658236650466553 [Eh]
	 Correlation Energy        =      -1.1490929756619668 [Eh]
	 Total Energy              =    -303.8022996609118422 [Eh]

	 ================> DF-SCS-MP2 Energies <==================
	-----------------------------------------------------------
	 SCS Same-Spin Scale       =       0.3333333333333333 [-]
	 SCS Opposite-Spin Scale   =       1.2000000000000000 [-]
	 SCS Same-Spin Energy      =      -0.0944231035384372 [Eh]
	 SCS Opposite-Spin Energy  =      -1.0389883980559864 [Eh]
	 SCS Correlation Energy    =      -1.1334115015944235 [Eh]
	 SCS Total Energy          =    -303.7866181868442936 [Eh]
	-----------------------------------------------------------

  Dipole Moment: [D]
     X:     3.1953      Y:     0.5736      Z:     0.0505     Total:     3.2468

*** Psi4 exiting successfully. Buy a developer a beer!
