                               Psi4 1.3.2 release

  ==> Input File <==

--------------------------------------------------------------------------
#psi4
#
memory 32 gb

molecule  {
0 1
  O       -0.5400667    -0.7958772    -0.0078626
  O        0.1289150     1.3564030    -0.0013430
  O       -1.8621010    -0.2365450     0.0068560
  C        1.7937210    -0.4249780     0.0036230
  C        0.4181520     0.1698940    -0.0073790
  H        2.2615610    -0.2048250     0.9659560
  H        1.7606640    -1.5032570    -0.1498870
  H        2.3854820     0.0509630    -0.7800310
  H       -1.6289270     0.7283940     0.0063510
units angstrom
no_reorient  #important for SAPT in psi4, default
symmetry c1  #important for SAPT in psi4, default
}

set PROPERTIES_ORIGIN ["COM"]
properties('MP2/aug-cc-pvtz', properties = ['dipole'])
--------------------------------------------------------------------------

    Molecular point group: c1
  Charge       = 0
  Multiplicity = 1
  Basis Set: AUG-CC-PVTZ
    Blend: AUG-CC-PVTZ
  Basis Set: (AUG-CC-PVTZ AUX)
    Blend: AUG-CC-PVTZ-JKFIT

    Orbital Energies [Eh]
    ---------------------

    Doubly Occupied:

       1A    -20.674333     2A    -20.648360     3A    -20.577229
       4A    -11.415120     5A    -11.267032     6A     -1.538581
       7A     -1.406901     8A     -1.262285     9A     -1.036008
      10A     -0.837365    11A     -0.739451    12A     -0.698755
      13A     -0.698318    14A     -0.618680    15A     -0.612627
      16A     -0.592212    17A     -0.576150    18A     -0.536021
      19A     -0.487562    20A     -0.473343

  @DF-RHF Final Energy:  -302.68187813901056

   => Energetics <=

    Nuclear Repulsion Energy =            180.7299787273258858
    One-Electron Energy =                -773.4310526349041766
    Two-Electron Energy =                 290.0191957685677835
    Total Energy =                       -302.6818781390105642
  Basis Set: (AUG-CC-PVTZ AUX)
    Blend: AUG-CC-PVTZ-RI
    Molecular point group: c1

    Geometry (in Angstrom), charge = 0, multiplicity = 1:

       Center              X                  Y                   Z               Mass
    ------------   -----------------  -----------------  -----------------  -----------------
         O           -0.474267001998    -0.811466605462    -0.007337277265    15.994914619570
         O            0.194714698002     1.340813594538    -0.000817677265    15.994914619570
         O           -1.796301301998    -0.252134405462     0.007381322735    15.994914619570
         C            1.859520698002    -0.440567405462     0.004148322735    12.000000000000
         C            0.483951698002     0.154304594538    -0.006853677265    12.000000000000
         H            2.327360698002    -0.220414405462     0.966481322735     1.007825032230
         H            1.826463698002    -1.518846405462    -0.149361677265     1.007825032230
         H            2.451281698002     0.035373594538    -0.779505677265     1.007825032230
         H           -1.563127301998     0.712804594538     0.006876322735     1.007825032230

  Basis Set: AUG-CC-PVTZ
    Blend: AUG-CC-PVTZ
  Basis Set: (AUG-CC-PVTZ AUX)
    Blend: AUG-CC-PVTZ-JKFIT
	 Reference Energy          =    -302.6818781390105642 [Eh]
	 Singles Energy            =      -0.0000000000000000 [Eh]
	 Same-Spin Energy          =      -0.2835385999172294 [Eh]
	 Opposite-Spin Energy      =      -0.8649254774877675 [Eh]
	 Correlation Energy        =      -1.1484640774049968 [Eh]
	 Total Energy              =    -303.8303422164155450 [Eh]

	 ================> DF-SCS-MP2 Energies <==================
	-----------------------------------------------------------
	 SCS Same-Spin Scale       =       0.3333333333333333 [-]
	 SCS Opposite-Spin Scale   =       1.2000000000000000 [-]
	 SCS Same-Spin Energy      =      -0.0945128666390765 [Eh]
	 SCS Opposite-Spin Energy  =      -1.0379105729853209 [Eh]
	 SCS Correlation Energy    =      -1.1324234396243973 [Eh]
	 SCS Total Energy          =    -303.8143015786349679 [Eh]
	-----------------------------------------------------------

  Dipole Moment: [D]
     X:     2.4090      Y:    -0.5237      Z:     0.0149     Total:     2.4653

*** Psi4 exiting successfully. Buy a developer a beer!
