                               Psi4 1.3.2 release

  ==> Input File <==

--------------------------------------------------------------------------
#psi4
#
memory 32 gb

molecule  {
0 1
  O       -0.5230660    -0.8124530    -0.0079950
  O        0.1289150     1.3564030    -0.0013430
  O       -1.8186601    -0.1445393     0.0072563
  C        1.7937210    -0.4249780     0.0036230
  C        0.4181520     0.1698940    -0.0073790
  H        2.2615610    -0.2048250     0.9659560
  H        1.7606640    -1.5032570    -0.1498870
  H        2.3854820     0.0509630    -0.7800310
  H       -1.6289270     0.7283940     0.0063510
units angstrom
no_reorient  #important for SAPT in psi4, default
symmetry c1  #important for SAPT in psi4, default
}

set PROPERTIES_ORIGIN ["COM"]
properties('MP2/aug-cc-pvtz', properties = ['dipole'])
--------------------------------------------------------------------------

    Molecular point group: c1
  Charge       = 0
  Multiplicity = 1
  Basis Set: AUG-CC-PVTZ
    Blend: AUG-CC-PVTZ
  Basis Set: (AUG-CC-PVTZ AUX)
    Blend: AUG-CC-PVTZ-JKFIT

    Orbital Energies [Eh]
    ---------------------

    Doubly Occupied:

       1A    -20.684049     2A    -20.638259     3A    -20.576458
       4A    -11.414857     5A    -11.265783     6A     -1.542421
       7A     -1.405656     8A     -1.287210     9A     -1.037051
      10A     -0.846496    11A     -0.742161    12A     -0.700281
      13A     -0.699765    14A     -0.626753    15A     -0.611386
      16A     -0.605408    17A     -0.569435    18A     -0.534072
      19A     -0.486849    20A     -0.482115

  @DF-RHF Final Energy:  -302.67507519280099

   => Energetics <=

    Nuclear Repulsion Energy =            181.7021399617791246
    One-Electron Energy =                -775.2415031958774989
    Two-Electron Energy =                 290.8642880412973568
    Total Energy =                       -302.6750751928009890
  Basis Set: (AUG-CC-PVTZ AUX)
    Blend: AUG-CC-PVTZ-RI
    Molecular point group: c1

    Geometry (in Angstrom), charge = 0, multiplicity = 1:

       Center              X                  Y                   Z               Mass
    ------------   -----------------  -----------------  -----------------  -----------------
         O           -0.469984120247    -0.843913986604    -0.007526047439    15.994914619570
         O            0.181996879753     1.324942013396    -0.000874047439    15.994914619570
         O           -1.765578220247    -0.176000286604     0.007725252561    15.994914619570
         C            1.846802879753    -0.456438986604     0.004091952561    12.000000000000
         C            0.471233879753     0.138433013396    -0.006910047439    12.000000000000
         H            2.314642879753    -0.236285986604     0.966424952561     1.007825032230
         H            1.813745879753    -1.534717986604    -0.149418047439     1.007825032230
         H            2.438563879753     0.019502013396    -0.779562047439     1.007825032230
         H           -1.575845120247     0.696933013396     0.006819952561     1.007825032230

  Basis Set: AUG-CC-PVTZ
    Blend: AUG-CC-PVTZ
  Basis Set: (AUG-CC-PVTZ AUX)
    Blend: AUG-CC-PVTZ-JKFIT
	 Reference Energy          =    -302.6750751928009890 [Eh]
	 Singles Energy            =      -0.0000000000000000 [Eh]
	 Same-Spin Energy          =      -0.2823848490525496 [Eh]
	 Opposite-Spin Energy      =      -0.8634363181143407 [Eh]
	 Correlation Energy        =      -1.1458211671668903 [Eh]
	 Total Energy              =    -303.8208963599678896 [Eh]

	 ================> DF-SCS-MP2 Energies <==================
	-----------------------------------------------------------
	 SCS Same-Spin Scale       =       0.3333333333333333 [-]
	 SCS Opposite-Spin Scale   =       1.2000000000000000 [-]
	 SCS Same-Spin Energy      =      -0.0941282830175165 [Eh]
	 SCS Opposite-Spin Energy  =      -1.0361235817372088 [Eh]
	 SCS Correlation Energy    =      -1.1302518647547253 [Eh]
	 SCS Total Energy          =    -303.8053270575557008 [Eh]
	-----------------------------------------------------------

  Dipole Moment: [D]
     X:     2.3850      Y:    -0.5974      Z:     0.0136     Total:     2.4587

*** Psi4 exiting successfully. Buy a developer a beer!
