                               Psi4 1.3.2 release

  ==> Input File <==

--------------------------------------------------------------------------
#psi4
#
memory 32 gb

molecule  {
0 1
  O       -0.5230660    -0.8124530    -0.0079950
  O        0.1289150     1.3564030    -0.0013430
  O       -1.6783828    -0.3155607     0.0048184
  C        1.7937210    -0.4249780     0.0036230
  C        0.4181520     0.1698940    -0.0073790
  H        2.2615610    -0.2048250     0.9659560
  H        1.7606640    -1.5032570    -0.1498870
  H        2.3854820     0.0509630    -0.7800310
  H       -1.6289270     0.7283940     0.0063510
units angstrom
no_reorient  #important for SAPT in psi4, default
symmetry c1  #important for SAPT in psi4, default
}

set PROPERTIES_ORIGIN ["COM"]
properties('MP2/aug-cc-pvtz', properties = ['dipole'])
--------------------------------------------------------------------------

    Molecular point group: c1
  Charge       = 0
  Multiplicity = 1
  Basis Set: AUG-CC-PVTZ
    Blend: AUG-CC-PVTZ
  Basis Set: (AUG-CC-PVTZ AUX)
    Blend: AUG-CC-PVTZ-JKFIT

    Orbital Energies [Eh]
    ---------------------

    Doubly Occupied:

       1A    -20.676927     2A    -20.624698     3A    -20.578692
       4A    -11.410206     5A    -11.262674     6A     -1.626890
       7A     -1.415689     8A     -1.226368     9A     -1.029201
      10A     -0.878813    11A     -0.739227    12A     -0.735201
      13A     -0.724553    14A     -0.621147    15A     -0.617745
      16A     -0.594674    17A     -0.546923    18A     -0.533230
      19A     -0.489393    20A     -0.435859

  @DF-RHF Final Energy:  -302.66213292578493

   => Energetics <=

    Nuclear Repulsion Energy =            185.6712823593667849
    One-Electron Energy =                -783.1306091110964189
    Two-Electron Energy =                 294.7971938259446461
    Total Energy =                       -302.6621329257849311
  Basis Set: (AUG-CC-PVTZ AUX)
    Blend: AUG-CC-PVTZ-RI
    Molecular point group: c1

    Geometry (in Angstrom), charge = 0, multiplicity = 1:

       Center              X                  Y                   Z               Mass
    ------------   -----------------  -----------------  -----------------  -----------------
         O           -0.499500565972    -0.807928521594    -0.007013076752    15.994914619570
         O            0.152480434028     1.360927478406    -0.000361076752    15.994914619570
         O           -1.654817365972    -0.311036221594     0.005800323248    15.994914619570
         C            1.817286434028    -0.420453521594     0.004604923248    12.000000000000
         C            0.441717434028     0.174418478406    -0.006397076752    12.000000000000
         H            2.285126434028    -0.200300521594     0.966937923248     1.007825032230
         H            1.784229434028    -1.498732521594    -0.148905076752     1.007825032230
         H            2.409047434028     0.055487478406    -0.779049076752     1.007825032230
         H           -1.605361565972     0.732918478406     0.007332923248     1.007825032230

  Basis Set: AUG-CC-PVTZ
    Blend: AUG-CC-PVTZ
  Basis Set: (AUG-CC-PVTZ AUX)
    Blend: AUG-CC-PVTZ-JKFIT
	 Reference Energy          =    -302.6621329257849311 [Eh]
	 Singles Energy            =      -0.0000000000000000 [Eh]
	 Same-Spin Energy          =      -0.2837760105109998 [Eh]
	 Opposite-Spin Energy      =      -0.8585105120006065 [Eh]
	 Correlation Energy        =      -1.1422865225116063 [Eh]
	 Total Energy              =    -303.8044194482965281 [Eh]

	 ================> DF-SCS-MP2 Energies <==================
	-----------------------------------------------------------
	 SCS Same-Spin Scale       =       0.3333333333333333 [-]
	 SCS Opposite-Spin Scale   =       1.2000000000000000 [-]
	 SCS Same-Spin Energy      =      -0.0945920035036666 [Eh]
	 SCS Opposite-Spin Energy  =      -1.0302126144007278 [Eh]
	 SCS Correlation Energy    =      -1.1248046179043945 [Eh]
	 SCS Total Energy          =    -303.7869375436893051 [Eh]
	-----------------------------------------------------------

  Dipole Moment: [D]
     X:     2.0019      Y:    -0.5119      Z:     0.0156     Total:     2.0664

*** Psi4 exiting successfully. Buy a developer a beer!
