                               Psi4 1.3.2 release

  ==> Input File <==

--------------------------------------------------------------------------
#psi4
#
memory 32 gb

molecule  {
0 1
  O       -0.5230660    -0.8124530    -0.0079950
  O        0.1082528     1.3511761    -0.0016197
  O       -1.8621010    -0.2365450     0.0068560
  C        1.7937210    -0.4249780     0.0036230
  C        0.4181520     0.1698940    -0.0073790
  H        2.2615610    -0.2048250     0.9659560
  H        1.7606640    -1.5032570    -0.1498870
  H        2.3854820     0.0509630    -0.7800310
  H       -1.6289270     0.7283940     0.0063510
units angstrom
no_reorient  #important for SAPT in psi4, default
symmetry c1  #important for SAPT in psi4, default
}

set PROPERTIES_ORIGIN ["COM"]
properties('MP2/aug-cc-pvtz', properties = ['dipole'])
--------------------------------------------------------------------------

    Molecular point group: c1
  Charge       = 0
  Multiplicity = 1
  Basis Set: AUG-CC-PVTZ
    Blend: AUG-CC-PVTZ
  Basis Set: (AUG-CC-PVTZ AUX)
    Blend: AUG-CC-PVTZ-JKFIT

    Orbital Energies [Eh]
    ---------------------

    Doubly Occupied:

       1A    -20.675043     2A    -20.648371     3A    -20.578055
       4A    -11.415506     5A    -11.267202     6A     -1.531213
       7A     -1.405071     8A     -1.265257     9A     -1.036407
      10A     -0.832893    11A     -0.739876    12A     -0.697029
      13A     -0.695803    14A     -0.618330    15A     -0.611005
      16A     -0.594871    17A     -0.571629    18A     -0.536118
      19A     -0.488154    20A     -0.476709

  @DF-RHF Final Energy:  -302.68002220525307

   => Energetics <=

    Nuclear Repulsion Energy =            180.5007826957428563
    One-Electron Energy =                -772.9925229621410381
    Two-Electron Energy =                 289.8117180611451431
    Total Energy =                       -302.6800222052530671
  Basis Set: (AUG-CC-PVTZ AUX)
    Blend: AUG-CC-PVTZ-RI
    Molecular point group: c1

    Geometry (in Angstrom), charge = 0, multiplicity = 1:

       Center              X                  Y                   Z               Mass
    ------------   -----------------  -----------------  -----------------  -----------------
         O           -0.456495867537    -0.823454790707    -0.007383596496    15.994914619570
         O            0.174822932463     1.340174309293    -0.001008296496    15.994914619570
         O           -1.795530867537    -0.247546790707     0.007467403504    15.994914619570
         C            1.860291132463    -0.435979790707     0.004234403504    12.000000000000
         C            0.484722132463     0.158892209293    -0.006767596496    12.000000000000
         H            2.328131132463    -0.215826790707     0.966567403504     1.007825032230
         H            1.827234132463    -1.514258790707    -0.149275596496     1.007825032230
         H            2.452052132463     0.039961209293    -0.779419596496     1.007825032230
         H           -1.562356867537     0.717392209293     0.006962403504     1.007825032230

  Basis Set: AUG-CC-PVTZ
    Blend: AUG-CC-PVTZ
  Basis Set: (AUG-CC-PVTZ AUX)
    Blend: AUG-CC-PVTZ-JKFIT
	 Reference Energy          =    -302.6800222052530671 [Eh]
	 Singles Energy            =      -0.0000000000000000 [Eh]
	 Same-Spin Energy          =      -0.2838837419902765 [Eh]
	 Opposite-Spin Energy      =      -0.8663669083911203 [Eh]
	 Correlation Energy        =      -1.1502506503813967 [Eh]
	 Total Energy              =    -303.8302728556344618 [Eh]

	 ================> DF-SCS-MP2 Energies <==================
	-----------------------------------------------------------
	 SCS Same-Spin Scale       =       0.3333333333333333 [-]
	 SCS Opposite-Spin Scale   =       1.2000000000000000 [-]
	 SCS Same-Spin Energy      =      -0.0946279139967588 [Eh]
	 SCS Opposite-Spin Energy  =      -1.0396402900693442 [Eh]
	 SCS Correlation Energy    =      -1.1342682040661030 [Eh]
	 SCS Total Energy          =    -303.8142904093191419 [Eh]
	-----------------------------------------------------------

  Dipole Moment: [D]
     X:     2.4743      Y:    -0.4924      Z:     0.0153     Total:     2.5228

*** Psi4 exiting successfully. Buy a developer a beer!
