                               Psi4 1.4a3.dev225

  ==> Input File <==

--------------------------------------------------------------------------
#psi4
#
memory 32 gb

molecule  {
0 1
  O       -0.5230660    -0.8124530    -0.0079950
  O        0.1289150     1.3564030    -0.0013430
  O       -1.8621010    -0.2365450     0.0068560
  C        1.7937210    -0.4249780     0.0036230
  C        0.4228887     0.1504632    -0.0074778
  H        2.2615610    -0.2048250     0.9659560
  H        1.7606640    -1.5032570    -0.1498870
  H        2.3854820     0.0509630    -0.7800310
  H       -1.6289270     0.7283940     0.0063510
units angstrom
no_reorient  #important for SAPT in psi4, default
symmetry c1  #important for SAPT in psi4, default
}

set PROPERTIES_ORIGIN ["COM"]
properties('MP2/aug-cc-pvtz', properties = ['dipole'])
--------------------------------------------------------------------------

    Molecular point group: c1
  Charge       = 0
  Multiplicity = 1
  Basis Set: AUG-CC-PVTZ
    Blend: AUG-CC-PVTZ
  Basis Set: (AUG-CC-PVTZ AUX)
    Blend: AUG-CC-PVTZ-JKFIT

    Orbital Energies [Eh]
    ---------------------

    Doubly Occupied:

       1A    -20.679303     2A    -20.652548     3A    -20.574071
       4A    -11.416699     5A    -11.266457     6A     -1.533981
       7A     -1.392596     8A     -1.270526     9A     -1.039489
      10A     -0.836437    11A     -0.736499    12A     -0.697905
      13A     -0.696855    14A     -0.619307    15A     -0.612031
      16A     -0.592786    17A     -0.574829    18A     -0.531552
      19A     -0.485704    20A     -0.476907

  @DF-RHF Final Energy:  -302.67802334615874

   => Energetics <=

    Nuclear Repulsion Energy =            180.2852686990901248
    One-Electron Energy =                -772.5536219810023795
    Two-Electron Energy =                 289.5903299357535161
    Total Energy =                       -302.6780233461587386
  Basis Set: (AUG-CC-PVTZ AUX)
    Blend: AUG-CC-PVTZ-RI
    Molecular point group: c1

    Geometry (in Angstrom), charge = 0, multiplicity = 1:

       Center              X                  Y                   Z               Mass
    ------------   -----------------  -----------------  -----------------  -----------------
         O           -0.461591246151    -0.821487235269    -0.007426221614    15.994914619570
         O            0.190389753849     1.347368764731    -0.000774221614    15.994914619570
         O           -1.800626246151    -0.245579235269     0.007424778386    15.994914619570
         C            1.855195753849    -0.434012235269     0.004191778386    12.000000000000
         C            0.484363453849     0.141428964731    -0.006909021614    12.000000000000
         H            2.323035753849    -0.213859235269     0.966524778386     1.007825032230
         H            1.822138753849    -1.512291235269    -0.149318221614     1.007825032230
         H            2.446956753849     0.041928764731    -0.779462221614     1.007825032230
         H           -1.567452246151     0.719359764731     0.006919778386     1.007825032230

  Basis Set: AUG-CC-PVTZ
    Blend: AUG-CC-PVTZ
  Basis Set: (AUG-CC-PVTZ AUX)
    Blend: AUG-CC-PVTZ-JKFIT
	 Reference Energy          =    -302.6780233461587386 [Eh]
	 Singles Energy            =      -0.0000000000000000 [Eh]
	 Same-Spin Energy          =      -0.2841885259436919 [Eh]
	 Opposite-Spin Energy      =      -0.8669637780311057 [Eh]
	 Correlation Energy        =      -1.1511523039747975 [Eh]
	 Total Energy              =    -303.8291756501335499 [Eh]

	 ================> DF-SCS-MP2 Energies <==================
	-----------------------------------------------------------
	 SCS Same-Spin Scale       =       0.3333333333333333 [-]
	 SCS Opposite-Spin Scale   =       1.2000000000000000 [-]
	 SCS Same-Spin Energy      =      -0.0947295086478973 [Eh]
	 SCS Opposite-Spin Energy  =      -1.0403565336373268 [Eh]
	 SCS Correlation Energy    =      -1.1350860422852240 [Eh]
	 SCS Total Energy          =    -303.8131093884439906 [Eh]
	-----------------------------------------------------------

  Dipole Moment: [D]
     X:     2.3936      Y:    -0.6334      Z:     0.0156     Total:     2.4761

*** Psi4 exiting successfully. Buy a developer a beer!
