                               Psi4 1.3.2 release

  ==> Input File <==

--------------------------------------------------------------------------
#psi4
#
memory 32 gb

molecule  {
0 1
  O       -0.4152300    -0.9054531    -0.0069018
  O        0.1289150     1.3564030    -0.0013430
  O       -1.8621010    -0.2365450     0.0068560
  C        1.7937210    -0.4249780     0.0036230
  C        0.4181520     0.1698940    -0.0073790
  H        2.2615610    -0.2048250     0.9659560
  H        1.7606640    -1.5032570    -0.1498870
  H        2.3854820     0.0509630    -0.7800310
  H       -1.6289270     0.7283940     0.0063510
units angstrom
no_reorient  #important for SAPT in psi4, default
symmetry c1  #important for SAPT in psi4, default
}

set PROPERTIES_ORIGIN ["COM"]
properties('MP2/aug-cc-pvtz', properties = ['dipole'])
--------------------------------------------------------------------------

    Molecular point group: c1
  Charge       = 0
  Multiplicity = 1
  Basis Set: AUG-CC-PVTZ
    Blend: AUG-CC-PVTZ
  Basis Set: (AUG-CC-PVTZ AUX)
    Blend: AUG-CC-PVTZ-JKFIT

    Orbital Energies [Eh]
    ---------------------

    Doubly Occupied:

       1A    -20.688172     2A    -20.659009     3A    -20.583798
       4A    -11.417898     5A    -11.260209     6A     -1.500934
       7A     -1.399859     8A     -1.288517     9A     -1.031669
      10A     -0.817835    11A     -0.736268    12A     -0.689574
      13A     -0.687392    14A     -0.629537    15A     -0.605983
      16A     -0.601119    17A     -0.541140    18A     -0.538006
      19A     -0.499422    20A     -0.485431

  @DF-RHF Final Energy:  -302.65389087345363

   => Energetics <=

    Nuclear Repulsion Energy =            178.4197757577005063
    One-Electron Energy =                -768.8237924976268687
    Two-Electron Energy =                 287.7501258664727857
    Total Energy =                       -302.6538908734536335
  Basis Set: (AUG-CC-PVTZ AUX)
    Blend: AUG-CC-PVTZ-RI
    Molecular point group: c1

    Geometry (in Angstrom), charge = 0, multiplicity = 1:

       Center              X                  Y                   Z               Mass
    ------------   -----------------  -----------------  -----------------  -----------------
         O           -0.375697814133    -0.897986094303    -0.006578643981    15.994914619570
         O            0.168447185867     1.363870005697    -0.001019843981    15.994914619570
         O           -1.822568814133    -0.229077994303     0.007179156019    15.994914619570
         C            1.833253185867    -0.417510994303     0.003946156019    12.000000000000
         C            0.457684185867     0.177361005697    -0.007055843981    12.000000000000
         H            2.301093185867    -0.197357994303     0.966279156019     1.007825032230
         H            1.800196185867    -1.495789994303    -0.149563843981     1.007825032230
         H            2.425014185867     0.058430005697    -0.779707843981     1.007825032230
         H           -1.589394814133     0.735861005697     0.006674156019     1.007825032230

  Basis Set: AUG-CC-PVTZ
    Blend: AUG-CC-PVTZ
  Basis Set: (AUG-CC-PVTZ AUX)
    Blend: AUG-CC-PVTZ-JKFIT
	 Reference Energy          =    -302.6538908734536335 [Eh]
	 Singles Energy            =      -0.0000000000000000 [Eh]
	 Same-Spin Energy          =      -0.2863194724061593 [Eh]
	 Opposite-Spin Energy      =      -0.8771725778778108 [Eh]
	 Correlation Energy        =      -1.1634920502839701 [Eh]
	 Total Energy              =    -303.8173829237376253 [Eh]

	 ================> DF-SCS-MP2 Energies <==================
	-----------------------------------------------------------
	 SCS Same-Spin Scale       =       0.3333333333333333 [-]
	 SCS Opposite-Spin Scale   =       1.2000000000000000 [-]
	 SCS Same-Spin Energy      =      -0.0954398241353864 [Eh]
	 SCS Opposite-Spin Energy  =      -1.0526070934533729 [Eh]
	 SCS Correlation Energy    =      -1.1480469175887593 [Eh]
	 SCS Total Energy          =    -303.8019377910424055 [Eh]
	-----------------------------------------------------------

  Dipole Moment: [D]
     X:     2.4075      Y:    -0.3887      Z:     0.0134     Total:     2.4387

*** Psi4 exiting successfully. Buy a developer a beer!
