                               Psi4 1.3.2 release

  ==> Input File <==

--------------------------------------------------------------------------
#psi4
#
memory 32 gb

molecule  {
0 1
  O       -0.5230660    -0.8124530    -0.0079950
  O        0.1289150     1.3564030    -0.0013430
  O       -1.8621010    -0.2365450     0.0068560
  C        1.7937210    -0.4249780     0.0036230
  C        0.3806099     0.0735871    -0.0234646
  H        2.2615610    -0.2048250     0.9659560
  H        1.7606640    -1.5032570    -0.1498870
  H        2.3854820     0.0509630    -0.7800310
  H       -1.6289270     0.7283940     0.0063510
units angstrom
no_reorient  #important for SAPT in psi4, default
symmetry c1  #important for SAPT in psi4, default
}

set PROPERTIES_ORIGIN ["COM"]
properties('MP2/aug-cc-pvtz', properties = ['dipole'])
--------------------------------------------------------------------------

    Molecular point group: c1
  Charge       = 0
  Multiplicity = 1
  Basis Set: AUG-CC-PVTZ
    Blend: AUG-CC-PVTZ
  Basis Set: (AUG-CC-PVTZ AUX)
    Blend: AUG-CC-PVTZ-JKFIT

    Orbital Energies [Eh]
    ---------------------

    Doubly Occupied:

       1A    -20.699631     2A    -20.669309     3A    -20.555481
       4A    -11.416334     5A    -11.265407     6A     -1.569158
       7A     -1.350941     8A     -1.298942     9A     -1.034070
      10A     -0.859756    11A     -0.727757    12A     -0.718355
      13A     -0.707670    14A     -0.628894    15A     -0.609629
      16A     -0.590305    17A     -0.567701    18A     -0.532322
      19A     -0.469017    20A     -0.468772

  @DF-RHF Final Energy:  -302.66300740567237

   => Energetics <=

    Nuclear Repulsion Energy =            180.6467293424673528
    One-Electron Energy =                -773.1405713996808799
    Two-Electron Energy =                 289.8308346515411813
    Total Energy =                       -302.6630074056723743
  Basis Set: (AUG-CC-PVTZ AUX)
    Blend: AUG-CC-PVTZ-RI
    Molecular point group: c1

    Geometry (in Angstrom), charge = 0, multiplicity = 1:

       Center              X                  Y                   Z               Mass
    ------------   -----------------  -----------------  -----------------  -----------------
         O           -0.454917055107    -0.809351465613    -0.004902522801    15.994914619570
         O            0.197063944893     1.359504534387     0.001749477199    15.994914619570
         O           -1.793952055107    -0.233443465613     0.009948477199    15.994914619570
         C            1.861869944893    -0.421876465613     0.006715477199    12.000000000000
         C            0.448758844893     0.076688634387    -0.020372122801    12.000000000000
         H            2.329709944893    -0.201723465613     0.969048477199     1.007825032230
         H            1.828812944893    -1.500155465613    -0.146794522801     1.007825032230
         H            2.453630944893     0.054064534387    -0.776938522801     1.007825032230
         H           -1.560778055107     0.731495534387     0.009443477199     1.007825032230

  Basis Set: AUG-CC-PVTZ
    Blend: AUG-CC-PVTZ
  Basis Set: (AUG-CC-PVTZ AUX)
    Blend: AUG-CC-PVTZ-JKFIT
	 Reference Energy          =    -302.6630074056723743 [Eh]
	 Singles Energy            =      -0.0000000000000000 [Eh]
	 Same-Spin Energy          =      -0.2845524659113681 [Eh]
	 Opposite-Spin Energy      =      -0.8672099608207706 [Eh]
	 Correlation Energy        =      -1.1517624267321387 [Eh]
	 Total Energy              =    -303.8147698324045223 [Eh]

	 ================> DF-SCS-MP2 Energies <==================
	-----------------------------------------------------------
	 SCS Same-Spin Scale       =       0.3333333333333333 [-]
	 SCS Opposite-Spin Scale   =       1.2000000000000000 [-]
	 SCS Same-Spin Energy      =      -0.0948508219704560 [Eh]
	 SCS Opposite-Spin Energy  =      -1.0406519529849247 [Eh]
	 SCS Correlation Energy    =      -1.1355027749553808 [Eh]
	 SCS Total Energy          =    -303.7985101806277726 [Eh]
	-----------------------------------------------------------

  Dipole Moment: [D]
     X:     1.9893      Y:    -1.1883      Z:     0.0009     Total:     2.3172

*** Psi4 exiting successfully. Buy a developer a beer!
