                               Psi4 1.3.2 release

  ==> Input File <==

--------------------------------------------------------------------------
#psi4
#
memory 32 gb

molecule  {
0 1
  O       -0.5230660    -0.8124530    -0.0079950
  O        0.1289150     1.3564030    -0.0013430
  O       -1.8621010    -0.2365450     0.0068560
  C        1.7937210    -0.4249780     0.0036230
  C        0.3707854     0.3642016    -0.0063905
  H        2.2615610    -0.2048250     0.9659560
  H        1.7606640    -1.5032570    -0.1498870
  H        2.3854820     0.0509630    -0.7800310
  H       -1.6289270     0.7283940     0.0063510
units angstrom
no_reorient  #important for SAPT in psi4, default
symmetry c1  #important for SAPT in psi4, default
}

set PROPERTIES_ORIGIN ["COM"]
properties('MP2/aug-cc-pvtz', properties = ['dipole'])
--------------------------------------------------------------------------

    Molecular point group: c1
  Charge       = 0
  Multiplicity = 1
  Basis Set: AUG-CC-PVTZ
    Blend: AUG-CC-PVTZ
  Basis Set: (AUG-CC-PVTZ AUX)
    Blend: AUG-CC-PVTZ-JKFIT

    Orbital Energies [Eh]
    ---------------------

    Doubly Occupied:

       1A    -20.643191     2A    -20.623399     3A    -20.619140
       4A    -11.398586     5A    -11.260422     6A     -1.608544
       7A     -1.466151     8A     -1.217566     9A     -0.998576
      10A     -0.817668    11A     -0.789795    12A     -0.722943
      13A     -0.719465    14A     -0.615157    15A     -0.610557
      16A     -0.600024    17A     -0.579291    18A     -0.559620
      19A     -0.458926    20A     -0.457355

  @DF-RHF Final Energy:  -302.59817713168138

   => Energetics <=

    Nuclear Repulsion Energy =            181.8197721257771207
    One-Electron Energy =                -775.3031478665744771
    Two-Electron Energy =                 290.8851986091159461
    Total Energy =                       -302.5981771316813820
  Basis Set: (AUG-CC-PVTZ AUX)
    Blend: AUG-CC-PVTZ-RI
    Molecular point group: c1

    Geometry (in Angstrom), charge = 0, multiplicity = 1:

       Center              X                  Y                   Z               Mass
    ------------   -----------------  -----------------  -----------------  -----------------
         O           -0.453366145670    -0.855228280783    -0.007597864327    15.994914619570
         O            0.198614854330     1.313627719217    -0.000945864327    15.994914619570
         O           -1.792401145670    -0.279320280783     0.007253135673    15.994914619570
         C            1.863420854330    -0.467753280783     0.004020135673    12.000000000000
         C            0.440485254330     0.321426319217    -0.005993364327    12.000000000000
         H            2.331260854330    -0.247600280783     0.966353135673     1.007825032230
         H            1.830363854330    -1.546032280783    -0.149489864327     1.007825032230
         H            2.455181854330     0.008187719217    -0.779633864327     1.007825032230
         H           -1.559227145670     0.685618719217     0.006748135673     1.007825032230

  Basis Set: AUG-CC-PVTZ
    Blend: AUG-CC-PVTZ
  Basis Set: (AUG-CC-PVTZ AUX)
    Blend: AUG-CC-PVTZ-JKFIT
	 Reference Energy          =    -302.5981771316813820 [Eh]
	 Singles Energy            =      -0.0000000000000000 [Eh]
	 Same-Spin Energy          =      -0.2808161293977104 [Eh]
	 Opposite-Spin Energy      =      -0.8617654737265728 [Eh]
	 Correlation Energy        =      -1.1425816031242833 [Eh]
	 Total Energy              =    -303.7407587348056381 [Eh]

	 ================> DF-SCS-MP2 Energies <==================
	-----------------------------------------------------------
	 SCS Same-Spin Scale       =       0.3333333333333333 [-]
	 SCS Opposite-Spin Scale   =       1.2000000000000000 [-]
	 SCS Same-Spin Energy      =      -0.0936053764659035 [Eh]
	 SCS Opposite-Spin Energy  =      -1.0341185684718872 [Eh]
	 SCS Correlation Energy    =      -1.1277239449377907 [Eh]
	 SCS Total Energy          =    -303.7259010766191523 [Eh]
	-----------------------------------------------------------

  Dipole Moment: [D]
     X:     2.5042      Y:     1.0245      Z:     0.0109     Total:     2.7056

*** Psi4 exiting successfully. Buy a developer a beer!
