                               Psi4 1.3.2 release

  ==> Input File <==

--------------------------------------------------------------------------
#psi4
#
memory 32 gb

molecule  {
0 1
  O       -0.5230660    -0.8124530    -0.0079950
  O        0.1289150     1.3564030    -0.0013430
  O       -1.8621010    -0.2365450     0.0068560
  C        1.7937210    -0.4249780     0.0036230
  C        0.4655186    -0.0244136    -0.0083675
  H        2.2615610    -0.2048250     0.9659560
  H        1.7606640    -1.5032570    -0.1498870
  H        2.3854820     0.0509630    -0.7800310
  H       -1.6289270     0.7283940     0.0063510
units angstrom
no_reorient  #important for SAPT in psi4, default
symmetry c1  #important for SAPT in psi4, default
}

set PROPERTIES_ORIGIN ["COM"]
properties('MP2/aug-cc-pvtz', properties = ['dipole'])
--------------------------------------------------------------------------

    Molecular point group: c1
  Charge       = 0
  Multiplicity = 1
  Basis Set: AUG-CC-PVTZ
    Blend: AUG-CC-PVTZ
  Basis Set: (AUG-CC-PVTZ AUX)
    Blend: AUG-CC-PVTZ-JKFIT

    Orbital Energies [Eh]
    ---------------------

    Doubly Occupied:

       1A    -20.701242     2A    -20.676246     3A    -20.534906
       4A    -11.422778     5A    -11.269599     6A     -1.564749
       7A     -1.329723     8A     -1.261156     9A     -1.076909
      10A     -0.860316    11A     -0.735715    12A     -0.717599
      13A     -0.703055    14A     -0.638424    15A     -0.623860
      16A     -0.609050    17A     -0.530299    18A     -0.528763
      19A     -0.449613    20A     -0.437649

  @DF-RHF Final Energy:  -302.61513923326589

   => Energetics <=

    Nuclear Repulsion Energy =            179.9251228036249586
    One-Electron Energy =                -771.7372242425054765
    Two-Electron Energy =                 289.1969622056146250
    Total Energy =                       -302.6151392332658929
  Basis Set: (AUG-CC-PVTZ AUX)
    Blend: AUG-CC-PVTZ-RI
    Molecular point group: c1

    Geometry (in Angstrom), charge = 0, multiplicity = 1:

       Center              X                  Y                   Z               Mass
    ------------   -----------------  -----------------  -----------------  -----------------
         O           -0.468320862337    -0.793880936783    -0.007285772316    15.994914619570
         O            0.183660137663     1.374975063217    -0.000633772316    15.994914619570
         O           -1.807355862337    -0.217972936783     0.007565227684    15.994914619570
         C            1.848466137663    -0.406405936783     0.004332227684    12.000000000000
         C            0.520263737663    -0.005841536783    -0.007658272316    12.000000000000
         H            2.316306137663    -0.186252936783     0.966665227684     1.007825032230
         H            1.815409137663    -1.484684936783    -0.149177772316     1.007825032230
         H            2.440227137663     0.069535063217    -0.779321772316     1.007825032230
         H           -1.574181862337     0.746966063217     0.007060227684     1.007825032230

  Basis Set: AUG-CC-PVTZ
    Blend: AUG-CC-PVTZ
  Basis Set: (AUG-CC-PVTZ AUX)
    Blend: AUG-CC-PVTZ-JKFIT
	 Reference Energy          =    -302.6151392332658929 [Eh]
	 Singles Energy            =      -0.0000000000000000 [Eh]
	 Same-Spin Energy          =      -0.2873393157667660 [Eh]
	 Opposite-Spin Energy      =      -0.8719209405380073 [Eh]
	 Correlation Energy        =      -1.1592602563047731 [Eh]
	 Total Energy              =    -303.7743994895706692 [Eh]

	 ================> DF-SCS-MP2 Energies <==================
	-----------------------------------------------------------
	 SCS Same-Spin Scale       =       0.3333333333333333 [-]
	 SCS Opposite-Spin Scale   =       1.2000000000000000 [-]
	 SCS Same-Spin Energy      =      -0.0957797719222553 [Eh]
	 SCS Opposite-Spin Energy  =      -1.0463051286456087 [Eh]
	 SCS Correlation Energy    =      -1.1420849005678639 [Eh]
	 SCS Total Energy          =    -303.7572241338337449 [Eh]
	-----------------------------------------------------------

  Dipole Moment: [D]
     X:     2.2940      Y:    -1.7559      Z:     0.0244     Total:     2.8890

*** Psi4 exiting successfully. Buy a developer a beer!
