                               Psi4 1.3.2 release

  ==> Input File <==

--------------------------------------------------------------------------
#psi4
#
memory 32 gb

molecule  {
0 1
  O       -0.5230660    -0.8124530    -0.0079950
  O        0.0064824     1.3196798    -0.0030276
  O       -1.8621010    -0.2365450     0.0068560
  C        1.7937210    -0.4249780     0.0036230
  C        0.4181520     0.1698940    -0.0073790
  H        2.2615610    -0.2048250     0.9659560
  H        1.7606640    -1.5032570    -0.1498870
  H        2.3854820     0.0509630    -0.7800310
  H       -1.6289270     0.7283940     0.0063510
units angstrom
no_reorient  #important for SAPT in psi4, default
symmetry c1  #important for SAPT in psi4, default
}

set PROPERTIES_ORIGIN ["COM"]
properties('MP2/aug-cc-pvtz', properties = ['dipole'])
--------------------------------------------------------------------------

    Molecular point group: c1
  Charge       = 0
  Multiplicity = 1
  Basis Set: AUG-CC-PVTZ
    Blend: AUG-CC-PVTZ
  Basis Set: (AUG-CC-PVTZ AUX)
    Blend: AUG-CC-PVTZ-JKFIT

    Orbital Energies [Eh]
    ---------------------

    Doubly Occupied:

       1A    -20.667381     2A    -20.640272     3A    -20.576736
       4A    -11.416048     5A    -11.273062     6A     -1.530064
       7A     -1.400576     8A     -1.259978     9A     -1.041041
      10A     -0.827842    11A     -0.745166    12A     -0.697339
      13A     -0.693538    14A     -0.618664    15A     -0.611345
      16A     -0.587771    17A     -0.570761    18A     -0.535240
      19A     -0.489672    20A     -0.471684

  @DF-RHF Final Energy:  -302.67675811714281

   => Energetics <=

    Nuclear Repulsion Energy =            181.2893607306309036
    One-Electron Energy =                -774.6238752237946983
    Two-Electron Energy =                 290.6577563760210410
    Total Energy =                       -302.6767581171428105
  Basis Set: (AUG-CC-PVTZ AUX)
    Blend: AUG-CC-PVTZ-RI
    Molecular point group: c1

    Geometry (in Angstrom), charge = 0, multiplicity = 1:

       Center              X                  Y                   Z               Mass
    ------------   -----------------  -----------------  -----------------  -----------------
         O           -0.435081850529    -0.816827497271    -0.007087353241    15.994914619570
         O            0.094466549471     1.315305302729    -0.002119953241    15.994914619570
         O           -1.774116850529    -0.240919497271     0.007763646759    15.994914619570
         C            1.881705149471    -0.429352497271     0.004530646759    12.000000000000
         C            0.506136149471     0.165519502729    -0.006471353241    12.000000000000
         H            2.349545149471    -0.209199497271     0.966863646759     1.007825032230
         H            1.848648149471    -1.507631497271    -0.148979353241     1.007825032230
         H            2.473466149471     0.046588502729    -0.779123353241     1.007825032230
         H           -1.540942850529     0.724019502729     0.007258646759     1.007825032230

  Basis Set: AUG-CC-PVTZ
    Blend: AUG-CC-PVTZ
  Basis Set: (AUG-CC-PVTZ AUX)
    Blend: AUG-CC-PVTZ-JKFIT
	 Reference Energy          =    -302.6767581171428105 [Eh]
	 Singles Energy            =      -0.0000000000000000 [Eh]
	 Same-Spin Energy          =      -0.2842803217362138 [Eh]
	 Opposite-Spin Energy      =      -0.8663795536705724 [Eh]
	 Correlation Energy        =      -1.1506598754067863 [Eh]
	 Total Energy              =    -303.8274179925496128 [Eh]

	 ================> DF-SCS-MP2 Energies <==================
	-----------------------------------------------------------
	 SCS Same-Spin Scale       =       0.3333333333333333 [-]
	 SCS Opposite-Spin Scale   =       1.2000000000000000 [-]
	 SCS Same-Spin Energy      =      -0.0947601072454046 [Eh]
	 SCS Opposite-Spin Energy  =      -1.0396554644046869 [Eh]
	 SCS Correlation Energy    =      -1.1344155716500914 [Eh]
	 SCS Total Energy          =    -303.8111736887929055 [Eh]
	-----------------------------------------------------------

  Dipole Moment: [D]
     X:     2.8119      Y:    -0.4429      Z:     0.0173     Total:     2.8466

*** Psi4 exiting successfully. Buy a developer a beer!
