                               Psi4 1.4a3.dev225

  ==> Input File <==

--------------------------------------------------------------------------
#psi4
#
memory 32 gb

molecule  {
0 1
  O       -0.5230660    -0.8124530    -0.0079950
  O        0.1289150     1.3564030    -0.0013430
  O       -1.8621010    -0.2365450     0.0068560
  C        1.7937210    -0.4249780     0.0036230
  C        0.4365085     0.1619556    -0.0072322
  H        2.2615610    -0.2048250     0.9659560
  H        1.7606640    -1.5032570    -0.1498870
  H        2.3854820     0.0509630    -0.7800310
  H       -1.6289270     0.7283940     0.0063510
units angstrom
no_reorient  #important for SAPT in psi4, default
symmetry c1  #important for SAPT in psi4, default
}

set PROPERTIES_ORIGIN ["COM"]
properties('MP2/aug-cc-pvtz', properties = ['dipole'])
--------------------------------------------------------------------------

    Molecular point group: c1
  Charge       = 0
  Multiplicity = 1
  Basis Set: AUG-CC-PVTZ
    Blend: AUG-CC-PVTZ
  Basis Set: (AUG-CC-PVTZ AUX)
    Blend: AUG-CC-PVTZ-JKFIT

    Orbital Energies [Eh]
    ---------------------

    Doubly Occupied:

       1A    -20.674901     2A    -20.649351     3A    -20.576938
       4A    -11.417103     5A    -11.267150     6A     -1.527596
       7A     -1.398212     8A     -1.263930     9A     -1.042791
      10A     -0.831868    11A     -0.738636    12A     -0.695270
      13A     -0.694215    14A     -0.619881    15A     -0.612939
      16A     -0.591978    17A     -0.573860    18A     -0.532659
      19A     -0.487928    20A     -0.475353

  @DF-RHF Final Energy:  -302.67789319155634

   => Energetics <=

    Nuclear Repulsion Energy =            180.1769555196536317
    One-Electron Energy =                -772.3645765114941923
    Two-Electron Energy =                 289.5097278002841676
    Total Energy =                       -302.6778931915563362
  Basis Set: (AUG-CC-PVTZ AUX)
    Blend: AUG-CC-PVTZ-RI
    Molecular point group: c1

    Geometry (in Angstrom), charge = 0, multiplicity = 1:

       Center              X                  Y                   Z               Mass
    ------------   -----------------  -----------------  -----------------  -----------------
         O           -0.463741287003    -0.823301441754    -0.007464992377    15.994914619570
         O            0.188239712997     1.345554558246    -0.000812992377    15.994914619570
         O           -1.802776287003    -0.247393441754     0.007386007623    15.994914619570
         C            1.853045712997    -0.435826441754     0.004153007623    12.000000000000
         C            0.495833212997     0.151107158246    -0.006702192377    12.000000000000
         H            2.320885712997    -0.215673441754     0.966486007623     1.007825032230
         H            1.819988712997    -1.514105441754    -0.149356992377     1.007825032230
         H            2.444806712997     0.040114558246    -0.779500992377     1.007825032230
         H           -1.569602287003     0.717545558246     0.006881007623     1.007825032230

  Basis Set: AUG-CC-PVTZ
    Blend: AUG-CC-PVTZ
  Basis Set: (AUG-CC-PVTZ AUX)
    Blend: AUG-CC-PVTZ-JKFIT
	 Reference Energy          =    -302.6778931915563362 [Eh]
	 Singles Energy            =      -0.0000000000000000 [Eh]
	 Same-Spin Energy          =      -0.2842750775024545 [Eh]
	 Opposite-Spin Energy      =      -0.8671730725789586 [Eh]
	 Correlation Energy        =      -1.1514481500814131 [Eh]
	 Total Energy              =    -303.8293413416377575 [Eh]

	 ================> DF-SCS-MP2 Energies <==================
	-----------------------------------------------------------
	 SCS Same-Spin Scale       =       0.3333333333333333 [-]
	 SCS Opposite-Spin Scale   =       1.2000000000000000 [-]
	 SCS Same-Spin Energy      =      -0.0947583591674848 [Eh]
	 SCS Opposite-Spin Energy  =      -1.0406076870947503 [Eh]
	 SCS Correlation Energy    =      -1.1353660462622350 [Eh]
	 SCS Total Energy          =    -303.8132592378185564 [Eh]
	-----------------------------------------------------------

  Dipole Moment: [D]
     X:     2.5035      Y:    -0.5455      Z:     0.0163     Total:     2.5623

*** Psi4 exiting successfully. Buy a developer a beer!
