                               Psi4 1.3.2 release

  ==> Input File <==

--------------------------------------------------------------------------
#psi4
#
memory 32 gb

molecule  {
0 1
  O       -0.5230660    -0.8124530    -0.0079950
  O        0.1289150     1.3564030    -0.0013430
  O       -1.8621010    -0.2365450     0.0068560
  C        1.7937210    -0.4249780     0.0036230
  C        0.4285925     0.1935359    -0.0033462
  H        2.2615610    -0.2048250     0.9659560
  H        1.7606640    -1.5032570    -0.1498870
  H        2.3854820     0.0509630    -0.7800310
  H       -1.6289270     0.7283940     0.0063510
units angstrom
no_reorient  #important for SAPT in psi4, default
symmetry c1  #important for SAPT in psi4, default
}

set PROPERTIES_ORIGIN ["COM"]
properties('MP2/aug-cc-pvtz', properties = ['dipole'])
--------------------------------------------------------------------------

    Molecular point group: c1
  Charge       = 0
  Multiplicity = 1
  Basis Set: AUG-CC-PVTZ
    Blend: AUG-CC-PVTZ
  Basis Set: (AUG-CC-PVTZ AUX)
    Blend: AUG-CC-PVTZ-JKFIT

    Orbital Energies [Eh]
    ---------------------

    Doubly Occupied:

       1A    -20.670278     2A    -20.645036     3A    -20.583657
       4A    -11.414830     5A    -11.266525     6A     -1.525044
       7A     -1.419455     8A     -1.256954     9A     -1.036038
      10A     -0.827903    11A     -0.743161    12A     -0.696056
      13A     -0.692503    14A     -0.619584    15A     -0.611127
      16A     -0.595755    17A     -0.568837    18A     -0.541635
      19A     -0.489970    20A     -0.475169

  @DF-RHF Final Energy:  -302.67989199561526

   => Energetics <=

    Nuclear Repulsion Energy =            180.3177435579600285
    One-Electron Energy =                -772.6362376854074228
    Two-Electron Energy =                 289.6386021318321013
    Total Energy =                       -302.6798919956152645
  Basis Set: (AUG-CC-PVTZ AUX)
    Blend: AUG-CC-PVTZ-RI
    Molecular point group: c1

    Geometry (in Angstrom), charge = 0, multiplicity = 1:

       Center              X                  Y                   Z               Mass
    ------------   -----------------  -----------------  -----------------  -----------------
         O           -0.462491656070    -0.828286752487    -0.008078441822    15.994914619570
         O            0.189489343930     1.340569247513    -0.001426441822    15.994914619570
         O           -1.801526656070    -0.252378752487     0.006772558178    15.994914619570
         C            1.854295343930    -0.440811752487     0.003539558178    12.000000000000
         C            0.489166843930     0.177702147513    -0.003429641822    12.000000000000
         H            2.322135343930    -0.220658752487     0.965872558178     1.007825032230
         H            1.821238343930    -1.519090752487    -0.149970441822     1.007825032230
         H            2.446056343930     0.035129247513    -0.780114441822     1.007825032230
         H           -1.568352656070     0.712560247513     0.006267558178     1.007825032230

  Basis Set: AUG-CC-PVTZ
    Blend: AUG-CC-PVTZ
  Basis Set: (AUG-CC-PVTZ AUX)
    Blend: AUG-CC-PVTZ-JKFIT
	 Reference Energy          =    -302.6798919956152645 [Eh]
	 Singles Energy            =      -0.0000000000000000 [Eh]
	 Same-Spin Energy          =      -0.2836806102046434 [Eh]
	 Opposite-Spin Energy      =      -0.8662340265438756 [Eh]
	 Correlation Energy        =      -1.1499146367485191 [Eh]
	 Total Energy              =    -303.8298066323637840 [Eh]

	 ================> DF-SCS-MP2 Energies <==================
	-----------------------------------------------------------
	 SCS Same-Spin Scale       =       0.3333333333333333 [-]
	 SCS Opposite-Spin Scale   =       1.2000000000000000 [-]
	 SCS Same-Spin Energy      =      -0.0945602034015478 [Eh]
	 SCS Opposite-Spin Energy  =      -1.0394808318526507 [Eh]
	 SCS Correlation Energy    =      -1.1340410352541985 [Eh]
	 SCS Total Energy          =    -303.8139330308694639 [Eh]
	-----------------------------------------------------------

  Dipole Moment: [D]
     X:     2.5253      Y:    -0.3239      Z:     0.0197     Total:     2.5460

*** Psi4 exiting successfully. Buy a developer a beer!
