                               Psi4 1.3.2 release

  ==> Input File <==

--------------------------------------------------------------------------
#psi4
#
memory 32 gb

molecule  {
0 1
  O       -0.5567749    -0.7790074    -0.0083585
  O        0.1289150     1.3564030    -0.0013430
  O       -1.8621010    -0.2365450     0.0068560
  C        1.7937210    -0.4249780     0.0036230
  C        0.4181520     0.1698940    -0.0073790
  H        2.2615610    -0.2048250     0.9659560
  H        1.7606640    -1.5032570    -0.1498870
  H        2.3854820     0.0509630    -0.7800310
  H       -1.6289270     0.7283940     0.0063510
units angstrom
no_reorient  #important for SAPT in psi4, default
symmetry c1  #important for SAPT in psi4, default
}

set PROPERTIES_ORIGIN ["COM"]
properties('MP2/aug-cc-pvtz', properties = ['dipole'])
--------------------------------------------------------------------------

    Molecular point group: c1
  Charge       = 0
  Multiplicity = 1
  Basis Set: AUG-CC-PVTZ
    Blend: AUG-CC-PVTZ
  Basis Set: (AUG-CC-PVTZ AUX)
    Blend: AUG-CC-PVTZ-JKFIT

    Orbital Energies [Eh]
    ---------------------

    Doubly Occupied:

       1A    -20.672065     2A    -20.646886     3A    -20.576154
       4A    -11.414844     5A    -11.268049     6A     -1.546199
       7A     -1.407937     8A     -1.258197     9A     -1.036557
      10A     -0.841099    11A     -0.739941    12A     -0.701103
      13A     -0.700057    14A     -0.619235    15A     -0.614303
      16A     -0.588319    17A     -0.579988    18A     -0.535876
      19A     -0.487487    20A     -0.468837

  @DF-RHF Final Energy:  -302.68281594426657

   => Energetics <=

    Nuclear Repulsion Energy =            181.1100599304196237
    One-Electron Energy =                -774.1794822134563674
    Two-Electron Energy =                 290.3866063387701502
    Total Energy =                       -302.6828159442665651
  Basis Set: (AUG-CC-PVTZ AUX)
    Blend: AUG-CC-PVTZ-RI
    Molecular point group: c1

    Geometry (in Angstrom), charge = 0, multiplicity = 1:

       Center              X                  Y                   Z               Mass
    ------------   -----------------  -----------------  -----------------  -----------------
         O           -0.487459546376    -0.798146464146    -0.007728832475    15.994914619570
         O            0.198230353624     1.337263935854    -0.000713332475    15.994914619570
         O           -1.792785646376    -0.255684064146     0.007485667525    15.994914619570
         C            1.863036353624    -0.444117064146     0.004252667525    12.000000000000
         C            0.487467353624     0.150754935854    -0.006749332475    12.000000000000
         H            2.330876353624    -0.223964064146     0.966585667525     1.007825032230
         H            1.829979353624    -1.522396064146    -0.149257332475     1.007825032230
         H            2.454797353624     0.031823935854    -0.779401332475     1.007825032230
         H           -1.559611646376     0.709254935854     0.006980667525     1.007825032230

  Basis Set: AUG-CC-PVTZ
    Blend: AUG-CC-PVTZ
  Basis Set: (AUG-CC-PVTZ AUX)
    Blend: AUG-CC-PVTZ-JKFIT
	 Reference Energy          =    -302.6828159442665651 [Eh]
	 Singles Energy            =      -0.0000000000000000 [Eh]
	 Same-Spin Energy          =      -0.2832829399086509 [Eh]
	 Opposite-Spin Energy      =      -0.8635399795890957 [Eh]
	 Correlation Energy        =      -1.1468229194977466 [Eh]
	 Total Energy              =    -303.8296388637643304 [Eh]

	 ================> DF-SCS-MP2 Energies <==================
	-----------------------------------------------------------
	 SCS Same-Spin Scale       =       0.3333333333333333 [-]
	 SCS Opposite-Spin Scale   =       1.2000000000000000 [-]
	 SCS Same-Spin Energy      =      -0.0944276466362170 [Eh]
	 SCS Opposite-Spin Energy  =      -1.0362479755069147 [Eh]
	 SCS Correlation Energy    =      -1.1306756221431318 [Eh]
	 SCS Total Energy          =    -303.8134915664097093 [Eh]
	-----------------------------------------------------------

  Dipole Moment: [D]
     X:     2.4110      Y:    -0.5505      Z:     0.0153     Total:     2.4731

*** Psi4 exiting successfully. Buy a developer a beer!
