                               Psi4 1.3.2 release

  ==> Input File <==

--------------------------------------------------------------------------
#psi4
#
memory 32 gb

molecule  {
0 1
  O       -0.5333209    -0.8357361    -0.0079354
  O        0.1289150     1.3564030    -0.0013430
  O       -1.8621010    -0.2365450     0.0068560
  C        1.7937210    -0.4249780     0.0036230
  C        0.4181520     0.1698940    -0.0073790
  H        2.2615610    -0.2048250     0.9659560
  H        1.7606640    -1.5032570    -0.1498870
  H        2.3854820     0.0509630    -0.7800310
  H       -1.6289270     0.7283940     0.0063510
units angstrom
no_reorient  #important for SAPT in psi4, default
symmetry c1  #important for SAPT in psi4, default
}

set PROPERTIES_ORIGIN ["COM"]
properties('MP2/aug-cc-pvtz', properties = ['dipole'])
--------------------------------------------------------------------------

    Molecular point group: c1
  Charge       = 0
  Multiplicity = 1
  Basis Set: AUG-CC-PVTZ
    Blend: AUG-CC-PVTZ
  Basis Set: (AUG-CC-PVTZ AUX)
    Blend: AUG-CC-PVTZ-JKFIT

    Orbital Energies [Eh]
    ---------------------

    Doubly Occupied:

       1A    -20.675905     2A    -20.646270     3A    -20.582907
       4A    -11.418707     5A    -11.266987     6A     -1.524793
       7A     -1.408477     8A     -1.259004     9A     -1.036478
      10A     -0.830453    11A     -0.740369    12A     -0.694387
      13A     -0.692172    14A     -0.617267    15A     -0.611435
      16A     -0.597216    17A     -0.570315    18A     -0.536572
      19A     -0.489184    20A     -0.476648

  @DF-RHF Final Energy:  -302.67782500779526

   => Energetics <=

    Nuclear Repulsion Energy =            179.7791645247687882
    One-Electron Energy =                -771.5628847460101269
    Two-Electron Energy =                 289.1058952134460469
    Total Energy =                       -302.6778250077952634
  Basis Set: (AUG-CC-PVTZ AUX)
    Blend: AUG-CC-PVTZ-RI
    Molecular point group: c1

    Geometry (in Angstrom), charge = 0, multiplicity = 1:

       Center              X                  Y                   Z               Mass
    ------------   -----------------  -----------------  -----------------  -----------------
         O           -0.468940619392    -0.842938595687    -0.007394759055    15.994914619570
         O            0.193295280608     1.349200504313    -0.000802359055    15.994914619570
         O           -1.797720719392    -0.243747495687     0.007396640945    15.994914619570
         C            1.858101280608    -0.432180495687     0.004163640945    12.000000000000
         C            0.482532280608     0.162691504313    -0.006838359055    12.000000000000
         H            2.325941280608    -0.212027495687     0.966496640945     1.007825032230
         H            1.825044280608    -1.510459495687    -0.149346359055     1.007825032230
         H            2.449862280608     0.043760504313    -0.779490359055     1.007825032230
         H           -1.564546719392     0.721191504313     0.006891640945     1.007825032230

  Basis Set: AUG-CC-PVTZ
    Blend: AUG-CC-PVTZ
  Basis Set: (AUG-CC-PVTZ AUX)
    Blend: AUG-CC-PVTZ-JKFIT
	 Reference Energy          =    -302.6778250077952634 [Eh]
	 Singles Energy            =      -0.0000000000000000 [Eh]
	 Same-Spin Energy          =      -0.2841243615368318 [Eh]
	 Opposite-Spin Energy      =      -0.8674170191024452 [Eh]
	 Correlation Energy        =      -1.1515413806392769 [Eh]
	 Total Energy              =    -303.8293663884345506 [Eh]

	 ================> DF-SCS-MP2 Energies <==================
	-----------------------------------------------------------
	 SCS Same-Spin Scale       =       0.3333333333333333 [-]
	 SCS Opposite-Spin Scale   =       1.2000000000000000 [-]
	 SCS Same-Spin Energy      =      -0.0947081205122773 [Eh]
	 SCS Opposite-Spin Energy  =      -1.0409004229229342 [Eh]
	 SCS Correlation Energy    =      -1.1356085434352114 [Eh]
	 SCS Total Energy          =    -303.8134335512305029 [Eh]
	-----------------------------------------------------------

  Dipole Moment: [D]
     X:     2.4896      Y:    -0.4087      Z:     0.0153     Total:     2.5230

*** Psi4 exiting successfully. Buy a developer a beer!
