                               Psi4 1.3.2 release

  ==> Input File <==

--------------------------------------------------------------------------
#psi4
#
memory 32 gb

molecule  {
0 1
  O       -0.5230660    -0.8124530    -0.0079950
  O        0.1289150     1.3564030    -0.0013430
  O       -1.9149731    -0.3796705     0.0061205
  C        1.7937210    -0.4249780     0.0036230
  C        0.4181520     0.1698940    -0.0073790
  H        2.2615610    -0.2048250     0.9659560
  H        1.7606640    -1.5032570    -0.1498870
  H        2.3854820     0.0509630    -0.7800310
  H       -1.6289270     0.7283940     0.0063510
units angstrom
no_reorient  #important for SAPT in psi4, default
symmetry c1  #important for SAPT in psi4, default
}

set PROPERTIES_ORIGIN ["COM"]
properties('MP2/aug-cc-pvtz', properties = ['dipole'])
--------------------------------------------------------------------------

    Molecular point group: c1
  Charge       = 0
  Multiplicity = 1
  Basis Set: AUG-CC-PVTZ
    Blend: AUG-CC-PVTZ
  Basis Set: (AUG-CC-PVTZ AUX)
    Blend: AUG-CC-PVTZ-JKFIT

    Orbital Energies [Eh]
    ---------------------

    Doubly Occupied:

       1A    -20.666585     2A    -20.660768     3A    -20.582098
       4A    -11.417276     5A    -11.266698     6A     -1.519182
       7A     -1.407222     8A     -1.244639     9A     -1.034197
      10A     -0.818321    11A     -0.734777    12A     -0.695523
      13A     -0.691679    14A     -0.614592    15A     -0.610147
      16A     -0.575931    17A     -0.564090    18A     -0.539363
      19A     -0.489285    20A     -0.471785

  @DF-RHF Final Energy:  -302.65380207308044

   => Energetics <=

    Nuclear Repulsion Energy =            178.6554870612376362
    One-Electron Energy =                -769.4102617491429328
    Two-Electron Energy =                 288.1009726148248546
    Total Energy =                       -302.6538020730804419
  Basis Set: (AUG-CC-PVTZ AUX)
    Blend: AUG-CC-PVTZ-RI
    Molecular point group: c1

    Geometry (in Angstrom), charge = 0, multiplicity = 1:

       Center              X                  Y                   Z               Mass
    ------------   -----------------  -----------------  -----------------  -----------------
         O           -0.449718421969    -0.794438859103    -0.007287058101    15.994914619570
         O            0.202262578031     1.374417140897    -0.000635058101    15.994914619570
         O           -1.841625521969    -0.361656359103     0.006828441899    15.994914619570
         C            1.867068578031    -0.406963859103     0.004330941899    12.000000000000
         C            0.491499578031     0.187908140897    -0.006671058101    12.000000000000
         H            2.334908578031    -0.186810859103     0.966663941899     1.007825032230
         H            1.834011578031    -1.485242859103    -0.149179058101     1.007825032230
         H            2.458829578031     0.068977140897    -0.779323058101     1.007825032230
         H           -1.555579421969     0.746408140897     0.007058941899     1.007825032230

  Basis Set: AUG-CC-PVTZ
    Blend: AUG-CC-PVTZ
  Basis Set: (AUG-CC-PVTZ AUX)
    Blend: AUG-CC-PVTZ-JKFIT
	 Reference Energy          =    -302.6538020730804419 [Eh]
	 Singles Energy            =      -0.0000000000000000 [Eh]
	 Same-Spin Energy          =      -0.2864042107330910 [Eh]
	 Opposite-Spin Energy      =      -0.8719839610853060 [Eh]
	 Correlation Energy        =      -1.1583881718183970 [Eh]
	 Total Energy              =    -303.8121902448988294 [Eh]

	 ================> DF-SCS-MP2 Energies <==================
	-----------------------------------------------------------
	 SCS Same-Spin Scale       =       0.3333333333333333 [-]
	 SCS Opposite-Spin Scale   =       1.2000000000000000 [-]
	 SCS Same-Spin Energy      =      -0.0954680702443637 [Eh]
	 SCS Opposite-Spin Energy  =      -1.0463807533023670 [Eh]
	 SCS Correlation Energy    =      -1.1418488235467308 [Eh]
	 SCS Total Energy          =    -303.7956508966271940 [Eh]
	-----------------------------------------------------------

  Dipole Moment: [D]
     X:     2.4957      Y:    -0.3636      Z:     0.0164     Total:     2.5221

*** Psi4 exiting successfully. Buy a developer a beer!
