                               Psi4 1.3.2 release

  ==> Input File <==

--------------------------------------------------------------------------
#psi4
#
memory 32 gb

molecule  {
0 1
  O       -0.5230660    -0.8124530    -0.0079950
  O        0.1289150     1.3564030    -0.0013430
  O       -1.8621010    -0.2365450     0.0068560
  C        1.7937210    -0.4249780     0.0036230
  C        0.4181520     0.1698940    -0.0073790
  H        2.2615610    -0.2048250     0.9659560
  H        1.7606640    -1.5032570    -0.1498870
  H        2.3854820     0.0509630    -0.7800310
  H       -1.6054384     0.8255963     0.0063001
units angstrom
no_reorient  #important for SAPT in psi4, default
symmetry c1  #important for SAPT in psi4, default
}

set PROPERTIES_ORIGIN ["COM"]
properties('MP2/aug-cc-pvtz', properties = ['dipole'])
--------------------------------------------------------------------------

    Molecular point group: c1
  Charge       = 0
  Multiplicity = 1
  Basis Set: AUG-CC-PVTZ
    Blend: AUG-CC-PVTZ
  Basis Set: (AUG-CC-PVTZ AUX)
    Blend: AUG-CC-PVTZ-JKFIT

    Orbital Energies [Eh]
    ---------------------

    Doubly Occupied:

       1A    -20.673471     2A    -20.650484     3A    -20.581006
       4A    -11.415926     5A    -11.266050     6A     -1.524058
       7A     -1.405379     8A     -1.248614     9A     -1.034346
      10A     -0.824003    11A     -0.738224    12A     -0.695733
      13A     -0.693734    14A     -0.610795    15A     -0.609160
      16A     -0.584051    17A     -0.567488    18A     -0.536031
      19A     -0.489248    20A     -0.473905

  @DF-RHF Final Energy:  -302.66755064927116

   => Energetics <=

    Nuclear Repulsion Energy =            179.9551276360010661
    One-Electron Energy =                -772.0019468481037848
    Two-Electron Energy =                 289.3792685628315553
    Total Energy =                       -302.6675506492711634
  Basis Set: (AUG-CC-PVTZ AUX)
    Blend: AUG-CC-PVTZ-RI
    Molecular point group: c1

    Geometry (in Angstrom), charge = 0, multiplicity = 1:

       Center              X                  Y                   Z               Mass
    ------------   -----------------  -----------------  -----------------  -----------------
         O           -0.461154917197    -0.825843322402    -0.007441143487    15.994914619570
         O            0.190826082803     1.343012677598    -0.000789143487    15.994914619570
         O           -1.800189917197    -0.249935322402     0.007409856513    15.994914619570
         C            1.855632082803    -0.438368322402     0.004176856513    12.000000000000
         C            0.480063082803     0.156503677598    -0.006825143487    12.000000000000
         H            2.323472082803    -0.218215322402     0.966509856513     1.007825032230
         H            1.822575082803    -1.516647322402    -0.149333143487     1.007825032230
         H            2.447393082803     0.037572677598    -0.779477143487     1.007825032230
         H           -1.543527317197     0.812205977598     0.006853956513     1.007825032230

  Basis Set: AUG-CC-PVTZ
    Blend: AUG-CC-PVTZ
  Basis Set: (AUG-CC-PVTZ AUX)
    Blend: AUG-CC-PVTZ-JKFIT
	 Reference Energy          =    -302.6675506492711634 [Eh]
	 Singles Energy            =      -0.0000000000000000 [Eh]
	 Same-Spin Energy          =      -0.2855686212828638 [Eh]
	 Opposite-Spin Energy      =      -0.8698159060219235 [Eh]
	 Correlation Energy        =      -1.1553845273047871 [Eh]
	 Total Energy              =    -303.8229351765759247 [Eh]

	 ================> DF-SCS-MP2 Energies <==================
	-----------------------------------------------------------
	 SCS Same-Spin Scale       =       0.3333333333333333 [-]
	 SCS Opposite-Spin Scale   =       1.2000000000000000 [-]
	 SCS Same-Spin Energy      =      -0.0951895404276212 [Eh]
	 SCS Opposite-Spin Energy  =      -1.0437790872263082 [Eh]
	 SCS Correlation Energy    =      -1.1389686276539295 [Eh]
	 SCS Total Energy          =    -303.8065192769250871 [Eh]
	-----------------------------------------------------------

  Dipole Moment: [D]
     X:     2.4958      Y:    -0.3760      Z:     0.0148     Total:     2.5240

*** Psi4 exiting successfully. Buy a developer a beer!
