                               Psi4 1.4a3.dev225

  ==> Input File <==

--------------------------------------------------------------------------
#psi4
#
memory 32 gb

molecule  {
0 1
  O       -0.5230660    -0.8124530    -0.0079950
  O        0.1289150     1.3564030    -0.0013430
  O       -1.8621010    -0.2365450     0.0068560
  C        1.7937210    -0.4249780     0.0036230
  C        0.4527435     0.2059970    -0.0073564
  H        2.2615610    -0.2048250     0.9659560
  H        1.7606640    -1.5032570    -0.1498870
  H        2.3854820     0.0509630    -0.7800310
  H       -1.6289270     0.7283940     0.0063510
units angstrom
no_reorient  #important for SAPT in psi4, default
symmetry c1  #important for SAPT in psi4, default
}

set PROPERTIES_ORIGIN ["COM"]
properties('MP2/aug-cc-pvtz', properties = ['dipole'])
--------------------------------------------------------------------------

    Molecular point group: c1
  Charge       = 0
  Multiplicity = 1
  Basis Set: AUG-CC-PVTZ
    Blend: AUG-CC-PVTZ
  Basis Set: (AUG-CC-PVTZ AUX)
    Blend: AUG-CC-PVTZ-JKFIT

    Orbital Energies [Eh]
    ---------------------

    Doubly Occupied:

       1A    -20.663688     2A    -20.640684     3A    -20.586920
       4A    -11.415874     5A    -11.268095     6A     -1.517500
       7A     -1.422981     8A     -1.247626     9A     -1.042759
      10A     -0.821804    11A     -0.745779    12A     -0.694825
      13A     -0.688403    14A     -0.622113    15A     -0.612379
      16A     -0.591819    17A     -0.567598    18A     -0.543443
      19A     -0.491704    20A     -0.470723

  @DF-RHF Final Energy:  -302.67738963379975

   => Energetics <=

    Nuclear Repulsion Energy =            180.1257885566415666
    One-Electron Energy =                -772.2929220713810992
    Two-Electron Energy =                 289.4897438809398409
    Total Energy =                       -302.6773896337997485
  Basis Set: (AUG-CC-PVTZ AUX)
    Blend: AUG-CC-PVTZ-RI
    Molecular point group: c1

    Geometry (in Angstrom), charge = 0, multiplicity = 1:

       Center              X                  Y                   Z               Mass
    ------------   -----------------  -----------------  -----------------  -----------------
         O           -0.466304167019    -0.830253879322    -0.007445385990    15.994914619570
         O            0.185676832981     1.338602120678    -0.000793385990    15.994914619570
         O           -1.805339167019    -0.254345879322     0.007405614010    15.994914619570
         C            1.850482832981    -0.442778879322     0.004172614010    12.000000000000
         C            0.509505332981     0.188196120678    -0.006806785990    12.000000000000
         H            2.318322832981    -0.222625879322     0.966505614010     1.007825032230
         H            1.817425832981    -1.521057879322    -0.149337385990     1.007825032230
         H            2.442243832981     0.033162120678    -0.779481385990     1.007825032230
         H           -1.572165167019     0.710593120678     0.006900614010     1.007825032230

  Basis Set: AUG-CC-PVTZ
    Blend: AUG-CC-PVTZ
  Basis Set: (AUG-CC-PVTZ AUX)
    Blend: AUG-CC-PVTZ-JKFIT
	 Reference Energy          =    -302.6773896337997485 [Eh]
	 Singles Energy            =      -0.0000000000000000 [Eh]
	 Same-Spin Energy          =      -0.2839655561086836 [Eh]
	 Opposite-Spin Energy      =      -0.8667889444058887 [Eh]
	 Correlation Energy        =      -1.1507545005145723 [Eh]
	 Total Energy              =    -303.8281441343143001 [Eh]

	 ================> DF-SCS-MP2 Energies <==================
	-----------------------------------------------------------
	 SCS Same-Spin Scale       =       0.3333333333333333 [-]
	 SCS Opposite-Spin Scale   =       1.2000000000000000 [-]
	 SCS Same-Spin Energy      =      -0.0946551853695612 [Eh]
	 SCS Opposite-Spin Energy  =      -1.0401467332870664 [Eh]
	 SCS Correlation Energy    =      -1.1348019186566276 [Eh]
	 SCS Total Energy          =    -303.8121915524563974 [Eh]
	-----------------------------------------------------------

  Dipole Moment: [D]
     X:     2.7086      Y:    -0.2228      Z:     0.0161     Total:     2.7178

*** Psi4 exiting successfully. Buy a developer a beer!
