                               Psi4 1.3.2 release

  ==> Input File <==

--------------------------------------------------------------------------
#psi4
#
memory 32 gb

molecule  {
0 1
  O       -0.5230660    -0.8124530    -0.0079950
  O        0.1289150     1.3564030    -0.0013430
  O       -1.8621010    -0.2365450     0.0068560
  C        1.7937210    -0.4249780     0.0036230
  C        0.2345871     0.2492776    -0.0088472
  H        2.2615610    -0.2048250     0.9659560
  H        1.7606640    -1.5032570    -0.1498870
  H        2.3854820     0.0509630    -0.7800310
  H       -1.6289270     0.7283940     0.0063510
units angstrom
no_reorient  #important for SAPT in psi4, default
symmetry c1  #important for SAPT in psi4, default
}

set PROPERTIES_ORIGIN ["COM"]
properties('MP2/aug-cc-pvtz', properties = ['dipole'])
--------------------------------------------------------------------------

    Molecular point group: c1
  Charge       = 0
  Multiplicity = 1
  Basis Set: AUG-CC-PVTZ
    Blend: AUG-CC-PVTZ
  Basis Set: (AUG-CC-PVTZ AUX)
    Blend: AUG-CC-PVTZ-JKFIT

    Orbital Energies [Eh]
    ---------------------

    Doubly Occupied:

       1A    -20.694898     2A    -20.655193     3A    -20.595353
       4A    -11.407920     5A    -11.246892     6A     -1.574264
       7A     -1.486514     8A     -1.285747     9A     -0.974107
      10A     -0.855722    11A     -0.755447    12A     -0.726079
      13A     -0.716994    14A     -0.636734    15A     -0.611413
      16A     -0.604601    17A     -0.558437    18A     -0.556751
      19A     -0.498699    20A     -0.444189

  @DF-RHF Final Energy:  -302.63743274672822

   => Energetics <=

    Nuclear Repulsion Energy =            182.3544131828807053
    One-Electron Energy =                -776.2117829726680611
    Two-Electron Energy =                 291.2199370430590761
    Total Energy =                       -302.6374327467282228
  Basis Set: (AUG-CC-PVTZ AUX)
    Blend: AUG-CC-PVTZ-RI
    Molecular point group: c1

    Geometry (in Angstrom), charge = 0, multiplicity = 1:

       Center              X                  Y                   Z               Mass
    ------------   -----------------  -----------------  -----------------  -----------------
         O           -0.431865689789    -0.837086215928    -0.007210046197    15.994914619570
         O            0.220115310211     1.331769784072    -0.000558046197    15.994914619570
         O           -1.770900689789    -0.261178215928     0.007640953803    15.994914619570
         C            1.884921310211    -0.449611215928     0.004407953803    12.000000000000
         C            0.325787410211     0.224644384072    -0.008062246197    12.000000000000
         H            2.352761310211    -0.229458215928     0.966740953803     1.007825032230
         H            1.851864310211    -1.527890215928    -0.149102046197     1.007825032230
         H            2.476682310211     0.026329784072    -0.779246046197     1.007825032230
         H           -1.537726689789     0.703760784072     0.007135953803     1.007825032230

  Basis Set: AUG-CC-PVTZ
    Blend: AUG-CC-PVTZ
  Basis Set: (AUG-CC-PVTZ AUX)
    Blend: AUG-CC-PVTZ-JKFIT
	 Reference Energy          =    -302.6374327467282228 [Eh]
	 Singles Energy            =      -0.0000000000000000 [Eh]
	 Same-Spin Energy          =      -0.2821127812541920 [Eh]
	 Opposite-Spin Energy      =      -0.8637475388111735 [Eh]
	 Correlation Energy        =      -1.1458603200653656 [Eh]
	 Total Energy              =    -303.7832930667935898 [Eh]

	 ================> DF-SCS-MP2 Energies <==================
	-----------------------------------------------------------
	 SCS Same-Spin Scale       =       0.3333333333333333 [-]
	 SCS Opposite-Spin Scale   =       1.2000000000000000 [-]
	 SCS Same-Spin Energy      =      -0.0940375937513973 [Eh]
	 SCS Opposite-Spin Energy  =      -1.0364970465734082 [Eh]
	 SCS Correlation Energy    =      -1.1305346403248056 [Eh]
	 SCS Total Energy          =    -303.7679673870530337 [Eh]
	-----------------------------------------------------------

  Dipole Moment: [D]
     X:     1.3433      Y:     0.0671      Z:     0.0035     Total:     1.3449

*** Psi4 exiting successfully. Buy a developer a beer!
