                               Psi4 1.3.2 release

  ==> Input File <==

--------------------------------------------------------------------------
#psi4
#
memory 32 gb

molecule  {
0 1
  O       -0.5037829    -0.7653678    -0.0081007
  O        0.1289150     1.3564030    -0.0013430
  O       -1.8621010    -0.2365450     0.0068560
  C        1.7937210    -0.4249780     0.0036230
  C        0.4181520     0.1698940    -0.0073790
  H        2.2615610    -0.2048250     0.9659560
  H        1.7606640    -1.5032570    -0.1498870
  H        2.3854820     0.0509630    -0.7800310
  H       -1.6289270     0.7283940     0.0063510
units angstrom
no_reorient  #important for SAPT in psi4, default
symmetry c1  #important for SAPT in psi4, default
}

set PROPERTIES_ORIGIN ["COM"]
properties('MP2/aug-cc-pvtz', properties = ['dipole'])
--------------------------------------------------------------------------

    Molecular point group: c1
  Charge       = 0
  Multiplicity = 1
  Basis Set: AUG-CC-PVTZ
    Blend: AUG-CC-PVTZ
  Basis Set: (AUG-CC-PVTZ AUX)
    Blend: AUG-CC-PVTZ-JKFIT

    Orbital Energies [Eh]
    ---------------------

    Doubly Occupied:

       1A    -20.677374     2A    -20.657294     3A    -20.568552
       4A    -11.408587     5A    -11.264174     6A     -1.546381
       7A     -1.400465     8A     -1.281111     9A     -1.033537
      10A     -0.840766    11A     -0.736467    12A     -0.705421
      13A     -0.702427    14A     -0.622803    15A     -0.609971
      16A     -0.594103    17A     -0.571313    18A     -0.536628
      19A     -0.483534    20A     -0.478412

  @DF-RHF Final Energy:  -302.68141893890009

   => Energetics <=

    Nuclear Repulsion Energy =            181.5591183678503171
    One-Electron Energy =                -775.0424368282879186
    Two-Electron Energy =                 290.8018995215375639
    Total Energy =                       -302.6814189389000944
  Basis Set: (AUG-CC-PVTZ AUX)
    Blend: AUG-CC-PVTZ-RI
    Molecular point group: c1

    Geometry (in Angstrom), charge = 0, multiplicity = 1:

       Center              X                  Y                   Z               Mass
    ------------   -----------------  -----------------  -----------------  -----------------
         O           -0.445617857166    -0.787376840351    -0.007525277458    15.994914619570
         O            0.187080042834     1.334393959649    -0.000767577458    15.994914619570
         O           -1.803935957166    -0.258554040351     0.007431422542    15.994914619570
         C            1.851886042834    -0.446987040351     0.004198422542    12.000000000000
         C            0.476317042834     0.147884959649    -0.006803577458    12.000000000000
         H            2.319726042834    -0.226834040351     0.966531422542     1.007825032230
         H            1.818829042834    -1.525266040351    -0.149311577458     1.007825032230
         H            2.443647042834     0.028953959649    -0.779455577458     1.007825032230
         H           -1.570761957166     0.706384959649     0.006926422542     1.007825032230

  Basis Set: AUG-CC-PVTZ
    Blend: AUG-CC-PVTZ
  Basis Set: (AUG-CC-PVTZ AUX)
    Blend: AUG-CC-PVTZ-JKFIT
	 Reference Energy          =    -302.6814189389000944 [Eh]
	 Singles Energy            =      -0.0000000000000000 [Eh]
	 Same-Spin Energy          =      -0.2833028575012915 [Eh]
	 Opposite-Spin Energy      =      -0.8645152544898497 [Eh]
	 Correlation Energy        =      -1.1478181119911413 [Eh]
	 Total Energy              =    -303.8292370508912086 [Eh]

	 ================> DF-SCS-MP2 Energies <==================
	-----------------------------------------------------------
	 SCS Same-Spin Scale       =       0.3333333333333333 [-]
	 SCS Opposite-Spin Scale   =       1.2000000000000000 [-]
	 SCS Same-Spin Energy      =      -0.0944342858337638 [Eh]
	 SCS Opposite-Spin Energy  =      -1.0374183053878197 [Eh]
	 SCS Correlation Energy    =      -1.1318525912215835 [Eh]
	 SCS Total Energy          =    -303.8132715301216535 [Eh]
	-----------------------------------------------------------

  Dipole Moment: [D]
     X:     2.2471      Y:    -0.6821      Z:     0.0142     Total:     2.3483

*** Psi4 exiting successfully. Buy a developer a beer!
