                               Psi4 1.4a3.dev225

  ==> Input File <==

--------------------------------------------------------------------------
#psi4
#
memory 32 gb

molecule  {
0 1
  O       -0.5230660    -0.8124530    -0.0079950
  O        0.1289150     1.3564030    -0.0013430
  O       -1.8621010    -0.2365450     0.0068560
  C        1.7937210    -0.4249780     0.0036230
  C        0.4181520     0.1698940    -0.0073790
  H        2.2615610    -0.2048250     0.9659560
  H        1.7606640    -1.5032570    -0.1498870
  H        2.3854820     0.0509630    -0.7800310
  H       -1.6242293     0.7478345     0.0063408
units angstrom
no_reorient  #important for SAPT in psi4, default
symmetry c1  #important for SAPT in psi4, default
}

set PROPERTIES_ORIGIN ["COM"]
properties('MP2/aug-cc-pvtz', properties = ['dipole'])
--------------------------------------------------------------------------

    Molecular point group: c1
  Charge       = 0
  Multiplicity = 1
  Basis Set: AUG-CC-PVTZ
    Blend: AUG-CC-PVTZ
  Basis Set: (AUG-CC-PVTZ AUX)
    Blend: AUG-CC-PVTZ-JKFIT

    Orbital Energies [Eh]
    ---------------------

    Doubly Occupied:

       1A    -20.675928     2A    -20.650263     3A    -20.578736
       4A    -11.415501     5A    -11.266009     6A     -1.529897
       7A     -1.405650     8A     -1.262497     9A     -1.035188
      10A     -0.831715    11A     -0.738766    12A     -0.696736
      13A     -0.695774    14A     -0.616413    15A     -0.610587
      16A     -0.594180    17A     -0.570983    18A     -0.536098
      19A     -0.487888    20A     -0.476951

  @DF-RHF Final Energy:  -302.67843251182592

   => Energetics <=

    Nuclear Repulsion Energy =            180.2749288914516796
    One-Electron Energy =                -772.5552030932624348
    Two-Electron Energy =                 289.6018416899847807
    Total Energy =                       -302.6784325118259176
  Basis Set: (AUG-CC-PVTZ AUX)
    Blend: AUG-CC-PVTZ-RI
    Molecular point group: c1

    Geometry (in Angstrom), charge = 0, multiplicity = 1:

       Center              X                  Y                   Z               Mass
    ------------   -----------------  -----------------  -----------------  -----------------
         O           -0.460905786377    -0.824812352037    -0.007441683089    15.994914619570
         O            0.191075213623     1.344043647963    -0.000789683089    15.994914619570
         O           -1.799940786377    -0.248904352037     0.007409316911    15.994914619570
         C            1.855881213623    -0.437337352037     0.004176316911    12.000000000000
         C            0.480312213623     0.157534647963    -0.006825683089    12.000000000000
         H            2.323721213623    -0.217184352037     0.966509316911     1.007825032230
         H            1.822824213623    -1.515616352037    -0.149333683089     1.007825032230
         H            2.447642213623     0.038603647963    -0.779477683089     1.007825032230
         H           -1.562069086377     0.735475147963     0.006894116911     1.007825032230

  Basis Set: AUG-CC-PVTZ
    Blend: AUG-CC-PVTZ
  Basis Set: (AUG-CC-PVTZ AUX)
    Blend: AUG-CC-PVTZ-JKFIT
	 Reference Energy          =    -302.6784325118259176 [Eh]
	 Singles Energy            =      -0.0000000000000000 [Eh]
	 Same-Spin Energy          =      -0.2841769717849455 [Eh]
	 Opposite-Spin Energy      =      -0.8670770298562309 [Eh]
	 Correlation Energy        =      -1.1512540016411763 [Eh]
	 Total Energy              =    -303.8296865134670952 [Eh]

	 ================> DF-SCS-MP2 Energies <==================
	-----------------------------------------------------------
	 SCS Same-Spin Scale       =       0.3333333333333333 [-]
	 SCS Opposite-Spin Scale   =       1.2000000000000000 [-]
	 SCS Same-Spin Energy      =      -0.0947256572616485 [Eh]
	 SCS Opposite-Spin Energy  =      -1.0404924358274770 [Eh]
	 SCS Correlation Energy    =      -1.1352180930891254 [Eh]
	 SCS Total Energy          =    -303.8136506049150398 [Eh]
	-----------------------------------------------------------

  Dipole Moment: [D]
     X:     2.4218      Y:    -0.4750      Z:     0.0149     Total:     2.4679

*** Psi4 exiting successfully. Buy a developer a beer!
