                               Psi4 1.4a3.dev225

  ==> Input File <==

--------------------------------------------------------------------------
#psi4
#
memory 32 gb

molecule  {
0 1
  O       -0.5230660    -0.8124530    -0.0079950
  O        0.1289150     1.3564030    -0.0013430
  O       -1.9080305    -0.2167911     0.0073654
  C        1.7937210    -0.4249780     0.0036230
  C        0.4181520     0.1698940    -0.0073790
  H        2.2615610    -0.2048250     0.9659560
  H        1.7606640    -1.5032570    -0.1498870
  H        2.3854820     0.0509630    -0.7800310
  H       -1.6289270     0.7283940     0.0063510
units angstrom
no_reorient  #important for SAPT in psi4, default
symmetry c1  #important for SAPT in psi4, default
}

set PROPERTIES_ORIGIN ["COM"]
properties('MP2/aug-cc-pvtz', properties = ['dipole'])
--------------------------------------------------------------------------

    Molecular point group: c1
  Charge       = 0
  Multiplicity = 1
  Basis Set: AUG-CC-PVTZ
    Blend: AUG-CC-PVTZ
  Basis Set: (AUG-CC-PVTZ AUX)
    Blend: AUG-CC-PVTZ-JKFIT

    Orbital Energies [Eh]
    ---------------------

    Doubly Occupied:

       1A    -20.675951     2A    -20.656663     3A    -20.578017
       4A    -11.415933     5A    -11.266487     6A     -1.517254
       7A     -1.402666     8A     -1.274994     9A     -1.036146
      10A     -0.825115    11A     -0.738642    12A     -0.692925
      13A     -0.690594    14A     -0.625149    15A     -0.608954
      16A     -0.596142    17A     -0.565707    18A     -0.538059
      19A     -0.486878    20A     -0.484201

  @DF-RHF Final Energy:  -302.67472482329549

   => Energetics <=

    Nuclear Repulsion Energy =            179.1824117002241508
    One-Electron Energy =                -770.3613203106547189
    Two-Electron Energy =                 288.5041837871350481
    Total Energy =                       -302.6747248232954917
  Basis Set: (AUG-CC-PVTZ AUX)
    Blend: AUG-CC-PVTZ-RI
    Molecular point group: c1

    Geometry (in Angstrom), charge = 0, multiplicity = 1:

       Center              X                  Y                   Z               Mass
    ------------   -----------------  -----------------  -----------------  -----------------
         O           -0.451179249032    -0.828711125320    -0.007549003714    15.994914619570
         O            0.200801750968     1.340144874680    -0.000897003714    15.994914619570
         O           -1.836143749032    -0.233049225320     0.007811396286    15.994914619570
         C            1.865607750968    -0.441236125320     0.004068996286    12.000000000000
         C            0.490038750968     0.153635874680    -0.006933003714    12.000000000000
         H            2.333447750968    -0.221083125320     0.966401996286     1.007825032230
         H            1.832550750968    -1.519515125320    -0.149441003714     1.007825032230
         H            2.457368750968     0.034704874680    -0.779585003714     1.007825032230
         H           -1.557040249032     0.712135874680     0.006796996286     1.007825032230

  Basis Set: AUG-CC-PVTZ
    Blend: AUG-CC-PVTZ
  Basis Set: (AUG-CC-PVTZ AUX)
    Blend: AUG-CC-PVTZ-JKFIT
	 Reference Energy          =    -302.6747248232954917 [Eh]
	 Singles Energy            =      -0.0000000000000000 [Eh]
	 Same-Spin Energy          =      -0.2842285312973831 [Eh]
	 Opposite-Spin Energy      =      -0.8692582237434696 [Eh]
	 Correlation Energy        =      -1.1534867550408527 [Eh]
	 Total Energy              =    -303.8282115783363224 [Eh]

	 ================> DF-SCS-MP2 Energies <==================
	-----------------------------------------------------------
	 SCS Same-Spin Scale       =       0.3333333333333333 [-]
	 SCS Opposite-Spin Scale   =       1.2000000000000000 [-]
	 SCS Same-Spin Energy      =      -0.0947428437657944 [Eh]
	 SCS Opposite-Spin Energy  =      -1.0431098684921636 [Eh]
	 SCS Correlation Energy    =      -1.1378527122579580 [Eh]
	 SCS Total Energy          =    -303.8125775355534302 [Eh]
	-----------------------------------------------------------

  Dipole Moment: [D]
     X:     2.5068      Y:    -0.5117      Z:     0.0145     Total:     2.5585

*** Psi4 exiting successfully. Buy a developer a beer!
