                               Psi4 1.4a3.dev225

  ==> Input File <==

--------------------------------------------------------------------------
#psi4
#
memory 32 gb

molecule  {
0 1
  O       -0.5230660    -0.8124530    -0.0079950
  O        0.1289150     1.3564030    -0.0013430
  O       -1.8621010    -0.2365450     0.0068560
  C        1.7937210    -0.4249780     0.0036230
  C        0.4134153     0.1893248    -0.0072802
  H        2.2615610    -0.2048250     0.9659560
  H        1.7606640    -1.5032570    -0.1498870
  H        2.3854820     0.0509630    -0.7800310
  H       -1.6289270     0.7283940     0.0063510
units angstrom
no_reorient  #important for SAPT in psi4, default
symmetry c1  #important for SAPT in psi4, default
}

set PROPERTIES_ORIGIN ["COM"]
properties('MP2/aug-cc-pvtz', properties = ['dipole'])
--------------------------------------------------------------------------

    Molecular point group: c1
  Charge       = 0
  Multiplicity = 1
  Basis Set: AUG-CC-PVTZ
    Blend: AUG-CC-PVTZ
  Basis Set: (AUG-CC-PVTZ AUX)
    Blend: AUG-CC-PVTZ-JKFIT

    Orbital Energies [Eh]
    ---------------------

    Doubly Occupied:

       1A    -20.673687     2A    -20.647189     3A    -20.582409
       4A    -11.414054     5A    -11.265556     6A     -1.529824
       7A     -1.419120     8A     -1.261869     9A     -1.031439
      10A     -0.831330    11A     -0.742025    12A     -0.697332
      13A     -0.695189    14A     -0.618250    15A     -0.609965
      16A     -0.598369    17A     -0.568842    18A     -0.541631
      19A     -0.488517    20A     -0.477548

  @DF-RHF Final Energy:  -302.68071329500589

   => Energetics <=

    Nuclear Repulsion Energy =            180.4492480977825437
    One-Electron Energy =                -772.8716346845434373
    Two-Electron Energy =                 289.7416732917550348
    Total Energy =                       -302.6807132950058872
  Basis Set: (AUG-CC-PVTZ AUX)
    Blend: AUG-CC-PVTZ-RI
    Molecular point group: c1

    Geometry (in Angstrom), charge = 0, multiplicity = 1:

       Center              X                  Y                   Z               Mass
    ------------   -----------------  -----------------  -----------------  -----------------
         O           -0.460095761855    -0.827621982297    -0.007457415029    15.994914619570
         O            0.191885238145     1.341234017703    -0.000805415029    15.994914619570
         O           -1.799130761855    -0.251713982297     0.007393584971    15.994914619570
         C            1.856691238145    -0.440146982297     0.004160584971    12.000000000000
         C            0.476385538145     0.174155817703    -0.006742615029    12.000000000000
         H            2.324531238145    -0.219993982297     0.966493584971     1.007825032230
         H            1.823634238145    -1.518425982297    -0.149349415029     1.007825032230
         H            2.448452238145     0.035794017703    -0.779493415029     1.007825032230
         H           -1.565956761855     0.713225017703     0.006888584971     1.007825032230

  Basis Set: AUG-CC-PVTZ
    Blend: AUG-CC-PVTZ
  Basis Set: (AUG-CC-PVTZ AUX)
    Blend: AUG-CC-PVTZ-JKFIT
	 Reference Energy          =    -302.6807132950058872 [Eh]
	 Singles Energy            =      -0.0000000000000000 [Eh]
	 Same-Spin Energy          =      -0.2834857343830833 [Eh]
	 Opposite-Spin Energy      =      -0.8658710078220319 [Eh]
	 Correlation Energy        =      -1.1493567422051152 [Eh]
	 Total Energy              =    -303.8300700372109873 [Eh]

	 ================> DF-SCS-MP2 Energies <==================
	-----------------------------------------------------------
	 SCS Same-Spin Scale       =       0.3333333333333333 [-]
	 SCS Opposite-Spin Scale   =       1.2000000000000000 [-]
	 SCS Same-Spin Energy      =      -0.0944952447943611 [Eh]
	 SCS Opposite-Spin Energy  =      -1.0390452093864382 [Eh]
	 SCS Correlation Energy    =      -1.1335404541807992 [Eh]
	 SCS Total Energy          =    -303.8142537491866619 [Eh]
	-----------------------------------------------------------

  Dipole Moment: [D]
     X:     2.4195      Y:    -0.3613      Z:     0.0143     Total:     2.4464

*** Psi4 exiting successfully. Buy a developer a beer!
