                               Psi4 1.3.2 release

  ==> Input File <==

--------------------------------------------------------------------------
#psi4
#
memory 32 gb

molecule  {
0 1
  O       -0.5892961    -0.7444057    -0.0087208
  O        0.1289150     1.3564030    -0.0013430
  O       -1.8621010    -0.2365450     0.0068560
  C        1.7937210    -0.4249780     0.0036230
  C        0.4181520     0.1698940    -0.0073790
  H        2.2615610    -0.2048250     0.9659560
  H        1.7606640    -1.5032570    -0.1498870
  H        2.3854820     0.0509630    -0.7800310
  H       -1.6289270     0.7283940     0.0063510
units angstrom
no_reorient  #important for SAPT in psi4, default
symmetry c1  #important for SAPT in psi4, default
}

set PROPERTIES_ORIGIN ["COM"]
properties('MP2/aug-cc-pvtz', properties = ['dipole'])
--------------------------------------------------------------------------

    Molecular point group: c1
  Charge       = 0
  Multiplicity = 1
  Basis Set: AUG-CC-PVTZ
    Blend: AUG-CC-PVTZ
  Basis Set: (AUG-CC-PVTZ AUX)
    Blend: AUG-CC-PVTZ-JKFIT

    Orbital Energies [Eh]
    ---------------------

    Doubly Occupied:

       1A    -20.667351     2A    -20.644065     3A    -20.573859
       4A    -11.414392     5A    -11.270089     6A     -1.563402
       7A     -1.409940     8A     -1.249854     9A     -1.037597
      10A     -0.849187    11A     -0.741091    12A     -0.706881
      13A     -0.703541    14A     -0.621443    15A     -0.617594
      16A     -0.589552    17A     -0.576586    18A     -0.535644
      19A     -0.487000    20A     -0.459244

  @DF-RHF Final Energy:  -302.68165680719181

   => Energetics <=

    Nuclear Repulsion Energy =            181.9075590186990325
    One-Electron Energy =                -775.7418079871961254
    Two-Electron Energy =                 291.1525921613053356
    Total Energy =                       -302.6816568071918141
  Basis Set: (AUG-CC-PVTZ AUX)
    Blend: AUG-CC-PVTZ-RI
    Molecular point group: c1

    Geometry (in Angstrom), charge = 0, multiplicity = 1:

       Center              X                  Y                   Z               Mass
    ------------   -----------------  -----------------  -----------------  -----------------
         O           -0.513137798623    -0.770825480270    -0.008014899127    15.994914619570
         O            0.205073301377     1.329983219730    -0.000637099127    15.994914619570
         O           -1.785942698623    -0.262964780270     0.007561900873    15.994914619570
         C            1.869879301377    -0.451397780270     0.004328900873    12.000000000000
         C            0.494310301377     0.143474219730    -0.006673099127    12.000000000000
         H            2.337719301377    -0.231244780270     0.966661900873     1.007825032230
         H            1.836822301377    -1.529676780270    -0.149181099127     1.007825032230
         H            2.461640301377     0.024543219730    -0.779325099127     1.007825032230
         H           -1.552768698623     0.701974219730     0.007056900873     1.007825032230

  Basis Set: AUG-CC-PVTZ
    Blend: AUG-CC-PVTZ
  Basis Set: (AUG-CC-PVTZ AUX)
    Blend: AUG-CC-PVTZ-JKFIT
	 Reference Energy          =    -302.6816568071918141 [Eh]
	 Singles Energy            =      -0.0000000000000000 [Eh]
	 Same-Spin Energy          =      -0.2828957570347813 [Eh]
	 Opposite-Spin Energy      =      -0.8610839372364513 [Eh]
	 Correlation Energy        =      -1.1439796942712326 [Eh]
	 Total Energy              =    -303.8256365014630660 [Eh]

	 ================> DF-SCS-MP2 Energies <==================
	-----------------------------------------------------------
	 SCS Same-Spin Scale       =       0.3333333333333333 [-]
	 SCS Opposite-Spin Scale   =       1.2000000000000000 [-]
	 SCS Same-Spin Energy      =      -0.0942985856782604 [Eh]
	 SCS Opposite-Spin Energy  =      -1.0333007246837416 [Eh]
	 SCS Correlation Energy    =      -1.1275993103620019 [Eh]
	 SCS Total Energy          =    -303.8092561175538435 [Eh]
	-----------------------------------------------------------

  Dipole Moment: [D]
     X:     2.4127      Y:    -0.6116      Z:     0.0156     Total:     2.4891

*** Psi4 exiting successfully. Buy a developer a beer!
