                               Psi4 1.3.2 release

  ==> Input File <==

--------------------------------------------------------------------------
#psi4
#
memory 32 gb

molecule  {
0 1
  O       -0.5230660    -0.8124530    -0.0079950
  O        0.1289150     1.3564030    -0.0013430
  O       -1.8621010    -0.2365450     0.0068560
  C        1.7937210    -0.4249780     0.0036230
  C        0.4181520     0.1698940    -0.0073790
  H        2.2615610    -0.2048250     0.9659560
  H        1.7606640    -1.5032570    -0.1498870
  H        2.3854820     0.0509630    -0.7800310
  H       -1.6759042     0.5339894     0.0064527
units angstrom
no_reorient  #important for SAPT in psi4, default
symmetry c1  #important for SAPT in psi4, default
}

set PROPERTIES_ORIGIN ["COM"]
properties('MP2/aug-cc-pvtz', properties = ['dipole'])
--------------------------------------------------------------------------

    Molecular point group: c1
  Charge       = 0
  Multiplicity = 1
  Basis Set: AUG-CC-PVTZ
    Blend: AUG-CC-PVTZ
  Basis Set: (AUG-CC-PVTZ AUX)
    Blend: AUG-CC-PVTZ-JKFIT

    Orbital Energies [Eh]
    ---------------------

    Doubly Occupied:

       1A    -20.682609     2A    -20.638632     3A    -20.575160
       4A    -11.415421     5A    -11.266563     6A     -1.557457
       7A     -1.412607     8A     -1.311424     9A     -1.038881
      10A     -0.859239    11A     -0.742982    12A     -0.701973
      13A     -0.700567    14A     -0.646206    15A     -0.614683
      16A     -0.603753    17A     -0.577402    18A     -0.538682
      19A     -0.484387    20A     -0.483813

  @DF-RHF Final Energy:  -302.64245058546516

   => Energetics <=

    Nuclear Repulsion Energy =            181.4627031590858621
    One-Electron Energy =                -774.5054230869018284
    Two-Electron Energy =                 290.4002693423507822
    Total Energy =                       -302.6424505854651557
  Basis Set: (AUG-CC-PVTZ AUX)
    Blend: AUG-CC-PVTZ-RI
    Molecular point group: c1

    Geometry (in Angstrom), charge = 0, multiplicity = 1:

       Center              X                  Y                   Z               Mass
    ------------   -----------------  -----------------  -----------------  -----------------
         O           -0.460220677615    -0.821977181546    -0.007443166666    15.994914619570
         O            0.191760322385     1.346878818454    -0.000791166666    15.994914619570
         O           -1.799255677615    -0.246069181546     0.007407833334    15.994914619570
         C            1.856566322385    -0.434502181546     0.004174833334    12.000000000000
         C            0.480997322385     0.160369818454    -0.006827166666    12.000000000000
         H            2.324406322385    -0.214349181546     0.966507833334     1.007825032230
         H            1.823509322385    -1.512781181546    -0.149335166666     1.007825032230
         H            2.448327322385     0.041438818454    -0.779479166666     1.007825032230
         H           -1.613058877615     0.524465218454     0.007004533334     1.007825032230

  Basis Set: AUG-CC-PVTZ
    Blend: AUG-CC-PVTZ
  Basis Set: (AUG-CC-PVTZ AUX)
    Blend: AUG-CC-PVTZ-JKFIT
	 Reference Energy          =    -302.6424505854651557 [Eh]
	 Singles Energy            =      -0.0000000000000000 [Eh]
	 Same-Spin Energy          =      -0.2806435956947972 [Eh]
	 Opposite-Spin Energy      =      -0.8604458044116088 [Eh]
	 Correlation Energy        =      -1.1410894001064060 [Eh]
	 Total Energy              =    -303.7835399855715650 [Eh]

	 ================> DF-SCS-MP2 Energies <==================
	-----------------------------------------------------------
	 SCS Same-Spin Scale       =       0.3333333333333333 [-]
	 SCS Opposite-Spin Scale   =       1.2000000000000000 [-]
	 SCS Same-Spin Energy      =      -0.0935478652315991 [Eh]
	 SCS Opposite-Spin Energy  =      -1.0325349652939304 [Eh]
	 SCS Correlation Energy    =      -1.1260828305255295 [Eh]
	 SCS Total Energy          =    -303.7685334159907029 [Eh]
	-----------------------------------------------------------

  Dipole Moment: [D]
     X:     2.3288      Y:    -0.7196      Z:     0.0147     Total:     2.4375

*** Psi4 exiting successfully. Buy a developer a beer!
