                               Psi4 1.3.2 release

  ==> Input File <==

--------------------------------------------------------------------------
#psi4
#
memory 32 gb

molecule  {
0 1
  O       -0.4522491    -0.8757149    -0.0085224
  O        0.1289150     1.3564030    -0.0013430
  O       -1.8621010    -0.2365450     0.0068560
  C        1.7937210    -0.4249780     0.0036230
  C        0.4181520     0.1698940    -0.0073790
  H        2.2615610    -0.2048250     0.9659560
  H        1.7606640    -1.5032570    -0.1498870
  H        2.3854820     0.0509630    -0.7800310
  H       -1.6289270     0.7283940     0.0063510
units angstrom
no_reorient  #important for SAPT in psi4, default
symmetry c1  #important for SAPT in psi4, default
}

set PROPERTIES_ORIGIN ["COM"]
properties('MP2/aug-cc-pvtz', properties = ['dipole'])
--------------------------------------------------------------------------

    Molecular point group: c1
  Charge       = 0
  Multiplicity = 1
  Basis Set: AUG-CC-PVTZ
    Blend: AUG-CC-PVTZ
  Basis Set: (AUG-CC-PVTZ AUX)
    Blend: AUG-CC-PVTZ-JKFIT

    Orbital Energies [Eh]
    ---------------------

    Doubly Occupied:

       1A    -20.684597     2A    -20.656013     3A    -20.582046
       4A    -11.416958     5A    -11.262074     6A     -1.509204
       7A     -1.401720     8A     -1.281537     9A     -1.032983
      10A     -0.822199    11A     -0.737200    12A     -0.691716
      13A     -0.689634    14A     -0.624113    15A     -0.604922
      16A     -0.604209    17A     -0.551652    18A     -0.537219
      19A     -0.492950    20A     -0.486517

  @DF-RHF Final Energy:  -302.66505603663643

   => Energetics <=

    Nuclear Repulsion Energy =            179.0170493117037722
    One-Electron Energy =                -770.0252857753279159
    Two-Electron Energy =                 288.3431804269877148
    Total Energy =                       -302.6650560366364289
  Basis Set: (AUG-CC-PVTZ AUX)
    Blend: AUG-CC-PVTZ-RI
    Molecular point group: c1

    Geometry (in Angstrom), charge = 0, multiplicity = 1:

       Center              X                  Y                   Z               Mass
    ------------   -----------------  -----------------  -----------------  -----------------
         O           -0.404927540828    -0.874505257157    -0.007858245460    15.994914619570
         O            0.176236559172     1.357612642843    -0.000678845460    15.994914619570
         O           -1.814779440828    -0.235335357157     0.007520154540    15.994914619570
         C            1.841042559172    -0.423768357157     0.004287154540    12.000000000000
         C            0.465473559172     0.171103642843    -0.006714845460    12.000000000000
         H            2.308882559172    -0.203615357157     0.966620154540     1.007825032230
         H            1.807985559172    -1.502047357157    -0.149222845460     1.007825032230
         H            2.432803559172     0.052172642843    -0.779366845460     1.007825032230
         H           -1.581605440828     0.729603642843     0.007015154540     1.007825032230

  Basis Set: AUG-CC-PVTZ
    Blend: AUG-CC-PVTZ
  Basis Set: (AUG-CC-PVTZ AUX)
    Blend: AUG-CC-PVTZ-JKFIT
	 Reference Energy          =    -302.6650560366364289 [Eh]
	 Singles Energy            =      -0.0000000000000000 [Eh]
	 Same-Spin Energy          =      -0.2853634357885260 [Eh]
	 Opposite-Spin Energy      =      -0.8732589296079817 [Eh]
	 Correlation Energy        =      -1.1586223653965075 [Eh]
	 Total Energy              =    -303.8236784020329537 [Eh]

	 ================> DF-SCS-MP2 Energies <==================
	-----------------------------------------------------------
	 SCS Same-Spin Scale       =       0.3333333333333333 [-]
	 SCS Opposite-Spin Scale   =       1.2000000000000000 [-]
	 SCS Same-Spin Energy      =      -0.0951211452628420 [Eh]
	 SCS Opposite-Spin Energy  =      -1.0479107155295779 [Eh]
	 SCS Correlation Energy    =      -1.1430318607924199 [Eh]
	 SCS Total Energy          =    -303.8080878974288339 [Eh]
	-----------------------------------------------------------

  Dipole Moment: [D]
     X:     2.4018      Y:    -0.4193      Z:     0.0146     Total:     2.4382

*** Psi4 exiting successfully. Buy a developer a beer!
