                               Psi4 1.3.2 release

  ==> Input File <==

--------------------------------------------------------------------------
#psi4
#
memory 32 gb

molecule  {
0 1
  O       -0.5230660    -0.8124530    -0.0079950
  O        0.1704974     1.3657711    -0.0007953
  O       -1.8621010    -0.2365450     0.0068560
  C        1.7937210    -0.4249780     0.0036230
  C        0.4181520     0.1698940    -0.0073790
  H        2.2615610    -0.2048250     0.9659560
  H        1.7606640    -1.5032570    -0.1498870
  H        2.3854820     0.0509630    -0.7800310
  H       -1.6289270     0.7283940     0.0063510
units angstrom
no_reorient  #important for SAPT in psi4, default
symmetry c1  #important for SAPT in psi4, default
}

set PROPERTIES_ORIGIN ["COM"]
properties('MP2/aug-cc-pvtz', properties = ['dipole'])
--------------------------------------------------------------------------

    Molecular point group: c1
  Charge       = 0
  Multiplicity = 1
  Basis Set: AUG-CC-PVTZ
    Blend: AUG-CC-PVTZ
  Basis Set: (AUG-CC-PVTZ AUX)
    Blend: AUG-CC-PVTZ-JKFIT

    Orbital Energies [Eh]
    ---------------------

    Doubly Occupied:

       1A    -20.679478     2A    -20.652737     3A    -20.578616
       4A    -11.415300     5A    -11.263647     6A     -1.532429
       7A     -1.407313     8A     -1.268389     9A     -1.033465
      10A     -0.835727    11A     -0.737364    12A     -0.697518
      13A     -0.696860    14A     -0.619356    15A     -0.610831
      16A     -0.597977    17A     -0.571628    18A     -0.536238
      19A     -0.486030    20A     -0.479480

  @DF-RHF Final Energy:  -302.67947302704010

   => Energetics <=

    Nuclear Repulsion Energy =            180.1037999601423962
    One-Electron Energy =                -772.1657805608052740
    Two-Electron Energy =                 289.3825075736227745
    Total Energy =                       -302.6794730270401033
  Basis Set: (AUG-CC-PVTZ AUX)
    Blend: AUG-CC-PVTZ-RI
    Molecular point group: c1

    Geometry (in Angstrom), charge = 0, multiplicity = 1:

       Center              X                  Y                   Z               Mass
    ------------   -----------------  -----------------  -----------------  -----------------
         O           -0.469593064001    -0.826525797387    -0.007557062608    15.994914619570
         O            0.223970335999     1.351698302613    -0.000357362608    15.994914619570
         O           -1.808628064001    -0.250617797387     0.007293937392    15.994914619570
         C            1.847193935999    -0.439050797387     0.004060937392    12.000000000000
         C            0.471624935999     0.155821202613    -0.006941062608    12.000000000000
         H            2.315033935999    -0.218897797387     0.966393937392     1.007825032230
         H            1.814136935999    -1.517329797387    -0.149449062608     1.007825032230
         H            2.438954935999     0.036890202613    -0.779593062608     1.007825032230
         H           -1.575454064001     0.714321202613     0.006788937392     1.007825032230

  Basis Set: AUG-CC-PVTZ
    Blend: AUG-CC-PVTZ
  Basis Set: (AUG-CC-PVTZ AUX)
    Blend: AUG-CC-PVTZ-JKFIT
	 Reference Energy          =    -302.6794730270401033 [Eh]
	 Singles Energy            =      -0.0000000000000000 [Eh]
	 Same-Spin Energy          =      -0.2837589133191152 [Eh]
	 Opposite-Spin Energy      =      -0.8665434680589994 [Eh]
	 Correlation Energy        =      -1.1503023813781146 [Eh]
	 Total Energy              =    -303.8297754084182429 [Eh]

	 ================> DF-SCS-MP2 Energies <==================
	-----------------------------------------------------------
	 SCS Same-Spin Scale       =       0.3333333333333333 [-]
	 SCS Opposite-Spin Scale   =       1.2000000000000000 [-]
	 SCS Same-Spin Energy      =      -0.0945863044397051 [Eh]
	 SCS Opposite-Spin Energy  =      -1.0398521616707992 [Eh]
	 SCS Correlation Energy    =      -1.1344384661105043 [Eh]
	 SCS Total Energy          =    -303.8139114931506128 [Eh]
	-----------------------------------------------------------

  Dipole Moment: [D]
     X:     2.2719      Y:    -0.5090      Z:     0.0142     Total:     2.3282

*** Psi4 exiting successfully. Buy a developer a beer!
