                               Psi4 1.4a3.dev225

  ==> Input File <==

--------------------------------------------------------------------------
#psi4
#
memory 32 gb

molecule  {
0 1
  O       -0.5230660    -0.8124530    -0.0079950
  O        0.1289150     1.3564030    -0.0013430
  O       -1.8621010    -0.2365450     0.0068560
  C        1.7937210    -0.4249780     0.0036230
  C        0.4181520     0.1698940    -0.0073790
  H        2.2615610    -0.2048250     0.9659560
  H        1.7606640    -1.5032570    -0.1498870
  H        2.3854820     0.0509630    -0.7800310
  H       -1.6406713     0.6797929     0.0063764
units angstrom
no_reorient  #important for SAPT in psi4, default
symmetry c1  #important for SAPT in psi4, default
}

set PROPERTIES_ORIGIN ["COM"]
properties('MP2/aug-cc-pvtz', properties = ['dipole'])
--------------------------------------------------------------------------

    Molecular point group: c1
  Charge       = 0
  Multiplicity = 1
  Basis Set: AUG-CC-PVTZ
    Blend: AUG-CC-PVTZ
  Basis Set: (AUG-CC-PVTZ AUX)
    Blend: AUG-CC-PVTZ-JKFIT

    Orbital Energies [Eh]
    ---------------------

    Doubly Occupied:

       1A    -20.678046     2A    -20.648276     3A    -20.577214
       4A    -11.415304     5A    -11.266083     6A     -1.536313
       7A     -1.406639     8A     -1.276460     9A     -1.036141
      10A     -0.839559    11A     -0.739696    12A     -0.697955
      13A     -0.697490    14A     -0.625026    15A     -0.611843
      16A     -0.599276    17A     -0.573257    18A     -0.536546
      19A     -0.486670    20A     -0.479331

  @DF-RHF Final Energy:  -302.68120739001711

   => Energetics <=

    Nuclear Repulsion Energy =            180.5957034824437812
    One-Electron Energy =                -773.0995667021123836
    Two-Electron Energy =                 289.8226558296514668
    Total Energy =                       -302.6812073900171072
  Basis Set: (AUG-CC-PVTZ AUX)
    Blend: AUG-CC-PVTZ-RI
    Molecular point group: c1

    Geometry (in Angstrom), charge = 0, multiplicity = 1:

       Center              X                  Y                   Z               Mass
    ------------   -----------------  -----------------  -----------------  -----------------
         O           -0.460687797406    -0.823910252637    -0.007442155076    15.994914619570
         O            0.191293202594     1.344945747363    -0.000790155076    15.994914619570
         O           -1.799722797406    -0.248002252637     0.007408844924    15.994914619570
         C            1.856099202594    -0.436435252637     0.004175844924    12.000000000000
         C            0.480530202594     0.158436747363    -0.006826155076    12.000000000000
         H            2.323939202594    -0.216282252637     0.966508844924     1.007825032230
         H            1.823042202594    -1.514714252637    -0.149334155076     1.007825032230
         H            2.447860202594     0.039505747363    -0.779478155076     1.007825032230
         H           -1.578293097406     0.668335647363     0.006929244924     1.007825032230

  Basis Set: AUG-CC-PVTZ
    Blend: AUG-CC-PVTZ
  Basis Set: (AUG-CC-PVTZ AUX)
    Blend: AUG-CC-PVTZ-JKFIT
	 Reference Energy          =    -302.6812073900171072 [Eh]
	 Singles Energy            =      -0.0000000000000000 [Eh]
	 Same-Spin Energy          =      -0.2829856151965869 [Eh]
	 Opposite-Spin Energy      =      -0.8647888948164032 [Eh]
	 Correlation Energy        =      -1.1477745100129901 [Eh]
	 Total Energy              =    -303.8289819000301009 [Eh]

	 ================> DF-SCS-MP2 Energies <==================
	-----------------------------------------------------------
	 SCS Same-Spin Scale       =       0.3333333333333333 [-]
	 SCS Opposite-Spin Scale   =       1.2000000000000000 [-]
	 SCS Same-Spin Energy      =      -0.0943285383988623 [Eh]
	 SCS Opposite-Spin Energy  =      -1.0377466737796839 [Eh]
	 SCS Correlation Energy    =      -1.1320752121785462 [Eh]
	 SCS Total Energy          =    -303.8132826021956703 [Eh]
	-----------------------------------------------------------

  Dipole Moment: [D]
     X:     2.3752      Y:    -0.5575      Z:     0.0149     Total:     2.4398

*** Psi4 exiting successfully. Buy a developer a beer!
