                               Psi4 1.4a3.dev225

  ==> Input File <==

--------------------------------------------------------------------------
#psi4
#
memory 32 gb

molecule  {
0 1
  O       -0.5230660    -0.8124530    -0.0079950
  O        0.1289150     1.3564030    -0.0013430
  O       -1.8437292    -0.2444466     0.0066522
  C        1.7937210    -0.4249780     0.0036230
  C        0.4181520     0.1698940    -0.0073790
  H        2.2615610    -0.2048250     0.9659560
  H        1.7606640    -1.5032570    -0.1498870
  H        2.3854820     0.0509630    -0.7800310
  H       -1.6289270     0.7283940     0.0063510
units angstrom
no_reorient  #important for SAPT in psi4, default
symmetry c1  #important for SAPT in psi4, default
}

set PROPERTIES_ORIGIN ["COM"]
properties('MP2/aug-cc-pvtz', properties = ['dipole'])
--------------------------------------------------------------------------

    Molecular point group: c1
  Charge       = 0
  Multiplicity = 1
  Basis Set: AUG-CC-PVTZ
    Blend: AUG-CC-PVTZ
  Basis Set: (AUG-CC-PVTZ AUX)
    Blend: AUG-CC-PVTZ-JKFIT

    Orbital Energies [Eh]
    ---------------------

    Doubly Occupied:

       1A    -20.676694     2A    -20.647178     3A    -20.578349
       4A    -11.415157     5A    -11.265798     6A     -1.538166
       7A     -1.407060     8A     -1.262632     9A     -1.035083
      10A     -0.837640    11A     -0.739100    12A     -0.699147
      13A     -0.698671    14A     -0.616448    15A     -0.611736
      16A     -0.595977    17A     -0.573003    18A     -0.535609
      19A     -0.487792    20A     -0.474600

  @DF-RHF Final Energy:  -302.68139626994991

   => Energetics <=

    Nuclear Repulsion Energy =            180.8482829207242162
    One-Electron Energy =                -773.6676760688712875
    Two-Electron Energy =                 290.1379968781972138
    Total Energy =                       -302.6813962699499143
  Basis Set: (AUG-CC-PVTZ AUX)
    Blend: AUG-CC-PVTZ-RI
    Molecular point group: c1

    Geometry (in Angstrom), charge = 0, multiplicity = 1:

       Center              X                  Y                   Z               Mass
    ------------   -----------------  -----------------  -----------------  -----------------
         O           -0.464709205992    -0.822891993752    -0.007398935748    15.994914619570
         O            0.187271794008     1.345964006248    -0.000746935748    15.994914619570
         O           -1.785372405992    -0.254885593752     0.007248264252    15.994914619570
         C            1.852077794008    -0.435416993752     0.004219064252    12.000000000000
         C            0.476508794008     0.159455006248    -0.006782935748    12.000000000000
         H            2.319917794008    -0.215263993752     0.966552064252     1.007825032230
         H            1.819020794008    -1.513695993752    -0.149290935748     1.007825032230
         H            2.443838794008     0.040524006248    -0.779434935748     1.007825032230
         H           -1.570570205992     0.717955006248     0.006947064252     1.007825032230

  Basis Set: AUG-CC-PVTZ
    Blend: AUG-CC-PVTZ
  Basis Set: (AUG-CC-PVTZ AUX)
    Blend: AUG-CC-PVTZ-JKFIT
	 Reference Energy          =    -302.6813962699499143 [Eh]
	 Singles Energy            =      -0.0000000000000000 [Eh]
	 Same-Spin Energy          =      -0.2837039012997286 [Eh]
	 Opposite-Spin Energy      =      -0.8653440192720632 [Eh]
	 Correlation Energy        =      -1.1490479205717916 [Eh]
	 Total Energy              =    -303.8304441905216891 [Eh]

	 ================> DF-SCS-MP2 Energies <==================
	-----------------------------------------------------------
	 SCS Same-Spin Scale       =       0.3333333333333333 [-]
	 SCS Opposite-Spin Scale   =       1.2000000000000000 [-]
	 SCS Same-Spin Energy      =      -0.0945679670999095 [Eh]
	 SCS Opposite-Spin Energy  =      -1.0384128231264758 [Eh]
	 SCS Correlation Energy    =      -1.1329807902263853 [Eh]
	 SCS Total Energy          =    -303.8143770601762981 [Eh]
	-----------------------------------------------------------

  Dipole Moment: [D]
     X:     2.3689      Y:    -0.4953      Z:     0.0150     Total:     2.4201

*** Psi4 exiting successfully. Buy a developer a beer!
