                               Psi4 1.3.2 release

  ==> Input File <==

--------------------------------------------------------------------------
#psi4
#
memory 32 gb

molecule  {
0 1
  O       -0.5230660    -0.8124530    -0.0079950
  O        0.1289150     1.3564030    -0.0013430
  O       -1.8621010    -0.2365450     0.0068560
  C        1.7937210    -0.4249780     0.0036230
  C        0.3644104     0.0244929    -0.0314627
  H        2.2615610    -0.2048250     0.9659560
  H        1.7606640    -1.5032570    -0.1498870
  H        2.3854820     0.0509630    -0.7800310
  H       -1.6289270     0.7283940     0.0063510
units angstrom
no_reorient  #important for SAPT in psi4, default
symmetry c1  #important for SAPT in psi4, default
}

set PROPERTIES_ORIGIN ["COM"]
properties('MP2/aug-cc-pvtz', properties = ['dipole'])
--------------------------------------------------------------------------

    Molecular point group: c1
  Charge       = 0
  Multiplicity = 1
  Basis Set: AUG-CC-PVTZ
    Blend: AUG-CC-PVTZ
  Basis Set: (AUG-CC-PVTZ AUX)
    Blend: AUG-CC-PVTZ-JKFIT

    Orbital Energies [Eh]
    ---------------------

    Doubly Occupied:

       1A    -20.710179     2A    -20.678975     3A    -20.543504
       4A    -11.415363     5A    -11.265690     6A     -1.592233
       7A     -1.341606     8A     -1.296806     9A     -1.033878
      10A     -0.873274    11A     -0.732168    12A     -0.731072
      13A     -0.710217    14A     -0.638080    15A     -0.609224
      16A     -0.594223    17A     -0.549573    18A     -0.539403
      19A     -0.456900    20A     -0.455920

  @DF-RHF Final Energy:  -302.64379654678777

   => Energetics <=

    Nuclear Repulsion Energy =            180.8566124152553130
    One-Electron Energy =                -773.4642470365221243
    Two-Electron Energy =                 289.9638380744790425
    Total Energy =                       -302.6437965467877689
  Basis Set: (AUG-CC-PVTZ AUX)
    Blend: AUG-CC-PVTZ-RI
    Molecular point group: c1

    Geometry (in Angstrom), charge = 0, multiplicity = 1:

       Center              X                  Y                   Z               Mass
    ------------   -----------------  -----------------  -----------------  -----------------
         O           -0.452359779171    -0.801601385904    -0.003639931446    15.994914619570
         O            0.199621220829     1.367254614096     0.003012068554    15.994914619570
         O           -1.791394779171    -0.225693385904     0.011211068554    15.994914619570
         C            1.864427220829    -0.414126385904     0.007978068554    12.000000000000
         C            0.435116620829     0.035344514096    -0.027107631446    12.000000000000
         H            2.332267220829    -0.193973385904     0.970311068554     1.007825032230
         H            1.831370220829    -1.492405385904    -0.145531931446     1.007825032230
         H            2.456188220829     0.061814614096    -0.775675931446     1.007825032230
         H           -1.558220779171     0.739245614096     0.010706068554     1.007825032230

  Basis Set: AUG-CC-PVTZ
    Blend: AUG-CC-PVTZ
  Basis Set: (AUG-CC-PVTZ AUX)
    Blend: AUG-CC-PVTZ-JKFIT
	 Reference Energy          =    -302.6437965467877689 [Eh]
	 Singles Energy            =      -0.0000000000000000 [Eh]
	 Same-Spin Energy          =      -0.2848640597429022 [Eh]
	 Opposite-Spin Energy      =      -0.8674847849594627 [Eh]
	 Correlation Energy        =      -1.1523488447023649 [Eh]
	 Total Energy              =    -303.7961453914901426 [Eh]

	 ================> DF-SCS-MP2 Energies <==================
	-----------------------------------------------------------
	 SCS Same-Spin Scale       =       0.3333333333333333 [-]
	 SCS Opposite-Spin Scale   =       1.2000000000000000 [-]
	 SCS Same-Spin Energy      =      -0.0949546865809674 [Eh]
	 SCS Opposite-Spin Energy  =      -1.0409817419513552 [Eh]
	 SCS Correlation Energy    =      -1.1359364285323226 [Eh]
	 SCS Total Energy          =    -303.7797329753200870 [Eh]
	-----------------------------------------------------------

  Dipole Moment: [D]
     X:     1.8167      Y:    -1.5346      Z:    -0.0032     Total:     2.3781

*** Psi4 exiting successfully. Buy a developer a beer!
