                               Psi4 1.4a3.dev225

  ==> Input File <==

--------------------------------------------------------------------------
#psi4
#
memory 32 gb

molecule  {
0 1
  O       -0.5230660    -0.8124530    -0.0079950
  O        0.1289150     1.3564030    -0.0013430
  O       -1.8621010    -0.2365450     0.0068560
  C        1.7937210    -0.4249780     0.0036230
  C        0.3835605     0.1337910    -0.0074016
  H        2.2615610    -0.2048250     0.9659560
  H        1.7606640    -1.5032570    -0.1498870
  H        2.3854820     0.0509630    -0.7800310
  H       -1.6289270     0.7283940     0.0063510
units angstrom
no_reorient  #important for SAPT in psi4, default
symmetry c1  #important for SAPT in psi4, default
}

set PROPERTIES_ORIGIN ["COM"]
properties('MP2/aug-cc-pvtz', properties = ['dipole'])
--------------------------------------------------------------------------

    Molecular point group: c1
  Charge       = 0
  Multiplicity = 1
  Basis Set: AUG-CC-PVTZ
    Blend: AUG-CC-PVTZ
  Basis Set: (AUG-CC-PVTZ AUX)
    Blend: AUG-CC-PVTZ-JKFIT

    Orbital Energies [Eh]
    ---------------------

    Doubly Occupied:

       1A    -20.688869     2A    -20.659094     3A    -20.569392
       4A    -11.414904     5A    -11.264465     6A     -1.550618
       7A     -1.386165     8A     -1.285248     9A     -1.028234
      10A     -0.847240    11A     -0.732226    12A     -0.707472
      13A     -0.702888    14A     -0.620696    15A     -0.608370
      16A     -0.594742    17A     -0.573139    18A     -0.532927
      19A     -0.480337    20A     -0.479849

  @DF-RHF Final Energy:  -302.67716138974322

   => Energetics <=

    Nuclear Repulsion Energy =            180.6392549184560892
    One-Electron Energy =                -773.1790814104112997
    Two-Electron Energy =                 289.8626651022119631
    Total Energy =                       -302.6771613897432189
  Basis Set: (AUG-CC-PVTZ AUX)
    Blend: AUG-CC-PVTZ-RI
    Molecular point group: c1

    Geometry (in Angstrom), charge = 0, multiplicity = 1:

       Center              X                  Y                   Z               Mass
    ------------   -----------------  -----------------  -----------------  -----------------
         O           -0.455382840988    -0.818855338244    -0.007438250654    15.994914619570
         O            0.196598159012     1.350000661756    -0.000786250654    15.994914619570
         O           -1.794417840988    -0.242947338244     0.007412749346    15.994914619570
         C            1.861404159012    -0.431380338244     0.004179749346    12.000000000000
         C            0.451243659012     0.127388661756    -0.006844850654    12.000000000000
         H            2.329244159012    -0.211227338244     0.966512749346     1.007825032230
         H            1.828347159012    -1.509659338244    -0.149330250654     1.007825032230
         H            2.453165159012     0.044560661756    -0.779474250654     1.007825032230
         H           -1.561243840988     0.721991661756     0.006907749346     1.007825032230

  Basis Set: AUG-CC-PVTZ
    Blend: AUG-CC-PVTZ
  Basis Set: (AUG-CC-PVTZ AUX)
    Blend: AUG-CC-PVTZ-JKFIT
	 Reference Energy          =    -302.6771613897432189 [Eh]
	 Singles Energy            =      -0.0000000000000000 [Eh]
	 Same-Spin Energy          =      -0.2838141314352871 [Eh]
	 Opposite-Spin Energy      =      -0.8661904064603205 [Eh]
	 Correlation Energy        =      -1.1500045378956076 [Eh]
	 Total Energy              =    -303.8271659276388164 [Eh]

	 ================> DF-SCS-MP2 Energies <==================
	-----------------------------------------------------------
	 SCS Same-Spin Scale       =       0.3333333333333333 [-]
	 SCS Opposite-Spin Scale   =       1.2000000000000000 [-]
	 SCS Same-Spin Energy      =      -0.0946047104784290 [Eh]
	 SCS Opposite-Spin Energy  =      -1.0394284877523845 [Eh]
	 SCS Correlation Energy    =      -1.1340331982308136 [Eh]
	 SCS Total Energy          =    -303.8111945879740574 [Eh]
	-----------------------------------------------------------

  Dipole Moment: [D]
     X:     2.1216      Y:    -0.7740      Z:     0.0140     Total:     2.2584

*** Psi4 exiting successfully. Buy a developer a beer!
