                               Psi4 1.3.2 release

  ==> Input File <==

--------------------------------------------------------------------------
#psi4
#
memory 32 gb

molecule  {
0 1
  O       -0.5230660    -0.8124530    -0.0079950
  O        0.1289150     1.3564030    -0.0013430
  O       -2.0458192    -0.1575293     0.0088936
  C        1.7937210    -0.4249780     0.0036230
  C        0.4181520     0.1698940    -0.0073790
  H        2.2615610    -0.2048250     0.9659560
  H        1.7606640    -1.5032570    -0.1498870
  H        2.3854820     0.0509630    -0.7800310
  H       -1.6289270     0.7283940     0.0063510
units angstrom
no_reorient  #important for SAPT in psi4, default
symmetry c1  #important for SAPT in psi4, default
}

set PROPERTIES_ORIGIN ["COM"]
properties('MP2/aug-cc-pvtz', properties = ['dipole'])
--------------------------------------------------------------------------

    Molecular point group: c1
  Charge       = 0
  Multiplicity = 1
  Basis Set: AUG-CC-PVTZ
    Blend: AUG-CC-PVTZ
  Basis Set: (AUG-CC-PVTZ AUX)
    Blend: AUG-CC-PVTZ-JKFIT

    Orbital Energies [Eh]
    ---------------------

    Doubly Occupied:

       1A    -20.677407     2A    -20.672484     3A    -20.577208
       4A    -11.416294     5A    -11.267201     6A     -1.488089
       7A     -1.392219     8A     -1.296135     9A     -1.037068
      10A     -0.804961    11A     -0.737059    12A     -0.684474
      13A     -0.678578    14A     -0.644781    15A     -0.603573
      16A     -0.596150    17A     -0.547185    18A     -0.538897
      19A     -0.495413    20A     -0.484742

  @DF-RHF Final Energy:  -302.64802099446348

   => Energetics <=

    Nuclear Repulsion Energy =            175.8972551424221535
    One-Electron Energy =                -763.8107205033966238
    Two-Electron Energy =                 285.2654443665109625
    Total Energy =                       -302.6480209944634794
  Basis Set: (AUG-CC-PVTZ AUX)
    Blend: AUG-CC-PVTZ-RI
    Molecular point group: c1

    Geometry (in Angstrom), charge = 0, multiplicity = 1:

       Center              X                  Y                   Z               Mass
    ------------   -----------------  -----------------  -----------------  -----------------
         O           -0.422186442034    -0.841180695972    -0.007870559891    15.994914619570
         O            0.229794557966     1.327675304028    -0.001218559891    15.994914619570
         O           -1.944939642034    -0.186256995972     0.009018040109    15.994914619570
         C            1.894600557966    -0.453705695972     0.003747440109    12.000000000000
         C            0.519031557966     0.141166304028    -0.007254559891    12.000000000000
         H            2.362440557966    -0.233552695972     0.966080440109     1.007825032230
         H            1.861543557966    -1.531984695972    -0.149762559891     1.007825032230
         H            2.486361557966     0.022235304028    -0.779906559891     1.007825032230
         H           -1.528047442034     0.699666304028     0.006475440109     1.007825032230

  Basis Set: AUG-CC-PVTZ
    Blend: AUG-CC-PVTZ
  Basis Set: (AUG-CC-PVTZ AUX)
    Blend: AUG-CC-PVTZ-JKFIT
	 Reference Energy          =    -302.6480209944634794 [Eh]
	 Singles Energy            =      -0.0000000000000000 [Eh]
	 Same-Spin Energy          =      -0.2857905005050194 [Eh]
	 Opposite-Spin Energy      =      -0.8787847063054230 [Eh]
	 Correlation Energy        =      -1.1645752068104425 [Eh]
	 Total Energy              =    -303.8125962012739478 [Eh]

	 ================> DF-SCS-MP2 Energies <==================
	-----------------------------------------------------------
	 SCS Same-Spin Scale       =       0.3333333333333333 [-]
	 SCS Opposite-Spin Scale   =       1.2000000000000000 [-]
	 SCS Same-Spin Energy      =      -0.0952635001683398 [Eh]
	 SCS Opposite-Spin Energy  =      -1.0545416475665077 [Eh]
	 SCS Correlation Energy    =      -1.1498051477348474 [Eh]
	 SCS Total Energy          =    -303.7978261421983461 [Eh]
	-----------------------------------------------------------

  Dipole Moment: [D]
     X:     2.9022      Y:    -0.5786      Z:     0.0124     Total:     2.9594

*** Psi4 exiting successfully. Buy a developer a beer!
