                               Psi4 1.3.2 release

  ==> Input File <==

--------------------------------------------------------------------------
#psi4
#
memory 32 gb

molecule  {
0 1
  O       -0.5439805    -0.8588366    -0.0078712
  O        0.1289150     1.3564030    -0.0013430
  O       -1.8621010    -0.2365450     0.0068560
  C        1.7937210    -0.4249780     0.0036230
  C        0.4181520     0.1698940    -0.0073790
  H        2.2615610    -0.2048250     0.9659560
  H        1.7606640    -1.5032570    -0.1498870
  H        2.3854820     0.0509630    -0.7800310
  H       -1.6289270     0.7283940     0.0063510
units angstrom
no_reorient  #important for SAPT in psi4, default
symmetry c1  #important for SAPT in psi4, default
}

set PROPERTIES_ORIGIN ["COM"]
properties('MP2/aug-cc-pvtz', properties = ['dipole'])
--------------------------------------------------------------------------

    Molecular point group: c1
  Charge       = 0
  Multiplicity = 1
  Basis Set: AUG-CC-PVTZ
    Blend: AUG-CC-PVTZ
  Basis Set: (AUG-CC-PVTZ AUX)
    Blend: AUG-CC-PVTZ-JKFIT

    Orbital Energies [Eh]
    ---------------------

    Doubly Occupied:

       1A    -20.675145     2A    -20.642751     3A    -20.587418
       4A    -11.421891     5A    -11.267987     6A     -1.518406
       7A     -1.411017     8A     -1.251827     9A     -1.037570
      10A     -0.827134    11A     -0.741717    12A     -0.691977
      13A     -0.688262    14A     -0.616392    15A     -0.611912
      16A     -0.598550    17A     -0.568126    18A     -0.537293
      19A     -0.490564    20A     -0.475294

  @DF-RHF Final Energy:  -302.67475707509266

   => Energetics <=

    Nuclear Repulsion Energy =            179.2062972010498356
    One-Electron Energy =                -770.4396467661424595
    Two-Electron Energy =                 288.5585924899999100
    Total Energy =                       -302.6747570750926570
  Basis Set: (AUG-CC-PVTZ AUX)
    Blend: AUG-CC-PVTZ-RI
    Molecular point group: c1

    Geometry (in Angstrom), charge = 0, multiplicity = 1:

       Center              X                  Y                   Z               Mass
    ------------   -----------------  -----------------  -----------------  -----------------
         O           -0.477357279837    -0.861178404368    -0.007344067697    15.994914619570
         O            0.195538220163     1.354061195632    -0.000815867697    15.994914619570
         O           -1.795477779837    -0.238886804368     0.007383132303    15.994914619570
         C            1.860344220163    -0.427319804368     0.004150132303    12.000000000000
         C            0.484775220163     0.167552195632    -0.006851867697    12.000000000000
         H            2.328184220163    -0.207166804368     0.966483132303     1.007825032230
         H            1.827287220163    -1.505598804368    -0.149359867697     1.007825032230
         H            2.452105220163     0.048621195632    -0.779503867697     1.007825032230
         H           -1.562303779837     0.726052195632     0.006878132303     1.007825032230

  Basis Set: AUG-CC-PVTZ
    Blend: AUG-CC-PVTZ
  Basis Set: (AUG-CC-PVTZ AUX)
    Blend: AUG-CC-PVTZ-JKFIT
	 Reference Energy          =    -302.6747570750926570 [Eh]
	 Singles Energy            =      -0.0000000000000000 [Eh]
	 Same-Spin Energy          =      -0.2844334967453268 [Eh]
	 Opposite-Spin Energy      =      -0.8684630445366021 [Eh]
	 Correlation Energy        =      -1.1528965412819288 [Eh]
	 Total Energy              =    -303.8276536163745618 [Eh]

	 ================> DF-SCS-MP2 Energies <==================
	-----------------------------------------------------------
	 SCS Same-Spin Scale       =       0.3333333333333333 [-]
	 SCS Opposite-Spin Scale   =       1.2000000000000000 [-]
	 SCS Same-Spin Energy      =      -0.0948111655817756 [Eh]
	 SCS Opposite-Spin Energy  =      -1.0421556534439225 [Eh]
	 SCS Correlation Energy    =      -1.1369668190256981 [Eh]
	 SCS Total Energy          =    -303.8117238941183587 [Eh]
	-----------------------------------------------------------

  Dipole Moment: [D]
     X:     2.5747      Y:    -0.3190      Z:     0.0157     Total:     2.5944

*** Psi4 exiting successfully. Buy a developer a beer!
