                               Psi4 1.3.2 release

  ==> Input File <==

--------------------------------------------------------------------------
#psi4
#
memory 32 gb

molecule  {
0 1
  O       -0.5230660    -0.8124530    -0.0079950
  O        0.1289150     1.3564030    -0.0013430
  O       -1.8621010    -0.2365450     0.0068560
  C        1.7937210    -0.4249780     0.0036230
  C        0.6017169     0.0905104    -0.0059108
  H        2.2615610    -0.2048250     0.9659560
  H        1.7606640    -1.5032570    -0.1498870
  H        2.3854820     0.0509630    -0.7800310
  H       -1.6289270     0.7283940     0.0063510
units angstrom
no_reorient  #important for SAPT in psi4, default
symmetry c1  #important for SAPT in psi4, default
}

set PROPERTIES_ORIGIN ["COM"]
properties('MP2/aug-cc-pvtz', properties = ['dipole'])
--------------------------------------------------------------------------

    Molecular point group: c1
  Charge       = 0
  Multiplicity = 1
  Basis Set: AUG-CC-PVTZ
    Blend: AUG-CC-PVTZ
  Basis Set: (AUG-CC-PVTZ AUX)
    Blend: AUG-CC-PVTZ-JKFIT

    Orbital Energies [Eh]
    ---------------------

    Doubly Occupied:

       1A    -20.659047     2A    -20.642662     3A    -20.563113
       4A    -11.431843     5A    -11.274357     6A     -1.492642
       7A     -1.335373     8A     -1.238005     9A     -1.118124
      10A     -0.815638    11A     -0.744810    12A     -0.689976
      13A     -0.684887    14A     -0.629054    15A     -0.626330
      16A     -0.592036    17A     -0.547486    18A     -0.499832
      19A     -0.470982    20A     -0.451757

  @DF-RHF Final Energy:  -302.59966913084423

   => Energetics <=

    Nuclear Repulsion Energy =            178.7787713943725691
    One-Electron Energy =                -769.7409773188538793
    Two-Electron Energy =                 288.3625367936370480
    Total Energy =                       -302.5996691308442337
  Basis Set: (AUG-CC-PVTZ AUX)
    Blend: AUG-CC-PVTZ-RI
    Molecular point group: c1

    Geometry (in Angstrom), charge = 0, multiplicity = 1:

       Center              X                  Y                   Z               Mass
    ------------   -----------------  -----------------  -----------------  -----------------
         O           -0.489821318218    -0.812023001638    -0.007673590446    15.994914619570
         O            0.162159681782     1.356832998362    -0.001021590446    15.994914619570
         O           -1.828856318218    -0.236115001638     0.007177409554    15.994914619570
         C            1.826965681782    -0.424548001638     0.003944409554    12.000000000000
         C            0.634961581782     0.090940398362    -0.005589390446    12.000000000000
         H            2.294805681782    -0.204395001638     0.966277409554     1.007825032230
         H            1.793908681782    -1.502827001638    -0.149565590446     1.007825032230
         H            2.418726681782     0.051392998362    -0.779709590446     1.007825032230
         H           -1.595682318218     0.728823998362     0.006672409554     1.007825032230

  Basis Set: AUG-CC-PVTZ
    Blend: AUG-CC-PVTZ
  Basis Set: (AUG-CC-PVTZ AUX)
    Blend: AUG-CC-PVTZ-JKFIT
	 Reference Energy          =    -302.5996691308442337 [Eh]
	 Singles Energy            =      -0.0000000000000000 [Eh]
	 Same-Spin Energy          =      -0.2901538859664224 [Eh]
	 Opposite-Spin Energy      =      -0.8775075820050744 [Eh]
	 Correlation Energy        =      -1.1676614679714967 [Eh]
	 Total Energy              =    -303.7673305988157040 [Eh]

	 ================> DF-SCS-MP2 Energies <==================
	-----------------------------------------------------------
	 SCS Same-Spin Scale       =       0.3333333333333333 [-]
	 SCS Opposite-Spin Scale   =       1.2000000000000000 [-]
	 SCS Same-Spin Energy      =      -0.0967179619888075 [Eh]
	 SCS Opposite-Spin Energy  =      -1.0530090984060891 [Eh]
	 SCS Correlation Energy    =      -1.1497270603948966 [Eh]
	 SCS Total Energy          =    -303.7493961912391569 [Eh]
	-----------------------------------------------------------

  Dipole Moment: [D]
     X:     3.4271      Y:    -0.9415      Z:     0.0313     Total:     3.5542

*** Psi4 exiting successfully. Buy a developer a beer!
