                               Psi4 1.4a3.dev225

  ==> Input File <==

--------------------------------------------------------------------------
#psi4
#
memory 32 gb

molecule  {
0 1
  O       -0.5230660    -0.8124530    -0.0079950
  O        0.1289150     1.3564030    -0.0013430
  O       -1.8621010    -0.2365450     0.0068560
  C        1.7937210    -0.4249780     0.0036230
  C        0.4640432     0.1500481    -0.0070120
  H        2.2615610    -0.2048250     0.9659560
  H        1.7606640    -1.5032570    -0.1498870
  H        2.3854820     0.0509630    -0.7800310
  H       -1.6289270     0.7283940     0.0063510
units angstrom
no_reorient  #important for SAPT in psi4, default
symmetry c1  #important for SAPT in psi4, default
}

set PROPERTIES_ORIGIN ["COM"]
properties('MP2/aug-cc-pvtz', properties = ['dipole'])
--------------------------------------------------------------------------

    Molecular point group: c1
  Charge       = 0
  Multiplicity = 1
  Basis Set: AUG-CC-PVTZ
    Blend: AUG-CC-PVTZ
  Basis Set: (AUG-CC-PVTZ AUX)
    Blend: AUG-CC-PVTZ-JKFIT

    Orbital Energies [Eh]
    ---------------------

    Doubly Occupied:

       1A    -20.672442     2A    -20.648524     3A    -20.574946
       4A    -11.419724     5A    -11.268669     6A     -1.521668
       7A     -1.386952     8A     -1.260174     9A     -1.054279
      10A     -0.828935    11A     -0.738557    12A     -0.692733
      13A     -0.691488    14A     -0.621962    15A     -0.615961
      16A     -0.586010    17A     -0.576947    18A     -0.527276
      19A     -0.487364    20A     -0.471791

  @DF-RHF Final Energy:  -302.67234479682963

   => Energetics <=

    Nuclear Repulsion Energy =            179.9078530658973136
    One-Electron Energy =                -771.8675918527504791
    Two-Electron Energy =                 289.2873939900235882
    Total Energy =                       -302.6723447968296341
  Basis Set: (AUG-CC-PVTZ AUX)
    Blend: AUG-CC-PVTZ-RI
    Molecular point group: c1

    Geometry (in Angstrom), charge = 0, multiplicity = 1:

       Center              X                  Y                   Z               Mass
    ------------   -----------------  -----------------  -----------------  -----------------
         O           -0.468087953610    -0.821421706997    -0.007499753460    15.994914619570
         O            0.183893046390     1.347434293003    -0.000847753460    15.994914619570
         O           -1.807122953610    -0.245513706997     0.007351246540    15.994914619570
         C            1.848699046390    -0.433946706997     0.004118246540    12.000000000000
         C            0.519021246390     0.141079393003    -0.006516753460    12.000000000000
         H            2.316539046390    -0.213793706997     0.966451246540     1.007825032230
         H            1.815642046390    -1.512225706997    -0.149391753460     1.007825032230
         H            2.440460046390     0.041994293003    -0.779535753460     1.007825032230
         H           -1.573948953610     0.719425293003     0.006846246540     1.007825032230

  Basis Set: AUG-CC-PVTZ
    Blend: AUG-CC-PVTZ
  Basis Set: (AUG-CC-PVTZ AUX)
    Blend: AUG-CC-PVTZ-JKFIT
	 Reference Energy          =    -302.6723447968296341 [Eh]
	 Singles Energy            =      -0.0000000000000000 [Eh]
	 Same-Spin Energy          =      -0.2850250261901677 [Eh]
	 Opposite-Spin Energy      =      -0.8684778210808264 [Eh]
	 Correlation Energy        =      -1.1535028472709941 [Eh]
	 Total Energy              =    -303.8258476441006337 [Eh]

	 ================> DF-SCS-MP2 Energies <==================
	-----------------------------------------------------------
	 SCS Same-Spin Scale       =       0.3333333333333333 [-]
	 SCS Opposite-Spin Scale   =       1.2000000000000000 [-]
	 SCS Same-Spin Energy      =      -0.0950083420633892 [Eh]
	 SCS Opposite-Spin Energy  =      -1.0421733852969917 [Eh]
	 SCS Correlation Energy    =      -1.1371817273603808 [Eh]
	 SCS Total Energy          =    -303.8095265241900051 [Eh]
	-----------------------------------------------------------

  Dipole Moment: [D]
     X:     2.6488      Y:    -0.6132      Z:     0.0185     Total:     2.7189

*** Psi4 exiting successfully. Buy a developer a beer!
