                               Psi4 1.4a3.dev225

  ==> Input File <==

--------------------------------------------------------------------------
#psi4
#
memory 32 gb

molecule  {
0 1
  O       -0.5230660    -0.8124530    -0.0079950
  O        0.1289150     1.3564030    -0.0013430
  O       -1.8621010    -0.2365450     0.0068560
  C        1.7937210    -0.4249780     0.0036230
  C        0.4299937     0.1213171    -0.0076261
  H        2.2615610    -0.2048250     0.9659560
  H        1.7606640    -1.5032570    -0.1498870
  H        2.3854820     0.0509630    -0.7800310
  H       -1.6289270     0.7283940     0.0063510
units angstrom
no_reorient  #important for SAPT in psi4, default
symmetry c1  #important for SAPT in psi4, default
}

set PROPERTIES_ORIGIN ["COM"]
properties('MP2/aug-cc-pvtz', properties = ['dipole'])
--------------------------------------------------------------------------

    Molecular point group: c1
  Charge       = 0
  Multiplicity = 1
  Basis Set: AUG-CC-PVTZ
    Blend: AUG-CC-PVTZ
  Basis Set: (AUG-CC-PVTZ AUX)
    Blend: AUG-CC-PVTZ-JKFIT

    Orbital Energies [Eh]
    ---------------------

    Doubly Occupied:

       1A    -20.683317     2A    -20.656576     3A    -20.567708
       4A    -11.418398     5A    -11.267067     6A     -1.538340
       7A     -1.373383     8A     -1.276240     9A     -1.045640
      10A     -0.840388    11A     -0.733793    12A     -0.700528
      13A     -0.697296    14A     -0.621120    15A     -0.613810
      16A     -0.587323    17A     -0.579084    18A     -0.526580
      19A     -0.481641    20A     -0.473895

  @DF-RHF Final Energy:  -302.67275131257765

   => Energetics <=

    Nuclear Repulsion Energy =            180.1868740174276695
    One-Electron Energy =                -772.3549995039034002
    Two-Electron Energy =                 289.4953741738980284
    Total Energy =                       -302.6727513125776454
  Basis Set: (AUG-CC-PVTZ AUX)
    Blend: AUG-CC-PVTZ-RI
    Molecular point group: c1

    Geometry (in Angstrom), charge = 0, multiplicity = 1:

       Center              X                  Y                   Z               Mass
    ------------   -----------------  -----------------  -----------------  -----------------
         O           -0.462712851480    -0.816886190783    -0.007402810767    15.994914619570
         O            0.189268148520     1.351969809217    -0.000750810767    15.994914619570
         O           -1.801747851480    -0.240978190783     0.007448189233    15.994914619570
         C            1.854074148520    -0.429411190783     0.004215189233    12.000000000000
         C            0.490346848520     0.116883909217    -0.007033910767    12.000000000000
         H            2.321914148520    -0.209258190783     0.966548189233     1.007825032230
         H            1.821017148520    -1.507690190783    -0.149294810767     1.007825032230
         H            2.445835148520     0.046529809217    -0.779438810767     1.007825032230
         H           -1.568573851480     0.723960809217     0.006943189233     1.007825032230

  Basis Set: AUG-CC-PVTZ
    Blend: AUG-CC-PVTZ
  Basis Set: (AUG-CC-PVTZ AUX)
    Blend: AUG-CC-PVTZ-JKFIT
	 Reference Energy          =    -302.6727513125776454 [Eh]
	 Singles Energy            =      -0.0000000000000000 [Eh]
	 Same-Spin Energy          =      -0.2847318591892212 [Eh]
	 Opposite-Spin Energy      =      -0.8678098385953386 [Eh]
	 Correlation Energy        =      -1.1525416977845597 [Eh]
	 Total Energy              =    -303.8252930103622020 [Eh]

	 ================> DF-SCS-MP2 Energies <==================
	-----------------------------------------------------------
	 SCS Same-Spin Scale       =       0.3333333333333333 [-]
	 SCS Opposite-Spin Scale   =       1.2000000000000000 [-]
	 SCS Same-Spin Energy      =      -0.0949106197297404 [Eh]
	 SCS Opposite-Spin Energy  =      -1.0413718063144062 [Eh]
	 SCS Correlation Energy    =      -1.1362824260441466 [Eh]
	 SCS Total Energy          =    -303.8090337386217925 [Eh]
	-----------------------------------------------------------

  Dipole Moment: [D]
     X:     2.3737      Y:    -0.8293      Z:     0.0166     Total:     2.5145

*** Psi4 exiting successfully. Buy a developer a beer!
