                               Psi4 1.3.2 release

  ==> Input File <==

--------------------------------------------------------------------------
#psi4
#
memory 32 gb

molecule  {
0 1
  O       -0.5132190    -0.7889945    -0.0080501
  O        0.1289150     1.3564030    -0.0013430
  O       -1.8621010    -0.2365450     0.0068560
  C        1.7937210    -0.4249780     0.0036230
  C        0.4181520     0.1698940    -0.0073790
  H        2.2615610    -0.2048250     0.9659560
  H        1.7606640    -1.5032570    -0.1498870
  H        2.3854820     0.0509630    -0.7800310
  H       -1.6289270     0.7283940     0.0063510
units angstrom
no_reorient  #important for SAPT in psi4, default
symmetry c1  #important for SAPT in psi4, default
}

set PROPERTIES_ORIGIN ["COM"]
properties('MP2/aug-cc-pvtz', properties = ['dipole'])
--------------------------------------------------------------------------

    Molecular point group: c1
  Charge       = 0
  Multiplicity = 1
  Basis Set: AUG-CC-PVTZ
    Blend: AUG-CC-PVTZ
  Basis Set: (AUG-CC-PVTZ AUX)
    Blend: AUG-CC-PVTZ-JKFIT

    Orbital Energies [Eh]
    ---------------------

    Doubly Occupied:

       1A    -20.677027     2A    -20.653540     3A    -20.573475
       4A    -11.412054     5A    -11.265084     6A     -1.538777
       7A     -1.403168     8A     -1.273694     9A     -1.034458
      10A     -0.837301    11A     -0.737652    12A     -0.700808
      13A     -0.699646    14A     -0.620399    15A     -0.610452
      16A     -0.594965    17A     -0.572029    18A     -0.536195
      19A     -0.485647    20A     -0.478256

  @DF-RHF Final Energy:  -302.68127445800104

   => Energetics <=

    Nuclear Repulsion Energy =            180.9555959497045023
    One-Electron Energy =                -773.8644886844042503
    Two-Electron Energy =                 290.2276182766987063
    Total Energy =                       -302.6812744580010417
  Basis Set: (AUG-CC-PVTZ AUX)
    Blend: AUG-CC-PVTZ-RI
    Molecular point group: c1

    Geometry (in Angstrom), charge = 0, multiplicity = 1:

       Center              X                  Y                   Z               Mass
    ------------   -----------------  -----------------  -----------------  -----------------
         O           -0.453068460343    -0.806032128667    -0.007485324456    15.994914619570
         O            0.189065539657     1.339365371333    -0.000778224456    15.994914619570
         O           -1.801950460343    -0.253582628667     0.007420775544    15.994914619570
         C            1.853871539657    -0.442015628667     0.004187775544    12.000000000000
         C            0.478302539657     0.152856371333    -0.006814224456    12.000000000000
         H            2.321711539657    -0.221862628667     0.966520775544     1.007825032230
         H            1.820814539657    -1.520294628667    -0.149322224456     1.007825032230
         H            2.445632539657     0.033925371333    -0.779466224456     1.007825032230
         H           -1.568776460343     0.711356371333     0.006915775544     1.007825032230

  Basis Set: AUG-CC-PVTZ
    Blend: AUG-CC-PVTZ
  Basis Set: (AUG-CC-PVTZ AUX)
    Blend: AUG-CC-PVTZ-JKFIT
	 Reference Energy          =    -302.6812744580010417 [Eh]
	 Singles Energy            =      -0.0000000000000000 [Eh]
	 Same-Spin Energy          =      -0.2835594456531448 [Eh]
	 Opposite-Spin Energy      =      -0.8654436506800394 [Eh]
	 Correlation Energy        =      -1.1490030963331841 [Eh]
	 Total Energy              =    -303.8302775543342023 [Eh]

	 ================> DF-SCS-MP2 Energies <==================
	-----------------------------------------------------------
	 SCS Same-Spin Scale       =       0.3333333333333333 [-]
	 SCS Opposite-Spin Scale   =       1.2000000000000000 [-]
	 SCS Same-Spin Energy      =      -0.0945198152177149 [Eh]
	 SCS Opposite-Spin Energy  =      -1.0385323808160472 [Eh]
	 SCS Correlation Energy    =      -1.1330521960337621 [Eh]
	 SCS Total Energy          =    -303.8143266540348009 [Eh]
	-----------------------------------------------------------

  Dipole Moment: [D]
     X:     2.3259      Y:    -0.5901      Z:     0.0146     Total:     2.3997

*** Psi4 exiting successfully. Buy a developer a beer!
