                               Psi4 1.3.2 release

  ==> Input File <==

--------------------------------------------------------------------------
#psi4
#
memory 32 gb

molecule  {
0 1
  O       -0.5230660    -0.8124530    -0.0079950
  O        0.1289150     1.3564030    -0.0013430
  O       -1.8621010    -0.2365450     0.0068560
  C        1.7937210    -0.4249780     0.0036230
  C        0.4873349     0.2421001    -0.0073337
  H        2.2615610    -0.2048250     0.9659560
  H        1.7606640    -1.5032570    -0.1498870
  H        2.3854820     0.0509630    -0.7800310
  H       -1.6289270     0.7283940     0.0063510
units angstrom
no_reorient  #important for SAPT in psi4, default
symmetry c1  #important for SAPT in psi4, default
}

set PROPERTIES_ORIGIN ["COM"]
properties('MP2/aug-cc-pvtz', properties = ['dipole'])
--------------------------------------------------------------------------

    Molecular point group: c1
  Charge       = 0
  Multiplicity = 1
  Basis Set: AUG-CC-PVTZ
    Blend: AUG-CC-PVTZ
  Basis Set: (AUG-CC-PVTZ AUX)
    Blend: AUG-CC-PVTZ-JKFIT

    Orbital Energies [Eh]
    ---------------------

    Doubly Occupied:

       1A    -20.650176     2A    -20.631493     3A    -20.595557
       4A    -11.416541     5A    -11.270791     6A     -1.510786
       7A     -1.434400     8A     -1.229577     9A     -1.050123
      10A     -0.811592    11A     -0.752143    12A     -0.696742
      13A     -0.684362    14A     -0.625629    15A     -0.611783
      16A     -0.587118    17A     -0.563000    18A     -0.552380
      19A     -0.491045    20A     -0.461444

  @DF-RHF Final Energy:  -302.67001441725483

   => Energetics <=

    Nuclear Repulsion Energy =            179.9195412206795197
    One-Electron Energy =                -771.9257479215490321
    Two-Electron Energy =                 289.3361922836146505
    Total Energy =                       -302.6700144172548335
  Basis Set: (AUG-CC-PVTZ AUX)
    Blend: AUG-CC-PVTZ-RI
    Molecular point group: c1

    Geometry (in Angstrom), charge = 0, multiplicity = 1:

       Center              X                  Y                   Z               Mass
    ------------   -----------------  -----------------  -----------------  -----------------
         O           -0.471764814248    -0.835953165647    -0.007448969444    15.994914619570
         O            0.180216185752     1.332902834353    -0.000796969444    15.994914619570
         O           -1.810799814248    -0.260045165647     0.007402030556    15.994914619570
         C            1.845022185752    -0.448478165647     0.004169030556    12.000000000000
         C            0.538636085752     0.218599934353    -0.006787669444    12.000000000000
         H            2.312862185752    -0.228325165647     0.966502030556     1.007825032230
         H            1.811965185752    -1.526757165647    -0.149340969444     1.007825032230
         H            2.436783185752     0.027462834353    -0.779484969444     1.007825032230
         H           -1.577625814248     0.704893834353     0.006897030556     1.007825032230

  Basis Set: AUG-CC-PVTZ
    Blend: AUG-CC-PVTZ
  Basis Set: (AUG-CC-PVTZ AUX)
    Blend: AUG-CC-PVTZ-JKFIT
	 Reference Energy          =    -302.6700144172548335 [Eh]
	 Singles Energy            =      -0.0000000000000000 [Eh]
	 Same-Spin Energy          =      -0.2842210430989122 [Eh]
	 Opposite-Spin Energy      =      -0.8673438935501154 [Eh]
	 Correlation Energy        =      -1.1515649366490277 [Eh]
	 Total Energy              =    -303.8215793539038714 [Eh]

	 ================> DF-SCS-MP2 Energies <==================
	-----------------------------------------------------------
	 SCS Same-Spin Scale       =       0.3333333333333333 [-]
	 SCS Opposite-Spin Scale   =       1.2000000000000000 [-]
	 SCS Same-Spin Energy      =      -0.0947403476996374 [Eh]
	 SCS Opposite-Spin Energy  =      -1.0408126722601385 [Eh]
	 SCS Correlation Energy    =      -1.1355530199597759 [Eh]
	 SCS Total Energy          =    -303.8055674372146200 [Eh]
	-----------------------------------------------------------

  Dipole Moment: [D]
     X:     3.0236      Y:     0.0567      Z:     0.0174     Total:     3.0242

*** Psi4 exiting successfully. Buy a developer a beer!
