                               Psi4 1.3.2 release

  ==> Input File <==

--------------------------------------------------------------------------
#psi4
#
memory 32 gb

molecule  {
0 1
  O       -0.5230660    -0.8124530    -0.0079950
  O        0.1289150     1.3564030    -0.0013430
  O       -1.7945582    -0.0997293     0.0074288
  C        1.7937210    -0.4249780     0.0036230
  C        0.4181520     0.1698940    -0.0073790
  H        2.2615610    -0.2048250     0.9659560
  H        1.7606640    -1.5032570    -0.1498870
  H        2.3854820     0.0509630    -0.7800310
  H       -1.6289270     0.7283940     0.0063510
units angstrom
no_reorient  #important for SAPT in psi4, default
symmetry c1  #important for SAPT in psi4, default
}

set PROPERTIES_ORIGIN ["COM"]
properties('MP2/aug-cc-pvtz', properties = ['dipole'])
--------------------------------------------------------------------------

    Molecular point group: c1
  Charge       = 0
  Multiplicity = 1
  Basis Set: AUG-CC-PVTZ
    Blend: AUG-CC-PVTZ
  Basis Set: (AUG-CC-PVTZ AUX)
    Blend: AUG-CC-PVTZ-JKFIT

    Orbital Energies [Eh]
    ---------------------

    Doubly Occupied:

       1A    -20.688179     2A    -20.631121     3A    -20.575783
       4A    -11.414813     5A    -11.265754     6A     -1.548875
       7A     -1.405906     8A     -1.299839     9A     -1.038131
      10A     -0.853044    11A     -0.744059    12A     -0.702536
      13A     -0.701969    14A     -0.632335    15A     -0.611601
      16A     -0.606882    17A     -0.567479    18A     -0.532975
      19A     -0.486680    20A     -0.484548

  @DF-RHF Final Energy:  -302.66086949359772

   => Energetics <=

    Nuclear Repulsion Energy =            182.4431429570230421
    One-Electron Energy =                -776.6230105363398479
    Two-Electron Energy =                 291.5189980857190903
    Total Energy =                       -302.6608694935977155
  Basis Set: (AUG-CC-PVTZ AUX)
    Blend: AUG-CC-PVTZ-RI
    Molecular point group: c1

    Geometry (in Angstrom), charge = 0, multiplicity = 1:

       Center              X                  Y                   Z               Mass
    ------------   -----------------  -----------------  -----------------  -----------------
         O           -0.475055521131    -0.853342682002    -0.007562344024    15.994914619570
         O            0.176925478869     1.315513317998    -0.000910344024    15.994914619570
         O           -1.746547721131    -0.140618982002     0.007861455976    15.994914619570
         C            1.841731478869    -0.465867682002     0.004055655976    12.000000000000
         C            0.466162478869     0.129004317998    -0.006946344024    12.000000000000
         H            2.309571478869    -0.245714682002     0.966388655976     1.007825032230
         H            1.808674478869    -1.544146682002    -0.149454344024     1.007825032230
         H            2.433492478869     0.010073317998    -0.779598344024     1.007825032230
         H           -1.580916521131     0.687504317998     0.006783655976     1.007825032230

  Basis Set: AUG-CC-PVTZ
    Blend: AUG-CC-PVTZ
  Basis Set: (AUG-CC-PVTZ AUX)
    Blend: AUG-CC-PVTZ-JKFIT
	 Reference Energy          =    -302.6608694935977155 [Eh]
	 Singles Energy            =      -0.0000000000000000 [Eh]
	 Same-Spin Energy          =      -0.2817949133847630 [Eh]
	 Opposite-Spin Energy      =      -0.8622595064325056 [Eh]
	 Correlation Energy        =      -1.1440544198172686 [Eh]
	 Total Energy              =    -303.8049239134149957 [Eh]

	 ================> DF-SCS-MP2 Energies <==================
	-----------------------------------------------------------
	 SCS Same-Spin Scale       =       0.3333333333333333 [-]
	 SCS Opposite-Spin Scale   =       1.2000000000000000 [-]
	 SCS Same-Spin Energy      =      -0.0939316377949210 [Eh]
	 SCS Opposite-Spin Energy  =      -1.0347114077190067 [Eh]
	 SCS Correlation Energy    =      -1.1286430455139278 [Eh]
	 SCS Total Energy          =    -303.7895125391116267 [Eh]
	-----------------------------------------------------------

  Dipole Moment: [D]
     X:     2.3864      Y:    -0.6501      Z:     0.0128     Total:     2.4734

*** Psi4 exiting successfully. Buy a developer a beer!
