                               Psi4 1.4a3.dev225

  ==> Input File <==

--------------------------------------------------------------------------
#psi4
#
memory 32 gb

molecule  {
0 1
  O       -0.5230660    -0.8124530    -0.0079950
  O        0.1289150     1.3564030    -0.0013430
  O       -1.8621010    -0.2365450     0.0068560
  C        1.7937210    -0.4249780     0.0036230
  C        0.4319886     0.1843352    -0.0073699
  H        2.2615610    -0.2048250     0.9659560
  H        1.7606640    -1.5032570    -0.1498870
  H        2.3854820     0.0509630    -0.7800310
  H       -1.6289270     0.7283940     0.0063510
units angstrom
no_reorient  #important for SAPT in psi4, default
symmetry c1  #important for SAPT in psi4, default
}

set PROPERTIES_ORIGIN ["COM"]
properties('MP2/aug-cc-pvtz', properties = ['dipole'])
--------------------------------------------------------------------------

    Molecular point group: c1
  Charge       = 0
  Multiplicity = 1
  Basis Set: AUG-CC-PVTZ
    Blend: AUG-CC-PVTZ
  Basis Set: (AUG-CC-PVTZ AUX)
    Blend: AUG-CC-PVTZ-JKFIT

    Orbital Energies [Eh]
    ---------------------

    Doubly Occupied:

       1A    -20.671465     2A    -20.646190     3A    -20.581740
       4A    -11.415598     5A    -11.266782     6A     -1.525262
       7A     -1.413149     8A     -1.258776     9A     -1.038357
      10A     -0.828849    11A     -0.741730    12A     -0.695631
      13A     -0.692744    14A     -0.619690    15A     -0.611706
      16A     -0.594676    17A     -0.570219    18A     -0.538758
      19A     -0.489696    20A     -0.475273

  @DF-RHF Final Energy:  -302.67959266317234

   => Energetics <=

    Nuclear Repulsion Energy =            180.2633950605753910
    One-Electron Energy =                -772.5333950915527339
    Two-Electron Energy =                 289.5904073678050281
    Total Energy =                       -302.6795926631723432
  Basis Set: (AUG-CC-PVTZ AUX)
    Blend: AUG-CC-PVTZ-RI
    Molecular point group: c1

    Geometry (in Angstrom), charge = 0, multiplicity = 1:

       Center              X                  Y                   Z               Mass
    ------------   -----------------  -----------------  -----------------  -----------------
         O           -0.463027769209    -0.826834316999    -0.007443254860    15.994914619570
         O            0.188953230791     1.342021683001    -0.000791254860    15.994914619570
         O           -1.802062769209    -0.250926316999     0.007407745140    15.994914619570
         C            1.853759230791    -0.439359316999     0.004174745140    12.000000000000
         C            0.492026830791     0.169953883001    -0.006818154860    12.000000000000
         H            2.321599230791    -0.219206316999     0.966507745140     1.007825032230
         H            1.820702230791    -1.517638316999    -0.149335254860     1.007825032230
         H            2.445520230791     0.036581683001    -0.779479254860     1.007825032230
         H           -1.568888769209     0.714012683001     0.006902745140     1.007825032230

  Basis Set: AUG-CC-PVTZ
    Blend: AUG-CC-PVTZ
  Basis Set: (AUG-CC-PVTZ AUX)
    Blend: AUG-CC-PVTZ-JKFIT
	 Reference Energy          =    -302.6795926631723432 [Eh]
	 Singles Energy            =      -0.0000000000000000 [Eh]
	 Same-Spin Energy          =      -0.2838714445810321 [Eh]
	 Opposite-Spin Energy      =      -0.8665410083870102 [Eh]
	 Correlation Energy        =      -1.1504124529680424 [Eh]
	 Total Energy              =    -303.8300051161403985 [Eh]

	 ================> DF-SCS-MP2 Energies <==================
	-----------------------------------------------------------
	 SCS Same-Spin Scale       =       0.3333333333333333 [-]
	 SCS Opposite-Spin Scale   =       1.2000000000000000 [-]
	 SCS Same-Spin Energy      =      -0.0946238148603440 [Eh]
	 SCS Opposite-Spin Energy  =      -1.0398492100644121 [Eh]
	 SCS Correlation Energy    =      -1.1344730249247561 [Eh]
	 SCS Total Energy          =    -303.8140656880971164 [Eh]
	-----------------------------------------------------------

  Dipole Moment: [D]
     X:     2.5257      Y:    -0.3888      Z:     0.0154     Total:     2.5555

*** Psi4 exiting successfully. Buy a developer a beer!
