                               Psi4 1.3.2 release

  ==> Input File <==

--------------------------------------------------------------------------
#psi4
#
memory 32 gb

molecule  {
0 1
  O       -0.5230660    -0.8124530    -0.0079950
  O        0.1289150     1.3564030    -0.0013430
  O       -1.8411835    -0.1901631     0.0070653
  C        1.7937210    -0.4249780     0.0036230
  C        0.4181520     0.1698940    -0.0073790
  H        2.2615610    -0.2048250     0.9659560
  H        1.7606640    -1.5032570    -0.1498870
  H        2.3854820     0.0509630    -0.7800310
  H       -1.6289270     0.7283940     0.0063510
units angstrom
no_reorient  #important for SAPT in psi4, default
symmetry c1  #important for SAPT in psi4, default
}

set PROPERTIES_ORIGIN ["COM"]
properties('MP2/aug-cc-pvtz', properties = ['dipole'])
--------------------------------------------------------------------------

    Molecular point group: c1
  Charge       = 0
  Multiplicity = 1
  Basis Set: AUG-CC-PVTZ
    Blend: AUG-CC-PVTZ
  Basis Set: (AUG-CC-PVTZ AUX)
    Blend: AUG-CC-PVTZ-JKFIT

    Orbital Energies [Eh]
    ---------------------

    Doubly Occupied:

       1A    -20.680180     2A    -20.644508     3A    -20.577283
       4A    -11.415066     5A    -11.265874     6A     -1.536688
       7A     -1.405657     8A     -1.276035     9A     -1.036156
      10A     -0.840030    11A     -0.740506    12A     -0.698411
      13A     -0.697935    14A     -0.621870    15A     -0.611169
      16A     -0.601997    17A     -0.570819    18A     -0.535137
      19A     -0.487138    20A     -0.479819

  @DF-RHF Final Energy:  -302.68077565846289

   => Energetics <=

    Nuclear Repulsion Energy =            181.0097730055972818
    One-Electron Energy =                -773.9365419939164212
    Two-Electron Energy =                 290.2459933298562760
    Total Energy =                       -302.6807756584628919
  Basis Set: (AUG-CC-PVTZ AUX)
    Blend: AUG-CC-PVTZ-RI
    Molecular point group: c1

    Geometry (in Angstrom), charge = 0, multiplicity = 1:

       Center              X                  Y                   Z               Mass
    ------------   -----------------  -----------------  -----------------  -----------------
         O           -0.465244859415    -0.834314055493    -0.007485858178    15.994914619570
         O            0.186736140585     1.334541944507    -0.000833858178    15.994914619570
         O           -1.783362359415    -0.212024155493     0.007574441822    15.994914619570
         C            1.851542140585    -0.446839055493     0.004132141822    12.000000000000
         C            0.475973140585     0.148032944507    -0.006869858178    12.000000000000
         H            2.319382140585    -0.226686055493     0.966465141822     1.007825032230
         H            1.818485140585    -1.525118055493    -0.149377858178     1.007825032230
         H            2.443303140585     0.029101944507    -0.779521858178     1.007825032230
         H           -1.571105859415     0.706532944507     0.006860141822     1.007825032230

  Basis Set: AUG-CC-PVTZ
    Blend: AUG-CC-PVTZ
  Basis Set: (AUG-CC-PVTZ AUX)
    Blend: AUG-CC-PVTZ-JKFIT
	 Reference Energy          =    -302.6807756584628919 [Eh]
	 Singles Energy            =      -0.0000000000000000 [Eh]
	 Same-Spin Energy          =      -0.2830714224701978 [Eh]
	 Opposite-Spin Energy      =      -0.8648301975509245 [Eh]
	 Correlation Energy        =      -1.1479016200211223 [Eh]
	 Total Energy              =    -303.8286772784840082 [Eh]

	 ================> DF-SCS-MP2 Energies <==================
	-----------------------------------------------------------
	 SCS Same-Spin Scale       =       0.3333333333333333 [-]
	 SCS Opposite-Spin Scale   =       1.2000000000000000 [-]
	 SCS Same-Spin Energy      =      -0.0943571408233993 [Eh]
	 SCS Opposite-Spin Energy  =      -1.0377962370611094 [Eh]
	 SCS Correlation Energy    =      -1.1321533778845085 [Eh]
	 SCS Total Energy          =    -303.8129290363473842 [Eh]
	-----------------------------------------------------------

  Dipole Moment: [D]
     X:     2.3918      Y:    -0.5472      Z:     0.0143     Total:     2.4537

*** Psi4 exiting successfully. Buy a developer a beer!
