                               Psi4 1.3.2 release

  ==> Input File <==

--------------------------------------------------------------------------
#psi4
#
memory 32 gb

molecule  {
0 1
  O       -0.5400664    -0.7958773    -0.0081769
  O        0.1289150     1.3564030    -0.0013430
  O       -1.8621010    -0.2365450     0.0068560
  C        1.7937210    -0.4249780     0.0036230
  C        0.4181520     0.1698940    -0.0073790
  H        2.2615610    -0.2048250     0.9659560
  H        1.7606640    -1.5032570    -0.1498870
  H        2.3854820     0.0509630    -0.7800310
  H       -1.6289270     0.7283940     0.0063510
units angstrom
no_reorient  #important for SAPT in psi4, default
symmetry c1  #important for SAPT in psi4, default
}

set PROPERTIES_ORIGIN ["COM"]
properties('MP2/aug-cc-pvtz', properties = ['dipole'])
--------------------------------------------------------------------------

    Molecular point group: c1
  Charge       = 0
  Multiplicity = 1
  Basis Set: AUG-CC-PVTZ
    Blend: AUG-CC-PVTZ
  Basis Set: (AUG-CC-PVTZ AUX)
    Blend: AUG-CC-PVTZ-JKFIT

    Orbital Energies [Eh]
    ---------------------

    Doubly Occupied:

       1A    -20.674334     2A    -20.648361     3A    -20.577229
       4A    -11.415120     5A    -11.267032     6A     -1.538579
       7A     -1.406900     8A     -1.262286     9A     -1.036008
      10A     -0.837364    11A     -0.739450    12A     -0.698751
      13A     -0.698320    14A     -0.618679    15A     -0.612627
      16A     -0.592213    17A     -0.576150    18A     -0.536020
      19A     -0.487562    20A     -0.473343

  @DF-RHF Final Energy:  -302.68187801743852

   => Energetics <=

    Nuclear Repulsion Energy =            180.7299048792420706
    One-Electron Energy =                -773.4309066168661957
    Two-Electron Energy =                 290.0191237201855756
    Total Energy =                       -302.6818780174385211
  Basis Set: (AUG-CC-PVTZ AUX)
    Blend: AUG-CC-PVTZ-RI
    Molecular point group: c1

    Geometry (in Angstrom), charge = 0, multiplicity = 1:

       Center              X                  Y                   Z               Mass
    ------------   -----------------  -----------------  -----------------  -----------------
         O           -0.474266765123    -0.811466684420    -0.007585443836    15.994914619570
         O            0.194714634877     1.340813615580    -0.000751543836    15.994914619570
         O           -1.796301365123    -0.252134384420     0.007447456164    15.994914619570
         C            1.859520634877    -0.440567384420     0.004214456164    12.000000000000
         C            0.483951634877     0.154304615580    -0.006787543836    12.000000000000
         H            2.327360634877    -0.220414384420     0.966547456164     1.007825032230
         H            1.826463634877    -1.518846384420    -0.149295543836     1.007825032230
         H            2.451281634877     0.035373615580    -0.779439543836     1.007825032230
         H           -1.563127365123     0.712804615580     0.006942456164     1.007825032230

  Basis Set: AUG-CC-PVTZ
    Blend: AUG-CC-PVTZ
  Basis Set: (AUG-CC-PVTZ AUX)
    Blend: AUG-CC-PVTZ-JKFIT
	 Reference Energy          =    -302.6818780174385211 [Eh]
	 Singles Energy            =      -0.0000000000000000 [Eh]
	 Same-Spin Energy          =      -0.2835386549926593 [Eh]
	 Opposite-Spin Energy      =      -0.8649257275761711 [Eh]
	 Correlation Energy        =      -1.1484643825688305 [Eh]
	 Total Energy              =    -303.8303424000073392 [Eh]

	 ================> DF-SCS-MP2 Energies <==================
	-----------------------------------------------------------
	 SCS Same-Spin Scale       =       0.3333333333333333 [-]
	 SCS Opposite-Spin Scale   =       1.2000000000000000 [-]
	 SCS Same-Spin Energy      =      -0.0945128849975531 [Eh]
	 SCS Opposite-Spin Energy  =      -1.0379108730914053 [Eh]
	 SCS Correlation Energy    =      -1.1324237580889585 [Eh]
	 SCS Total Energy          =    -303.8143017755274968 [Eh]
	-----------------------------------------------------------

  Dipole Moment: [D]
     X:     2.4090      Y:    -0.5237      Z:     0.0151     Total:     2.4653

*** Psi4 exiting successfully. Buy a developer a beer!
