                               Psi4 1.4a3.dev225

  ==> Input File <==

--------------------------------------------------------------------------
#psi4
#
memory 32 gb

molecule  {
0 1
  O       -0.5230660    -0.8124530    -0.0079950
  O        0.1289150     1.3564030    -0.0013430
  O       -1.8621010    -0.2365450     0.0068560
  C        1.7937210    -0.4249780     0.0036230
  C        0.4043154     0.1554528    -0.0073881
  H        2.2615610    -0.2048250     0.9659560
  H        1.7606640    -1.5032570    -0.1498870
  H        2.3854820     0.0509630    -0.7800310
  H       -1.6289270     0.7283940     0.0063510
units angstrom
no_reorient  #important for SAPT in psi4, default
symmetry c1  #important for SAPT in psi4, default
}

set PROPERTIES_ORIGIN ["COM"]
properties('MP2/aug-cc-pvtz', properties = ['dipole'])
--------------------------------------------------------------------------

    Molecular point group: c1
  Charge       = 0
  Multiplicity = 1
  Basis Set: AUG-CC-PVTZ
    Blend: AUG-CC-PVTZ
  Basis Set: (AUG-CC-PVTZ AUX)
    Blend: AUG-CC-PVTZ-JKFIT

    Orbital Energies [Eh]
    ---------------------

    Doubly Occupied:

       1A    -20.681523     2A    -20.653550     3A    -20.574746
       4A    -11.415245     5A    -11.265341     6A     -1.538676
       7A     -1.398157     8A     -1.273885     9A     -1.032540
      10A     -0.839071    11A     -0.736246    12A     -0.700493
      13A     -0.698895    14A     -0.618444    15A     -0.610003
      16A     -0.596348    17A     -0.572727    18A     -0.534262
      19A     -0.484835    20A     -0.479339

  @DF-RHF Final Energy:  -302.67959689623990

   => Energetics <=

    Nuclear Repulsion Energy =            180.4676145912205811
    One-Electron Energy =                -772.8857732493141839
    Two-Electron Energy =                 289.7385617618537026
    Total Energy =                       -302.6795968962399002
  Basis Set: (AUG-CC-PVTZ AUX)
    Blend: AUG-CC-PVTZ-RI
    Molecular point group: c1

    Geometry (in Angstrom), charge = 0, multiplicity = 1:

       Center              X                  Y                   Z               Mass
    ------------   -----------------  -----------------  -----------------  -----------------
         O           -0.458659238797    -0.822274900567    -0.007440381783    15.994914619570
         O            0.193321761203     1.346581099433    -0.000788381783    15.994914619570
         O           -1.797694238797    -0.246366900567     0.007410618217    15.994914619570
         C            1.858127761203    -0.434799900567     0.004177618217    12.000000000000
         C            0.468722161203     0.145630899433    -0.006833481783    12.000000000000
         H            2.325967761203    -0.214646900567     0.966510618217     1.007825032230
         H            1.825070761203    -1.513078900567    -0.149332381783     1.007825032230
         H            2.449888761203     0.041141099433    -0.779476381783     1.007825032230
         H           -1.564520238797     0.718572099433     0.006905618217     1.007825032230

  Basis Set: AUG-CC-PVTZ
    Blend: AUG-CC-PVTZ
  Basis Set: (AUG-CC-PVTZ AUX)
    Blend: AUG-CC-PVTZ-JKFIT
	 Reference Energy          =    -302.6795968962399002 [Eh]
	 Singles Energy            =      -0.0000000000000000 [Eh]
	 Same-Spin Energy          =      -0.2838131774580870 [Eh]
	 Opposite-Spin Energy      =      -0.8663060779406744 [Eh]
	 Correlation Energy        =      -1.1501192553987614 [Eh]
	 Total Energy              =    -303.8297161516386495 [Eh]

	 ================> DF-SCS-MP2 Energies <==================
	-----------------------------------------------------------
	 SCS Same-Spin Scale       =       0.3333333333333333 [-]
	 SCS Opposite-Spin Scale   =       1.2000000000000000 [-]
	 SCS Same-Spin Energy      =      -0.0946043924860290 [Eh]
	 SCS Opposite-Spin Energy  =      -1.0395672935288092 [Eh]
	 SCS Correlation Energy    =      -1.1341716860148381 [Eh]
	 SCS Total Energy          =    -303.8137685822547382 [Eh]
	-----------------------------------------------------------

  Dipole Moment: [D]
     X:     2.2905      Y:    -0.6090      Z:     0.0145     Total:     2.3701

*** Psi4 exiting successfully. Buy a developer a beer!
