                               Psi4 1.3.2 release

  ==> Input File <==

--------------------------------------------------------------------------
#psi4
#
memory 32 gb

molecule  {
0 1
  O       -0.5230660    -0.8124530    -0.0079950
  O        0.1289150     1.3564030    -0.0013430
  O       -1.8621010    -0.2365450     0.0068560
  C        1.7937210    -0.4249780     0.0036230
  C        0.3263695     0.2095858    -0.0081131
  H        2.2615610    -0.2048250     0.9659560
  H        1.7606640    -1.5032570    -0.1498870
  H        2.3854820     0.0509630    -0.7800310
  H       -1.6289270     0.7283940     0.0063510
units angstrom
no_reorient  #important for SAPT in psi4, default
symmetry c1  #important for SAPT in psi4, default
}

set PROPERTIES_ORIGIN ["COM"]
properties('MP2/aug-cc-pvtz', properties = ['dipole'])
--------------------------------------------------------------------------

    Molecular point group: c1
  Charge       = 0
  Multiplicity = 1
  Basis Set: AUG-CC-PVTZ
    Blend: AUG-CC-PVTZ
  Basis Set: (AUG-CC-PVTZ AUX)
    Blend: AUG-CC-PVTZ-JKFIT

    Orbital Energies [Eh]
    ---------------------

    Doubly Occupied:

       1A    -20.685007     2A    -20.652275     3A    -20.585464
       4A    -11.408928     5A    -11.258531     6A     -1.552088
       7A     -1.445399     8A     -1.276832     9A     -1.002269
      10A     -0.844214    11A     -0.744378    12A     -0.709316
      13A     -0.706266    14A     -0.618555    15A     -0.610512
      16A     -0.602865    17A     -0.563059    18A     -0.551978
      19A     -0.488468    20A     -0.474437

  @DF-RHF Final Energy:  -302.67276183372599

   => Energetics <=

    Nuclear Repulsion Energy =            181.3402118219830754
    One-Electron Energy =                -774.4642689065479999
    Two-Electron Energy =                 290.4512952508389390
    Total Energy =                       -302.6727618337259855
  Basis Set: (AUG-CC-PVTZ AUX)
    Blend: AUG-CC-PVTZ-RI
    Molecular point group: c1

    Geometry (in Angstrom), charge = 0, multiplicity = 1:

       Center              X                  Y                   Z               Mass
    ------------   -----------------  -----------------  -----------------  -----------------
         O           -0.446354589003    -0.830820412356    -0.007325932259    15.994914619570
         O            0.205626410997     1.338035587644    -0.000673932259    15.994914619570
         O           -1.785389589003    -0.254912412356     0.007525067741    15.994914619570
         C            1.870432410997    -0.443345412356     0.004292067741    12.000000000000
         C            0.403080910997     0.191218387644    -0.007444032259    12.000000000000
         H            2.338272410997    -0.223192412356     0.966625067741     1.007825032230
         H            1.837375410997    -1.521624412356    -0.149217932259     1.007825032230
         H            2.462193410997     0.032595587644    -0.779361932259     1.007825032230
         H           -1.552215589003     0.710026587644     0.007020067741     1.007825032230

  Basis Set: AUG-CC-PVTZ
    Blend: AUG-CC-PVTZ
  Basis Set: (AUG-CC-PVTZ AUX)
    Blend: AUG-CC-PVTZ-JKFIT
	 Reference Energy          =    -302.6727618337259855 [Eh]
	 Singles Energy            =      -0.0000000000000000 [Eh]
	 Same-Spin Energy          =      -0.2823518831434410 [Eh]
	 Opposite-Spin Energy      =      -0.8639456223788543 [Eh]
	 Correlation Energy        =      -1.1462975055222953 [Eh]
	 Total Energy              =    -303.8190593392482697 [Eh]

	 ================> DF-SCS-MP2 Energies <==================
	-----------------------------------------------------------
	 SCS Same-Spin Scale       =       0.3333333333333333 [-]
	 SCS Opposite-Spin Scale   =       1.2000000000000000 [-]
	 SCS Same-Spin Energy      =      -0.0941172943811470 [Eh]
	 SCS Opposite-Spin Energy  =      -1.0367347468546251 [Eh]
	 SCS Correlation Energy    =      -1.1308520412357721 [Eh]
	 SCS Total Energy          =    -303.8036138749617407 [Eh]
	-----------------------------------------------------------

  Dipole Moment: [D]
     X:     1.9078      Y:    -0.2433      Z:     0.0087     Total:     1.9233

*** Psi4 exiting successfully. Buy a developer a beer!
