                               Psi4 1.3.2 release

  ==> Input File <==

--------------------------------------------------------------------------
#psi4
#
memory 32 gb

molecule  {
0 1
  O       -0.6205918    -0.7086893    -0.0071991
  O        0.1289150     1.3564030    -0.0013430
  O       -1.8621010    -0.2365450     0.0068560
  C        1.7937210    -0.4249780     0.0036230
  C        0.4181520     0.1698940    -0.0073790
  H        2.2615610    -0.2048250     0.9659560
  H        1.7606640    -1.5032570    -0.1498870
  H        2.3854820     0.0509630    -0.7800310
  H       -1.6289270     0.7283940     0.0063510
units angstrom
no_reorient  #important for SAPT in psi4, default
symmetry c1  #important for SAPT in psi4, default
}

set PROPERTIES_ORIGIN ["COM"]
properties('MP2/aug-cc-pvtz', properties = ['dipole'])
--------------------------------------------------------------------------

    Molecular point group: c1
  Charge       = 0
  Multiplicity = 1
  Basis Set: AUG-CC-PVTZ
    Blend: AUG-CC-PVTZ
  Basis Set: (AUG-CC-PVTZ AUX)
    Blend: AUG-CC-PVTZ-JKFIT

    Orbital Energies [Eh]
    ---------------------

    Doubly Occupied:

       1A    -20.662456     2A    -20.641472     3A    -20.571335
       4A    -11.414084     5A    -11.272127     6A     -1.583358
       7A     -1.411809     8A     -1.241363     9A     -1.038561
      10A     -0.857993    11A     -0.742681    12A     -0.713925
      13A     -0.707275    14A     -0.624905    15A     -0.620738
      16A     -0.595566    17A     -0.565763    18A     -0.535455
      19A     -0.485956    20A     -0.448886

  @DF-RHF Final Energy:  -302.67587492316392

   => Energetics <=

    Nuclear Repulsion Energy =            182.7541485787760394
    One-Electron Energy =                -777.3886295227902110
    Two-Electron Energy =                 291.9586060208502545
    Total Energy =                       -302.6758749231639172
  Basis Set: (AUG-CC-PVTZ AUX)
    Blend: AUG-CC-PVTZ-RI
    Molecular point group: c1

    Geometry (in Angstrom), charge = 0, multiplicity = 1:

       Center              X                  Y                   Z               Mass
    ------------   -----------------  -----------------  -----------------  -----------------
         O           -0.537848414433    -0.742624345977    -0.006813387607    15.994914619570
         O            0.211658385567     1.322467954023    -0.000957287607    15.994914619570
         O           -1.779357614433    -0.270480045977     0.007241712393    15.994914619570
         C            1.876464385567    -0.458913045977     0.004008712393    12.000000000000
         C            0.500895385567     0.135958954023    -0.006993287607    12.000000000000
         H            2.344304385567    -0.238760045977     0.966341712393     1.007825032230
         H            1.843407385567    -1.537192045977    -0.149501287607     1.007825032230
         H            2.468225385567     0.017027954023    -0.779645287607     1.007825032230
         H           -1.546183614433     0.694458954023     0.006736712393     1.007825032230

  Basis Set: AUG-CC-PVTZ
    Blend: AUG-CC-PVTZ
  Basis Set: (AUG-CC-PVTZ AUX)
    Blend: AUG-CC-PVTZ-JKFIT
	 Reference Energy          =    -302.6758749231639172 [Eh]
	 Singles Energy            =      -0.0000000000000000 [Eh]
	 Same-Spin Energy          =      -0.2826876598184605 [Eh]
	 Opposite-Spin Energy      =      -0.8590764946722581 [Eh]
	 Correlation Energy        =      -1.1417641544907187 [Eh]
	 Total Energy              =    -303.8176390776546327 [Eh]

	 ================> DF-SCS-MP2 Energies <==================
	-----------------------------------------------------------
	 SCS Same-Spin Scale       =       0.3333333333333333 [-]
	 SCS Opposite-Spin Scale   =       1.2000000000000000 [-]
	 SCS Same-Spin Energy      =      -0.0942292199394868 [Eh]
	 SCS Opposite-Spin Energy  =      -1.0308917936067097 [Eh]
	 SCS Correlation Energy    =      -1.1251210135461964 [Eh]
	 SCS Total Energy          =    -303.8009959367101374 [Eh]
	-----------------------------------------------------------

  Dipole Moment: [D]
     X:     2.4097      Y:    -0.6836      Z:     0.0148     Total:     2.5048

*** Psi4 exiting successfully. Buy a developer a beer!
