                               Psi4 1.3.2 release

  ==> Input File <==

--------------------------------------------------------------------------
#psi4
#
memory 32 gb

molecule  {
0 1
  O       -0.5230660    -0.8124530    -0.0079950
  O        0.1289150     1.3564030    -0.0013430
  O       -1.8621010    -0.2365450     0.0068560
  C        1.7937210    -0.4249780     0.0036230
  C        0.4418353     0.0727402    -0.0078732
  H        2.2615610    -0.2048250     0.9659560
  H        1.7606640    -1.5032570    -0.1498870
  H        2.3854820     0.0509630    -0.7800310
  H       -1.6289270     0.7283940     0.0063510
units angstrom
no_reorient  #important for SAPT in psi4, default
symmetry c1  #important for SAPT in psi4, default
}

set PROPERTIES_ORIGIN ["COM"]
properties('MP2/aug-cc-pvtz', properties = ['dipole'])
--------------------------------------------------------------------------

    Molecular point group: c1
  Charge       = 0
  Multiplicity = 1
  Basis Set: AUG-CC-PVTZ
    Blend: AUG-CC-PVTZ
  Basis Set: (AUG-CC-PVTZ AUX)
    Blend: AUG-CC-PVTZ-JKFIT

    Orbital Energies [Eh]
    ---------------------

    Doubly Occupied:

       1A    -20.689676     2A    -20.663270     3A    -20.556895
       4A    -11.420638     5A    -11.267978     6A     -1.546714
       7A     -1.345675     8A     -1.282430     9A     -1.056044
      10A     -0.847078    11A     -0.731899    12A     -0.705756
      13A     -0.698758    14A     -0.625599    15A     -0.617027
      16A     -0.591747    17A     -0.569524    18A     -0.523697
      19A     -0.472396    20A     -0.464160

  @DF-RHF Final Energy:  -302.65874254018081

   => Energetics <=

    Nuclear Repulsion Energy =            180.0625661576308687
    One-Electron Energy =                -772.0886996194398080
    Two-Electron Energy =                 289.3673909216281572
    Total Energy =                       -302.6587425401808105
  Basis Set: (AUG-CC-PVTZ AUX)
    Blend: AUG-CC-PVTZ-RI
    Molecular point group: c1

    Geometry (in Angstrom), charge = 0, multiplicity = 1:

       Center              X                  Y                   Z               Mass
    ------------   -----------------  -----------------  -----------------  -----------------
         O           -0.464582183170    -0.809217772783    -0.007363803212    15.994914619570
         O            0.187398816830     1.359638227217    -0.000711803212    15.994914619570
         O           -1.803617183170    -0.233309772783     0.007487196788    15.994914619570
         C            1.852204816830    -0.421742772783     0.004254196788    12.000000000000
         C            0.500319116830     0.075975427217    -0.007242003212    12.000000000000
         H            2.320044816830    -0.201589772783     0.966587196788     1.007825032230
         H            1.819147816830    -1.500021772783    -0.149255803212     1.007825032230
         H            2.443965816830     0.054198227217    -0.779399803212     1.007825032230
         H           -1.570443183170     0.731629227217     0.006982196788     1.007825032230

  Basis Set: AUG-CC-PVTZ
    Blend: AUG-CC-PVTZ
  Basis Set: (AUG-CC-PVTZ AUX)
    Blend: AUG-CC-PVTZ-JKFIT
	 Reference Energy          =    -302.6587425401808105 [Eh]
	 Singles Energy            =      -0.0000000000000000 [Eh]
	 Same-Spin Energy          =      -0.2856428442197488 [Eh]
	 Opposite-Spin Energy      =      -0.8692279536177910 [Eh]
	 Correlation Energy        =      -1.1548707978375399 [Eh]
	 Total Energy              =    -303.8136133380183423 [Eh]

	 ================> DF-SCS-MP2 Energies <==================
	-----------------------------------------------------------
	 SCS Same-Spin Scale       =       0.3333333333333333 [-]
	 SCS Opposite-Spin Scale   =       1.2000000000000000 [-]
	 SCS Same-Spin Energy      =      -0.0952142814065829 [Eh]
	 SCS Opposite-Spin Energy  =      -1.0430735443413492 [Eh]
	 SCS Correlation Energy    =      -1.1382878257479323 [Eh]
	 SCS Total Energy          =    -303.7970303659287197 [Eh]
	-----------------------------------------------------------

  Dipole Moment: [D]
     X:     2.3416      Y:    -1.1434      Z:     0.0187     Total:     2.6059

*** Psi4 exiting successfully. Buy a developer a beer!
