                               Psi4 1.3.2 release

  ==> Input File <==

--------------------------------------------------------------------------
#psi4
#
memory 32 gb

molecule  {
0 1
  O       -0.5230660    -0.8124530    -0.0079950
  O        0.2123816     1.3736821    -0.0002556
  O       -1.8621010    -0.2365450     0.0068560
  C        1.7937210    -0.4249780     0.0036230
  C        0.4181520     0.1698940    -0.0073790
  H        2.2615610    -0.2048250     0.9659560
  H        1.7606640    -1.5032570    -0.1498870
  H        2.3854820     0.0509630    -0.7800310
  H       -1.6289270     0.7283940     0.0063510
units angstrom
no_reorient  #important for SAPT in psi4, default
symmetry c1  #important for SAPT in psi4, default
}

set PROPERTIES_ORIGIN ["COM"]
properties('MP2/aug-cc-pvtz', properties = ['dipole'])
--------------------------------------------------------------------------

    Molecular point group: c1
  Charge       = 0
  Multiplicity = 1
  Basis Set: AUG-CC-PVTZ
    Blend: AUG-CC-PVTZ
  Basis Set: (AUG-CC-PVTZ AUX)
    Blend: AUG-CC-PVTZ-JKFIT

    Orbital Energies [Eh]
    ---------------------

    Doubly Occupied:

       1A    -20.682366     2A    -20.655455     3A    -20.578907
       4A    -11.415208     5A    -11.261265     6A     -1.533401
       7A     -1.408670     8A     -1.270439     9A     -1.031438
      10A     -0.837540    11A     -0.735922    12A     -0.698575
      13A     -0.696944    14A     -0.620518    15A     -0.610732
      16A     -0.599597    17A     -0.571393    18A     -0.536168
      19A     -0.484187    20A     -0.481216

  @DF-RHF Final Energy:  -302.67815643491986

   => Energetics <=

    Nuclear Repulsion Energy =            179.8696387873239928
    One-Electron Energy =                -771.6757105164534778
    Two-Electron Energy =                 289.1279152942096289
    Total Energy =                       -302.6781564349198561
  Basis Set: (AUG-CC-PVTZ AUX)
    Blend: AUG-CC-PVTZ-RI
    Molecular point group: c1

    Geometry (in Angstrom), charge = 0, multiplicity = 1:

       Center              X                  Y                   Z               Mass
    ------------   -----------------  -----------------  -----------------  -----------------
         O           -0.478406127241    -0.828190390319    -0.007670623574    15.994914619570
         O            0.257041472759     1.357944709681     0.000068776426    15.994914619570
         O           -1.817441127241    -0.252282390319     0.007180376426    15.994914619570
         C            1.838380872759    -0.440715390319     0.003947376426    12.000000000000
         C            0.462811872759     0.154156609681    -0.007054623574    12.000000000000
         H            2.306220872759    -0.220562390319     0.966280376426     1.007825032230
         H            1.805323872759    -1.518994390319    -0.149562623574     1.007825032230
         H            2.430141872759     0.035225609681    -0.779706623574     1.007825032230
         H           -1.584267127241     0.712656609681     0.006675376426     1.007825032230

  Basis Set: AUG-CC-PVTZ
    Blend: AUG-CC-PVTZ
  Basis Set: (AUG-CC-PVTZ AUX)
    Blend: AUG-CC-PVTZ-JKFIT
	 Reference Energy          =    -302.6781564349198561 [Eh]
	 Singles Energy            =      -0.0000000000000000 [Eh]
	 Same-Spin Energy          =      -0.2837196363104012 [Eh]
	 Opposite-Spin Energy      =      -0.8667351348980985 [Eh]
	 Correlation Energy        =      -1.1504547712084996 [Eh]
	 Total Energy              =    -303.8286112061283575 [Eh]

	 ================> DF-SCS-MP2 Energies <==================
	-----------------------------------------------------------
	 SCS Same-Spin Scale       =       0.3333333333333333 [-]
	 SCS Opposite-Spin Scale   =       1.2000000000000000 [-]
	 SCS Same-Spin Energy      =      -0.0945732121034671 [Eh]
	 SCS Opposite-Spin Energy  =      -1.0400821618777181 [Eh]
	 SCS Correlation Energy    =      -1.1346553739811851 [Eh]
	 SCS Total Energy          =    -303.8128118089010172 [Eh]
	-----------------------------------------------------------

  Dipole Moment: [D]
     X:     2.1374      Y:    -0.5145      Z:     0.0134     Total:     2.1985

*** Psi4 exiting successfully. Buy a developer a beer!
