                               Psi4 1.4a3.dev225

  ==> Input File <==

--------------------------------------------------------------------------
#psi4
#
memory 32 gb

molecule  {
0 1
  O       -0.5230660    -0.8124530    -0.0079950
  O        0.1289150     1.3564030    -0.0013430
  O       -1.8621010    -0.2365450     0.0068560
  C        1.7937210    -0.4249780     0.0036230
  C        0.4181520     0.1698940    -0.0073790
  H        2.2615610    -0.2048250     0.9659560
  H        1.7606640    -1.5032570    -0.1498870
  H        2.3854820     0.0509630    -0.7800310
  H       -1.6336247     0.7089535     0.0063612
units angstrom
no_reorient  #important for SAPT in psi4, default
symmetry c1  #important for SAPT in psi4, default
}

set PROPERTIES_ORIGIN ["COM"]
properties('MP2/aug-cc-pvtz', properties = ['dipole'])
--------------------------------------------------------------------------

    Molecular point group: c1
  Charge       = 0
  Multiplicity = 1
  Basis Set: AUG-CC-PVTZ
    Blend: AUG-CC-PVTZ
  Basis Set: (AUG-CC-PVTZ AUX)
    Blend: AUG-CC-PVTZ-JKFIT

    Orbital Energies [Eh]
    ---------------------

    Doubly Occupied:

       1A    -20.677140     2A    -20.649332     3A    -20.577817
       4A    -11.415369     5A    -11.266039     6A     -1.533378
       7A     -1.406113     8A     -1.270261     9A     -1.035707
      10A     -0.836075    11A     -0.739246    12A     -0.697372
      13A     -0.696784    14A     -0.620999    15A     -0.611302
      16A     -0.597512    17A     -0.572328    18A     -0.536310
      19A     -0.487188    20A     -0.478338

  @DF-RHF Final Energy:  -302.68103827305646

   => Energetics <=

    Nuclear Repulsion Energy =            180.4529420048885413
    One-Electron Energy =                -772.8587374562878267
    Two-Electron Energy =                 289.7247571783428270
    Total Energy =                       -302.6810382730564584
  Basis Set: (AUG-CC-PVTZ AUX)
    Blend: AUG-CC-PVTZ-RI
    Molecular point group: c1

    Geometry (in Angstrom), charge = 0, multiplicity = 1:

       Center              X                  Y                   Z               Mass
    ------------   -----------------  -----------------  -----------------  -----------------
         O           -0.460781221630    -0.824296865529    -0.007441953554    15.994914619570
         O            0.191199778370     1.344559134471    -0.000789953554    15.994914619570
         O           -1.799816221630    -0.248388865529     0.007409046446    15.994914619570
         C            1.856005778370    -0.436821865529     0.004176046446    12.000000000000
         C            0.480436778370     0.158050134471    -0.006825953554    12.000000000000
         H            2.323845778370    -0.216668865529     0.966509046446     1.007825032230
         H            1.822948778370    -1.515100865529    -0.149333953554     1.007825032230
         H            2.447766778370     0.039119134471    -0.779477953554     1.007825032230
         H           -1.571339921630     0.697109634471     0.006914246446     1.007825032230

  Basis Set: AUG-CC-PVTZ
    Blend: AUG-CC-PVTZ
  Basis Set: (AUG-CC-PVTZ AUX)
    Blend: AUG-CC-PVTZ-JKFIT
	 Reference Energy          =    -302.6810382730564584 [Eh]
	 Singles Energy            =      -0.0000000000000000 [Eh]
	 Same-Spin Energy          =      -0.2834917667595075 [Eh]
	 Opposite-Spin Energy      =      -0.8657539225050341 [Eh]
	 Correlation Energy        =      -1.1492456892645415 [Eh]
	 Total Energy              =    -303.8302839623210048 [Eh]

	 ================> DF-SCS-MP2 Energies <==================
	-----------------------------------------------------------
	 SCS Same-Spin Scale       =       0.3333333333333333 [-]
	 SCS Opposite-Spin Scale   =       1.2000000000000000 [-]
	 SCS Same-Spin Energy      =      -0.0944972555865025 [Eh]
	 SCS Opposite-Spin Energy  =      -1.0389047070060409 [Eh]
	 SCS Correlation Energy    =      -1.1334019625925433 [Eh]
	 SCS Total Energy          =    -303.8144402356489877 [Eh]
	-----------------------------------------------------------

  Dipole Moment: [D]
     X:     2.3931      Y:    -0.5227      Z:     0.0149     Total:     2.4496

*** Psi4 exiting successfully. Buy a developer a beer!
