                               Psi4 1.4a3.dev225

  ==> Input File <==

--------------------------------------------------------------------------
#psi4
#
memory 32 gb

molecule  {
0 1
  O       -0.5230660    -0.8124530    -0.0079950
  O        0.1289150     1.3564030    -0.0013430
  O       -1.8621010    -0.2365450     0.0068560
  C        1.7937210    -0.4249780     0.0036230
  C        0.4063103     0.2184709    -0.0071319
  H        2.2615610    -0.2048250     0.9659560
  H        1.7606640    -1.5032570    -0.1498870
  H        2.3854820     0.0509630    -0.7800310
  H       -1.6289270     0.7283940     0.0063510
units angstrom
no_reorient  #important for SAPT in psi4, default
symmetry c1  #important for SAPT in psi4, default
}

set PROPERTIES_ORIGIN ["COM"]
properties('MP2/aug-cc-pvtz', properties = ['dipole'])
--------------------------------------------------------------------------

    Molecular point group: c1
  Charge       = 0
  Multiplicity = 1
  Basis Set: AUG-CC-PVTZ
    Blend: AUG-CC-PVTZ
  Basis Set: (AUG-CC-PVTZ AUX)
    Blend: AUG-CC-PVTZ-JKFIT

    Orbital Energies [Eh]
    ---------------------

    Doubly Occupied:

       1A    -20.669249     2A    -20.643188     3A    -20.588569
       4A    -11.411815     5A    -11.264807     6A     -1.529185
       7A     -1.438141     8A     -1.254921     9A     -1.025540
      10A     -0.827703    11A     -0.747571    12A     -0.698568
      13A     -0.694283    14A     -0.618415    15A     -0.608772
      16A     -0.600335    17A     -0.565491    18A     -0.550649
      19A     -0.488163    20A     -0.476169

  @DF-RHF Final Energy:  -302.67893843599336

   => Energetics <=

    Nuclear Repulsion Energy =            180.6001362630596532
    One-Electron Energy =                -773.1550799939105900
    Two-Electron Energy =                 289.8760052948575776
    Total Energy =                       -302.6789384359933592
  Basis Set: (AUG-CC-PVTZ AUX)
    Blend: AUG-CC-PVTZ-RI
    Molecular point group: c1

    Geometry (in Angstrom), charge = 0, multiplicity = 1:

       Center              X                  Y                   Z               Mass
    ------------   -----------------  -----------------  -----------------  -----------------
         O           -0.458974156527    -0.832223026783    -0.007480825876    15.994914619570
         O            0.193006843473     1.336632973217    -0.000828825876    15.994914619570
         O           -1.798009156527    -0.256315026783     0.007370174124    15.994914619570
         C            1.857812843473    -0.444748026783     0.004137174124    12.000000000000
         C            0.470402143473     0.198700873217    -0.006617725876    12.000000000000
         H            2.325652843473    -0.224595026783     0.966470174124     1.007825032230
         H            1.824755843473    -1.523027026783    -0.149372825876     1.007825032230
         H            2.449573843473     0.031192973217    -0.779516825876     1.007825032230
         H           -1.564835156527     0.708623973217     0.006865174124     1.007825032230

  Basis Set: AUG-CC-PVTZ
    Blend: AUG-CC-PVTZ
  Basis Set: (AUG-CC-PVTZ AUX)
    Blend: AUG-CC-PVTZ-JKFIT
	 Reference Energy          =    -302.6789384359933592 [Eh]
	 Singles Energy            =      -0.0000000000000000 [Eh]
	 Same-Spin Energy          =      -0.2829831641554812 [Eh]
	 Opposite-Spin Energy      =      -0.8650932730210097 [Eh]
	 Correlation Energy        =      -1.1480764371764909 [Eh]
	 Total Energy              =    -303.8270148731698441 [Eh]

	 ================> DF-SCS-MP2 Energies <==================
	-----------------------------------------------------------
	 SCS Same-Spin Scale       =       0.3333333333333333 [-]
	 SCS Opposite-Spin Scale   =       1.2000000000000000 [-]
	 SCS Same-Spin Energy      =      -0.0943277213851604 [Eh]
	 SCS Opposite-Spin Energy  =      -1.0381119276252115 [Eh]
	 SCS Correlation Energy    =      -1.1324396490103719 [Eh]
	 SCS Total Energy          =    -303.8113780850037529 [Eh]
	-----------------------------------------------------------

  Dipole Moment: [D]
     X:     2.4378      Y:    -0.1483      Z:     0.0135     Total:     2.4423

*** Psi4 exiting successfully. Buy a developer a beer!
