                               Psi4 1.3.2 release

  ==> Input File <==

--------------------------------------------------------------------------
#psi4
#
memory 32 gb

molecule  {
0 1
  O       -0.5665010    -0.9044620    -0.0077295
  O        0.1289150     1.3564030    -0.0013430
  O       -1.8621010    -0.2365450     0.0068560
  C        1.7937210    -0.4249780     0.0036230
  C        0.4181520     0.1698940    -0.0073790
  H        2.2615610    -0.2048250     0.9659560
  H        1.7606640    -1.5032570    -0.1498870
  H        2.3854820     0.0509630    -0.7800310
  H       -1.6289270     0.7283940     0.0063510
units angstrom
no_reorient  #important for SAPT in psi4, default
symmetry c1  #important for SAPT in psi4, default
}

set PROPERTIES_ORIGIN ["COM"]
properties('MP2/aug-cc-pvtz', properties = ['dipole'])
--------------------------------------------------------------------------

    Molecular point group: c1
  Charge       = 0
  Multiplicity = 1
  Basis Set: AUG-CC-PVTZ
    Blend: AUG-CC-PVTZ
  Basis Set: (AUG-CC-PVTZ AUX)
    Blend: AUG-CC-PVTZ-JKFIT

    Orbital Energies [Eh]
    ---------------------

    Doubly Occupied:

       1A    -20.673263     2A    -20.635926     3A    -20.596039
       4A    -11.427979     5A    -11.270101     6A     -1.506823
       7A     -1.415738     8A     -1.237983     9A     -1.039899
      10A     -0.820878    11A     -0.744106    12A     -0.687935
      13A     -0.681171    14A     -0.615479    15A     -0.612756
      16A     -0.601283    17A     -0.562140    18A     -0.539522
      19A     -0.492410    20A     -0.471772

  @DF-RHF Final Energy:  -302.66645996271012

   => Energetics <=

    Nuclear Repulsion Energy =            178.0911240541254017
    One-Electron Energy =                -768.2487569982115474
    Two-Electron Energy =                 287.4911729813759962
    Total Energy =                       -302.6664599627101211
  Basis Set: (AUG-CC-PVTZ AUX)
    Blend: AUG-CC-PVTZ-RI
    Molecular point group: c1

    Geometry (in Angstrom), charge = 0, multiplicity = 1:

       Center              X                  Y                   Z               Mass
    ------------   -----------------  -----------------  -----------------  -----------------
         O           -0.495139129207    -0.897203536593    -0.007232183500    15.994914619570
         O            0.200276870793     1.363661463407    -0.000845683500    15.994914619570
         O           -1.790739129207    -0.229286536593     0.007353316500    15.994914619570
         C            1.865082870793    -0.417719536593     0.004120316500    12.000000000000
         C            0.489513870793     0.177152463407    -0.006881683500    12.000000000000
         H            2.332922870793    -0.197566536593     0.966453316500     1.007825032230
         H            1.832025870793    -1.495998536593    -0.149389683500     1.007825032230
         H            2.456843870793     0.058221463407    -0.779533683500     1.007825032230
         H           -1.557565129207     0.735652463407     0.006848316500     1.007825032230

  Basis Set: AUG-CC-PVTZ
    Blend: AUG-CC-PVTZ
  Basis Set: (AUG-CC-PVTZ AUX)
    Blend: AUG-CC-PVTZ-JKFIT
	 Reference Energy          =    -302.6664599627101211 [Eh]
	 Singles Energy            =      -0.0000000000000000 [Eh]
	 Same-Spin Energy          =      -0.2851062859413411 [Eh]
	 Opposite-Spin Energy      =      -0.8706747616653565 [Eh]
	 Correlation Energy        =      -1.1557810476066976 [Eh]
	 Total Energy              =    -303.8222410103168158 [Eh]

	 ================> DF-SCS-MP2 Energies <==================
	-----------------------------------------------------------
	 SCS Same-Spin Scale       =       0.3333333333333333 [-]
	 SCS Opposite-Spin Scale   =       1.2000000000000000 [-]
	 SCS Same-Spin Energy      =      -0.0950354286471137 [Eh]
	 SCS Opposite-Spin Energy  =      -1.0448097139984278 [Eh]
	 SCS Correlation Energy    =      -1.1398451426455416 [Eh]
	 SCS Total Energy          =    -303.8063051053556478 [Eh]
	-----------------------------------------------------------

  Dipole Moment: [D]
     X:     2.7511      Y:    -0.1417      Z:     0.0165     Total:     2.7548

*** Psi4 exiting successfully. Buy a developer a beer!
