                               Psi4 1.3.2 release

  ==> Input File <==

--------------------------------------------------------------------------
#psi4
#
memory 32 gb

molecule  {
0 1
  O       -0.5230660    -0.8124530    -0.0079950
  O        0.1289150     1.3564030    -0.0013430
  O       -1.9539601    -0.1970372     0.0078748
  C        1.7937210    -0.4249780     0.0036230
  C        0.4181520     0.1698940    -0.0073790
  H        2.2615610    -0.2048250     0.9659560
  H        1.7606640    -1.5032570    -0.1498870
  H        2.3854820     0.0509630    -0.7800310
  H       -1.6289270     0.7283940     0.0063510
units angstrom
no_reorient  #important for SAPT in psi4, default
symmetry c1  #important for SAPT in psi4, default
}

set PROPERTIES_ORIGIN ["COM"]
properties('MP2/aug-cc-pvtz', properties = ['dipole'])
--------------------------------------------------------------------------

    Molecular point group: c1
  Charge       = 0
  Multiplicity = 1
  Basis Set: AUG-CC-PVTZ
    Blend: AUG-CC-PVTZ
  Basis Set: (AUG-CC-PVTZ AUX)
    Blend: AUG-CC-PVTZ-JKFIT

    Orbital Energies [Eh]
    ---------------------

    Doubly Occupied:

       1A    -20.675090     2A    -20.663536     3A    -20.577755
       4A    -11.416226     5A    -11.266835     6A     -1.505541
       7A     -1.399298     8A     -1.282892     9A     -1.036629
      10A     -0.817414    11A     -0.738206    12A     -0.689565
      13A     -0.685863    14A     -0.632219    15A     -0.607016
      16A     -0.596248    17A     -0.557583    18A     -0.540563
      19A     -0.489260    20A     -0.486177

  @DF-RHF Final Energy:  -302.66724987467080

   => Energetics <=

    Nuclear Repulsion Energy =            178.0481983803425976
    One-Electron Energy =                -768.1030673601086391
    Two-Electron Energy =                 287.3876191050952684
    Total Energy =                       -302.6672498746708015
  Basis Set: (AUG-CC-PVTZ AUX)
    Blend: AUG-CC-PVTZ-RI
    Molecular point group: c1

    Geometry (in Angstrom), charge = 0, multiplicity = 1:

       Center              X                  Y                   Z               Mass
    ------------   -----------------  -----------------  -----------------  -----------------
         O           -0.441514973019    -0.832867641857    -0.007656189107    15.994914619570
         O            0.210466026981     1.335988358143    -0.001004189107    15.994914619570
         O           -1.872409073019    -0.217451841857     0.008213610893    15.994914619570
         C            1.875272026981    -0.445392641857     0.003961810893    12.000000000000
         C            0.499703026981     0.149479358143    -0.007040189107    12.000000000000
         H            2.343112026981    -0.225239641857     0.966294810893     1.007825032230
         H            1.842215026981    -1.523671641857    -0.149548189107     1.007825032230
         H            2.467033026981     0.030548358143    -0.779692189107     1.007825032230
         H           -1.547375973019     0.707979358143     0.006689810893     1.007825032230

  Basis Set: AUG-CC-PVTZ
    Blend: AUG-CC-PVTZ
  Basis Set: (AUG-CC-PVTZ AUX)
    Blend: AUG-CC-PVTZ-JKFIT
	 Reference Energy          =    -302.6672498746708015 [Eh]
	 Singles Energy            =      -0.0000000000000000 [Eh]
	 Same-Spin Energy          =      -0.2847029548637796 [Eh]
	 Opposite-Spin Energy      =      -0.8723105399953612 [Eh]
	 Correlation Energy        =      -1.1570134948591408 [Eh]
	 Total Energy              =    -303.8242633695299446 [Eh]

	 ================> DF-SCS-MP2 Energies <==================
	-----------------------------------------------------------
	 SCS Same-Spin Scale       =       0.3333333333333333 [-]
	 SCS Opposite-Spin Scale   =       1.2000000000000000 [-]
	 SCS Same-Spin Energy      =      -0.0949009849545932 [Eh]
	 SCS Opposite-Spin Energy  =      -1.0467726479944335 [Eh]
	 SCS Correlation Energy    =      -1.1416736329490267 [Eh]
	 SCS Total Energy          =    -303.8089235076198520 [Eh]
	-----------------------------------------------------------

  Dipole Moment: [D]
     X:     2.6191      Y:    -0.5290      Z:     0.0140     Total:     2.6720

*** Psi4 exiting successfully. Buy a developer a beer!
