                               Psi4 1.3.2 release

  ==> Input File <==

--------------------------------------------------------------------------
#psi4
#
memory 32 gb

molecule  {
0 1
  O       -0.5230660    -0.8124530    -0.0079950
  O        0.1289150     1.3564030    -0.0013430
  O       -1.8621010    -0.2365450     0.0068560
  C        1.7937210    -0.4249780     0.0036230
  C        0.4081305     0.1460709    -0.0114085
  H        2.2615610    -0.2048250     0.9659560
  H        1.7606640    -1.5032570    -0.1498870
  H        2.3854820     0.0509630    -0.7800310
  H       -1.6289270     0.7283940     0.0063510
units angstrom
no_reorient  #important for SAPT in psi4, default
symmetry c1  #important for SAPT in psi4, default
}

set PROPERTIES_ORIGIN ["COM"]
properties('MP2/aug-cc-pvtz', properties = ['dipole'])
--------------------------------------------------------------------------

    Molecular point group: c1
  Charge       = 0
  Multiplicity = 1
  Basis Set: AUG-CC-PVTZ
    Blend: AUG-CC-PVTZ
  Basis Set: (AUG-CC-PVTZ AUX)
    Blend: AUG-CC-PVTZ-JKFIT

    Orbital Energies [Eh]
    ---------------------

    Doubly Occupied:

       1A    -20.682578     2A    -20.654708     3A    -20.572750
       4A    -11.415920     5A    -11.265676     6A     -1.539563
       7A     -1.391522     8A     -1.275516     9A     -1.034952
      10A     -0.840068    11A     -0.735165    12A     -0.701022
      13A     -0.698836    14A     -0.619102    15A     -0.610627
      16A     -0.594306    17A     -0.574256    18A     -0.532207
      19A     -0.484010    20A     -0.478485

  @DF-RHF Final Energy:  -302.67842280923230

   => Energetics <=

    Nuclear Repulsion Energy =            180.4169594842914250
    One-Electron Energy =                -772.7882265633429597
    Two-Electron Energy =                 289.6928442698192612
    Total Energy =                       -302.6784228092323019
  Basis Set: (AUG-CC-PVTZ AUX)
    Blend: AUG-CC-PVTZ-RI
    Molecular point group: c1

    Geometry (in Angstrom), charge = 0, multiplicity = 1:

       Center              X                  Y                   Z               Mass
    ------------   -----------------  -----------------  -----------------  -----------------
         O           -0.459261495868    -0.820793860591    -0.006805715764    15.994914619570
         O            0.192719504132     1.348062139409    -0.000153715764    15.994914619570
         O           -1.798296495868    -0.244885860591     0.008045284236    15.994914619570
         C            1.857525504132    -0.433318860591     0.004812284236    12.000000000000
         C            0.471935004132     0.137730039409    -0.010219215764    12.000000000000
         H            2.325365504132    -0.213165860591     0.967145284236     1.007825032230
         H            1.824468504132    -1.511597860591    -0.148697715764     1.007825032230
         H            2.449286504132     0.042622139409    -0.778841715764     1.007825032230
         H           -1.565122495868     0.720053139409     0.007540284236     1.007825032230

  Basis Set: AUG-CC-PVTZ
    Blend: AUG-CC-PVTZ
  Basis Set: (AUG-CC-PVTZ AUX)
    Blend: AUG-CC-PVTZ-JKFIT
	 Reference Energy          =    -302.6784228092323019 [Eh]
	 Singles Energy            =      -0.0000000000000000 [Eh]
	 Same-Spin Energy          =      -0.2840041097361476 [Eh]
	 Opposite-Spin Energy      =      -0.8666095228260922 [Eh]
	 Correlation Energy        =      -1.1506136325622398 [Eh]
	 Total Energy              =    -303.8290364417945284 [Eh]

	 ================> DF-SCS-MP2 Energies <==================
	-----------------------------------------------------------
	 SCS Same-Spin Scale       =       0.3333333333333333 [-]
	 SCS Opposite-Spin Scale   =       1.2000000000000000 [-]
	 SCS Same-Spin Energy      =      -0.0946680365787159 [Eh]
	 SCS Opposite-Spin Energy  =      -1.0399314273913105 [Eh]
	 SCS Correlation Energy    =      -1.1345994639700263 [Eh]
	 SCS Total Energy          =    -303.8130222732023071 [Eh]
	-----------------------------------------------------------

  Dipole Moment: [D]
     X:     2.2937      Y:    -0.6726      Z:     0.0106     Total:     2.3904

*** Psi4 exiting successfully. Buy a developer a beer!
