                               Psi4 1.4a3.dev225

  ==> Input File <==

--------------------------------------------------------------------------
#psi4
#
memory 32 gb

molecule  {
0 1
  O       -0.5230660    -0.8124530    -0.0079950
  O        0.1289150     1.3564030    -0.0013430
  O       -1.8804728    -0.2286434     0.0070598
  C        1.7937210    -0.4249780     0.0036230
  C        0.4181520     0.1698940    -0.0073790
  H        2.2615610    -0.2048250     0.9659560
  H        1.7606640    -1.5032570    -0.1498870
  H        2.3854820     0.0509630    -0.7800310
  H       -1.6289270     0.7283940     0.0063510
units angstrom
no_reorient  #important for SAPT in psi4, default
symmetry c1  #important for SAPT in psi4, default
}

set PROPERTIES_ORIGIN ["COM"]
properties('MP2/aug-cc-pvtz', properties = ['dipole'])
--------------------------------------------------------------------------

    Molecular point group: c1
  Charge       = 0
  Multiplicity = 1
  Basis Set: AUG-CC-PVTZ
    Blend: AUG-CC-PVTZ
  Basis Set: (AUG-CC-PVTZ AUX)
    Blend: AUG-CC-PVTZ-JKFIT

    Orbital Energies [Eh]
    ---------------------

    Doubly Occupied:

       1A    -20.676334     2A    -20.652573     3A    -20.578166
       4A    -11.415658     5A    -11.266222     6A     -1.525503
       7A     -1.404602     8A     -1.269871     9A     -1.035752
      10A     -0.830233    11A     -0.738861    12A     -0.695281
      13A     -0.693888    14A     -0.621050    15A     -0.610147
      16A     -0.596053    17A     -0.569661    18A     -0.536863
      19A     -0.487276    20A     -0.480459

  @DF-RHF Final Energy:  -302.67821395408532

   => Energetics <=

    Nuclear Repulsion Energy =            179.8844881038610879
    One-Electron Energy =                -771.7564985024675934
    Two-Electron Energy =                 289.1937964445212401
    Total Energy =                       -302.6782139540853223
  Basis Set: (AUG-CC-PVTZ AUX)
    Blend: AUG-CC-PVTZ-RI
    Molecular point group: c1

    Geometry (in Angstrom), charge = 0, multiplicity = 1:

       Center              X                  Y                   Z               Mass
    ------------   -----------------  -----------------  -----------------  -----------------
         O           -0.456977802015    -0.826217223814    -0.007484700895    15.994914619570
         O            0.195003197985     1.342638776186    -0.000832700895    15.994914619570
         O           -1.814384602015    -0.242407623814     0.007570099105    15.994914619570
         C            1.859809197985    -0.438742223814     0.004133299105    12.000000000000
         C            0.484240197985     0.156129776186    -0.006868700895    12.000000000000
         H            2.327649197985    -0.218589223814     0.966466299105     1.007825032230
         H            1.826752197985    -1.517021223814    -0.149376700895     1.007825032230
         H            2.451570197985     0.037198776186    -0.779520700895     1.007825032230
         H           -1.562838802015     0.714629776186     0.006861299105     1.007825032230

  Basis Set: AUG-CC-PVTZ
    Blend: AUG-CC-PVTZ
  Basis Set: (AUG-CC-PVTZ AUX)
    Blend: AUG-CC-PVTZ-JKFIT
	 Reference Energy          =    -302.6782139540853223 [Eh]
	 Singles Energy            =      -0.0000000000000000 [Eh]
	 Same-Spin Energy          =      -0.2839799418648676 [Eh]
	 Opposite-Spin Energy      =      -0.8675209285727197 [Eh]
	 Correlation Energy        =      -1.1515008704375873 [Eh]
	 Total Energy              =    -303.8297148245229096 [Eh]

	 ================> DF-SCS-MP2 Energies <==================
	-----------------------------------------------------------
	 SCS Same-Spin Scale       =       0.3333333333333333 [-]
	 SCS Opposite-Spin Scale   =       1.2000000000000000 [-]
	 SCS Same-Spin Energy      =      -0.0946599806216225 [Eh]
	 SCS Opposite-Spin Energy  =      -1.0410251142872635 [Eh]
	 SCS Correlation Energy    =      -1.1356850949088861 [Eh]
	 SCS Total Energy          =    -303.8138990489941875 [Eh]
	-----------------------------------------------------------

  Dipole Moment: [D]
     X:     2.4456      Y:    -0.5036      Z:     0.0148     Total:     2.4970

*** Psi4 exiting successfully. Buy a developer a beer!
