                               Psi4 1.3.2 release

  ==> Input File <==

--------------------------------------------------------------------------
#psi4
#
memory 32 gb

molecule  {
0 1
  O       -0.5230660    -0.8124530    -0.0079950
  O        0.1289150     1.3564030    -0.0013430
  O       -1.8518446    -0.2132628     0.0069629
  C        1.7937210    -0.4249780     0.0036230
  C        0.4181520     0.1698940    -0.0073790
  H        2.2615610    -0.2048250     0.9659560
  H        1.7606640    -1.5032570    -0.1498870
  H        2.3854820     0.0509630    -0.7800310
  H       -1.6289270     0.7283940     0.0063510
units angstrom
no_reorient  #important for SAPT in psi4, default
symmetry c1  #important for SAPT in psi4, default
}

set PROPERTIES_ORIGIN ["COM"]
properties('MP2/aug-cc-pvtz', properties = ['dipole'])
--------------------------------------------------------------------------

    Molecular point group: c1
  Charge       = 0
  Multiplicity = 1
  Basis Set: AUG-CC-PVTZ
    Blend: AUG-CC-PVTZ
  Basis Set: (AUG-CC-PVTZ AUX)
    Blend: AUG-CC-PVTZ-JKFIT

    Orbital Energies [Eh]
    ---------------------

    Doubly Occupied:

       1A    -20.678332     2A    -20.647298     3A    -20.577752
       4A    -11.415229     5A    -11.265941     6A     -1.534062
       7A     -1.405732     8A     -1.270994     9A     -1.035776
      10A     -0.836894    11A     -0.739735    12A     -0.697648
      13A     -0.697108    14A     -0.620009    15A     -0.611058
      16A     -0.599317    17A     -0.571314    18A     -0.535664
      19A     -0.487324    20A     -0.478721

  @DF-RHF Final Energy:  -302.68109928878243

   => Energetics <=

    Nuclear Repulsion Energy =            180.6806381358549629
    One-Electron Energy =                -773.3116567703435749
    Two-Electron Energy =                 289.9499193457061210
    Total Energy =                       -302.6810992887824341
  Basis Set: (AUG-CC-PVTZ AUX)
    Blend: AUG-CC-PVTZ-RI
    Molecular point group: c1

    Geometry (in Angstrom), charge = 0, multiplicity = 1:

       Center              X                  Y                   Z               Mass
    ------------   -----------------  -----------------  -----------------  -----------------
         O           -0.463001604237    -0.829453532505    -0.007464311683    15.994914619570
         O            0.188979395763     1.339402467495    -0.000812311683    15.994914619570
         O           -1.791780204237    -0.230263332505     0.007493588317    15.994914619570
         C            1.853785395763    -0.441978532505     0.004153688317    12.000000000000
         C            0.478216395763     0.152893467495    -0.006848311683    12.000000000000
         H            2.321625395763    -0.221825532505     0.966486688317     1.007825032230
         H            1.820728395763    -1.520257532505    -0.149356311683     1.007825032230
         H            2.445546395763     0.033962467495    -0.779500311683     1.007825032230
         H           -1.568862604237     0.711393467495     0.006881688317     1.007825032230

  Basis Set: AUG-CC-PVTZ
    Blend: AUG-CC-PVTZ
  Basis Set: (AUG-CC-PVTZ AUX)
    Blend: AUG-CC-PVTZ-JKFIT
	 Reference Energy          =    -302.6810992887824341 [Eh]
	 Singles Energy            =      -0.0000000000000000 [Eh]
	 Same-Spin Energy          =      -0.2834441390271149 [Eh]
	 Opposite-Spin Energy      =      -0.8655989478878394 [Eh]
	 Correlation Energy        =      -1.1490430869149544 [Eh]
	 Total Energy              =    -303.8301423756973918 [Eh]

	 ================> DF-SCS-MP2 Energies <==================
	-----------------------------------------------------------
	 SCS Same-Spin Scale       =       0.3333333333333333 [-]
	 SCS Opposite-Spin Scale   =       1.2000000000000000 [-]
	 SCS Same-Spin Energy      =      -0.0944813796757050 [Eh]
	 SCS Opposite-Spin Energy  =      -1.0387187374654072 [Eh]
	 SCS Correlation Energy    =      -1.1332001171411121 [Eh]
	 SCS Total Energy          =    -303.8142994059235207 [Eh]
	-----------------------------------------------------------

  Dipole Moment: [D]
     X:     2.3983      Y:    -0.5229      Z:     0.0146     Total:     2.4547

*** Psi4 exiting successfully. Buy a developer a beer!
