                               Psi4 1.3.2 release

  ==> Input File <==

--------------------------------------------------------------------------
#psi4
#
memory 32 gb

molecule  {
0 1
  O       -0.6205898    -0.7086901    -0.0090814
  O        0.1289150     1.3564030    -0.0013430
  O       -1.8621010    -0.2365450     0.0068560
  C        1.7937210    -0.4249780     0.0036230
  C        0.4181520     0.1698940    -0.0073790
  H        2.2615610    -0.2048250     0.9659560
  H        1.7606640    -1.5032570    -0.1498870
  H        2.3854820     0.0509630    -0.7800310
  H       -1.6289270     0.7283940     0.0063510
units angstrom
no_reorient  #important for SAPT in psi4, default
symmetry c1  #important for SAPT in psi4, default
}

set PROPERTIES_ORIGIN ["COM"]
properties('MP2/aug-cc-pvtz', properties = ['dipole'])
--------------------------------------------------------------------------

    Molecular point group: c1
  Charge       = 0
  Multiplicity = 1
  Basis Set: AUG-CC-PVTZ
    Blend: AUG-CC-PVTZ
  Basis Set: (AUG-CC-PVTZ AUX)
    Blend: AUG-CC-PVTZ-JKFIT

    Orbital Energies [Eh]
    ---------------------

    Doubly Occupied:

       1A    -20.662459     2A    -20.641474     3A    -20.571335
       4A    -11.414085     5A    -11.272127     6A     -1.583347
       7A     -1.411807     8A     -1.241367     9A     -1.038562
      10A     -0.857987    11A     -0.742681    12A     -0.713919
      13A     -0.707274    14A     -0.624902    15A     -0.620741
      16A     -0.595562    17A     -0.565771    18A     -0.535452
      19A     -0.485956    20A     -0.448893

  @DF-RHF Final Energy:  -302.67587861443138

   => Energetics <=

    Nuclear Repulsion Energy =            182.7536004339943361
    One-Electron Energy =                -777.3875634379670601
    Two-Electron Energy =                 291.9580843895412841
    Total Energy =                       -302.6758786144313831
  Basis Set: (AUG-CC-PVTZ AUX)
    Blend: AUG-CC-PVTZ-RI
    Molecular point group: c1

    Geometry (in Angstrom), charge = 0, multiplicity = 1:

       Center              X                  Y                   Z               Mass
    ------------   -----------------  -----------------  -----------------  -----------------
         O           -0.537846835263    -0.742624977645    -0.008299623484    15.994914619570
         O            0.211657964737     1.322468122355    -0.000561223484    15.994914619570
         O           -1.779358035263    -0.270479877645     0.007637776516    15.994914619570
         C            1.876463964737    -0.458912877645     0.004404776516    12.000000000000
         C            0.500894964737     0.135959122355    -0.006597223484    12.000000000000
         H            2.344303964737    -0.238759877645     0.966737776516     1.007825032230
         H            1.843406964737    -1.537191877645    -0.149105223484     1.007825032230
         H            2.468224964737     0.017028122355    -0.779249223484     1.007825032230
         H           -1.546184035263     0.694459122355     0.007132776516     1.007825032230

  Basis Set: AUG-CC-PVTZ
    Blend: AUG-CC-PVTZ
  Basis Set: (AUG-CC-PVTZ AUX)
    Blend: AUG-CC-PVTZ-JKFIT
	 Reference Energy          =    -302.6758786144313831 [Eh]
	 Singles Energy            =      -0.0000000000000000 [Eh]
	 Same-Spin Energy          =      -0.2826877574955343 [Eh]
	 Opposite-Spin Energy      =      -0.8590775732411294 [Eh]
	 Correlation Energy        =      -1.1417653307366638 [Eh]
	 Total Energy              =    -303.8176439451680722 [Eh]

	 ================> DF-SCS-MP2 Energies <==================
	-----------------------------------------------------------
	 SCS Same-Spin Scale       =       0.3333333333333333 [-]
	 SCS Opposite-Spin Scale   =       1.2000000000000000 [-]
	 SCS Same-Spin Energy      =      -0.0942292524985114 [Eh]
	 SCS Opposite-Spin Energy  =      -1.0308930878893552 [Eh]
	 SCS Correlation Energy    =      -1.1251223403878665 [Eh]
	 SCS Total Energy          =    -303.8010009548192443 [Eh]
	-----------------------------------------------------------

  Dipole Moment: [D]
     X:     2.4097      Y:    -0.6836      Z:     0.0159     Total:     2.5049

*** Psi4 exiting successfully. Buy a developer a beer!
