                               Psi4 1.3.2 release

  ==> Input File <==

--------------------------------------------------------------------------
#psi4
#
memory 32 gb

molecule  {
0 1
  O       -0.4152280    -0.9054539    -0.0087842
  O        0.1289150     1.3564030    -0.0013430
  O       -1.8621010    -0.2365450     0.0068560
  C        1.7937210    -0.4249780     0.0036230
  C        0.4181520     0.1698940    -0.0073790
  H        2.2615610    -0.2048250     0.9659560
  H        1.7606640    -1.5032570    -0.1498870
  H        2.3854820     0.0509630    -0.7800310
  H       -1.6289270     0.7283940     0.0063510
units angstrom
no_reorient  #important for SAPT in psi4, default
symmetry c1  #important for SAPT in psi4, default
}

set PROPERTIES_ORIGIN ["COM"]
properties('MP2/aug-cc-pvtz', properties = ['dipole'])
--------------------------------------------------------------------------

    Molecular point group: c1
  Charge       = 0
  Multiplicity = 1
  Basis Set: AUG-CC-PVTZ
    Blend: AUG-CC-PVTZ
  Basis Set: (AUG-CC-PVTZ AUX)
    Blend: AUG-CC-PVTZ-JKFIT

    Orbital Energies [Eh]
    ---------------------

    Doubly Occupied:

       1A    -20.688176     2A    -20.659010     3A    -20.583797
       4A    -11.417899     5A    -11.260209     6A     -1.500931
       7A     -1.399857     8A     -1.288520     9A     -1.031670
      10A     -0.817833    11A     -0.736267    12A     -0.689567
      13A     -0.687396    14A     -0.629536    15A     -0.605986
      16A     -0.601123    17A     -0.541135    18A     -0.538003
      19A     -0.499425    20A     -0.485429

  @DF-RHF Final Energy:  -302.65388771918208

   => Energetics <=

    Nuclear Repulsion Energy =            178.4194351663648206
    One-Electron Energy =                -768.8231068104386168
    Two-Electron Energy =                 287.7497839248917444
    Total Energy =                       -302.6538877191820802
  Basis Set: (AUG-CC-PVTZ AUX)
    Blend: AUG-CC-PVTZ-RI
    Molecular point group: c1

    Geometry (in Angstrom), charge = 0, multiplicity = 1:

       Center              X                  Y                   Z               Mass
    ------------   -----------------  -----------------  -----------------  -----------------
         O           -0.375696234963    -0.897986725971    -0.008064958817    15.994914619570
         O            0.168446765037     1.363870174029    -0.000623758817    15.994914619570
         O           -1.822569234963    -0.229077825971     0.007575241183    15.994914619570
         C            1.833252765037    -0.417510825971     0.004342241183    12.000000000000
         C            0.457683765037     0.177361174029    -0.006659758817    12.000000000000
         H            2.301092765037    -0.197357825971     0.966675241183     1.007825032230
         H            1.800195765037    -1.495789825971    -0.149167758817     1.007825032230
         H            2.425013765037     0.058430174029    -0.779311758817     1.007825032230
         H           -1.589395234963     0.735861174029     0.007070241183     1.007825032230

  Basis Set: AUG-CC-PVTZ
    Blend: AUG-CC-PVTZ
  Basis Set: (AUG-CC-PVTZ AUX)
    Blend: AUG-CC-PVTZ-JKFIT
	 Reference Energy          =    -302.6538877191820802 [Eh]
	 Singles Energy            =      -0.0000000000000000 [Eh]
	 Same-Spin Energy          =      -0.2863200396017329 [Eh]
	 Opposite-Spin Energy      =      -0.8771745595341317 [Eh]
	 Correlation Energy        =      -1.1634945991358645 [Eh]
	 Total Energy              =    -303.8173823183179252 [Eh]

	 ================> DF-SCS-MP2 Energies <==================
	-----------------------------------------------------------
	 SCS Same-Spin Scale       =       0.3333333333333333 [-]
	 SCS Opposite-Spin Scale   =       1.2000000000000000 [-]
	 SCS Same-Spin Energy      =      -0.0954400132005776 [Eh]
	 SCS Opposite-Spin Energy  =      -1.0526094714409580 [Eh]
	 SCS Correlation Energy    =      -1.1480494846415357 [Eh]
	 SCS Total Energy          =    -303.8019372038236270 [Eh]
	-----------------------------------------------------------

  Dipole Moment: [D]
     X:     2.4075      Y:    -0.3888      Z:     0.0143     Total:     2.4387

*** Psi4 exiting successfully. Buy a developer a beer!
