                               Psi4 1.3.2 release

  ==> Input File <==

--------------------------------------------------------------------------
#psi4
#
memory 32 gb

molecule  {
0 1
  O       -0.5230660    -0.8124530    -0.0079950
  O        0.1289150     1.3564030    -0.0013430
  O       -1.8813871    -0.2836286     0.0066286
  C        1.7937210    -0.4249780     0.0036230
  C        0.4181520     0.1698940    -0.0073790
  H        2.2615610    -0.2048250     0.9659560
  H        1.7606640    -1.5032570    -0.1498870
  H        2.3854820     0.0509630    -0.7800310
  H       -1.6289270     0.7283940     0.0063510
units angstrom
no_reorient  #important for SAPT in psi4, default
symmetry c1  #important for SAPT in psi4, default
}

set PROPERTIES_ORIGIN ["COM"]
properties('MP2/aug-cc-pvtz', properties = ['dipole'])
--------------------------------------------------------------------------

    Molecular point group: c1
  Charge       = 0
  Multiplicity = 1
  Basis Set: AUG-CC-PVTZ
    Blend: AUG-CC-PVTZ
  Basis Set: (AUG-CC-PVTZ AUX)
    Blend: AUG-CC-PVTZ-JKFIT

    Orbital Energies [Eh]
    ---------------------

    Doubly Occupied:

       1A    -20.673078     2A    -20.654343     3A    -20.579389
       4A    -11.415927     5A    -11.266212     6A     -1.527014
       7A     -1.406197     8A     -1.257932     9A     -1.034886
      10A     -0.828121    11A     -0.737546    12A     -0.696202
      13A     -0.694661    14A     -0.616654    15A     -0.610705
      16A     -0.588041    17A     -0.571878    18A     -0.537241
      19A     -0.488035    20A     -0.475607

  @DF-RHF Final Energy:  -302.67448872438280

   => Energetics <=

    Nuclear Repulsion Energy =            179.7561223441628897
    One-Electron Energy =                -771.5418841616524332
    Two-Electron Energy =                 289.1112730931067176
    Total Energy =                       -302.6744887243827975
  Basis Set: (AUG-CC-PVTZ AUX)
    Blend: AUG-CC-PVTZ-RI
    Molecular point group: c1

    Geometry (in Angstrom), charge = 0, multiplicity = 1:

       Center              X                  Y                   Z               Mass
    ------------   -----------------  -----------------  -----------------  -----------------
         O           -0.456785419595    -0.814647513879    -0.007393969954    15.994914619570
         O            0.195195580405     1.354208486121    -0.000741969954    15.994914619570
         O           -1.815106519595    -0.285823113879     0.007229630046    15.994914619570
         C            1.860001580405    -0.427172513879     0.004224030046    12.000000000000
         C            0.484432580405     0.167699486121    -0.006777969954    12.000000000000
         H            2.327841580405    -0.207019513879     0.966557030046     1.007825032230
         H            1.826944580405    -1.505451513879    -0.149285969954     1.007825032230
         H            2.451762580405     0.048768486121    -0.779429969954     1.007825032230
         H           -1.562646419595     0.726199486121     0.006952030046     1.007825032230

  Basis Set: AUG-CC-PVTZ
    Blend: AUG-CC-PVTZ
  Basis Set: (AUG-CC-PVTZ AUX)
    Blend: AUG-CC-PVTZ-JKFIT
	 Reference Energy          =    -302.6744887243827975 [Eh]
	 Singles Energy            =      -0.0000000000000000 [Eh]
	 Same-Spin Energy          =      -0.2846514383183875 [Eh]
	 Opposite-Spin Energy      =      -0.8681490172670910 [Eh]
	 Correlation Energy        =      -1.1528004555854785 [Eh]
	 Total Energy              =    -303.8272891799682611 [Eh]

	 ================> DF-SCS-MP2 Energies <==================
	-----------------------------------------------------------
	 SCS Same-Spin Scale       =       0.3333333333333333 [-]
	 SCS Opposite-Spin Scale   =       1.2000000000000000 [-]
	 SCS Same-Spin Energy      =      -0.0948838127727958 [Eh]
	 SCS Opposite-Spin Energy  =      -1.0417788207205092 [Eh]
	 SCS Correlation Energy    =      -1.1366626334933050 [Eh]
	 SCS Total Energy          =    -303.8111513578760992 [Eh]
	-----------------------------------------------------------

  Dipole Moment: [D]
     X:     2.4294      Y:    -0.4526      Z:     0.0155     Total:     2.4712

*** Psi4 exiting successfully. Buy a developer a beer!
