                               Psi4 1.3.2 release

  ==> Input File <==

--------------------------------------------------------------------------
#psi4
#
memory 32 gb

molecule  {
0 1
  O       -0.5230660    -0.8124530    -0.0079950
  O        0.1289150     1.3564030    -0.0013430
  O       -1.8621010    -0.2365450     0.0068560
  C        1.7937210    -0.4249780     0.0036230
  C        0.5099345     0.1302022    -0.0066449
  H        2.2615610    -0.2048250     0.9659560
  H        1.7606640    -1.5032570    -0.1498870
  H        2.3854820     0.0509630    -0.7800310
  H       -1.6289270     0.7283940     0.0063510
units angstrom
no_reorient  #important for SAPT in psi4, default
symmetry c1  #important for SAPT in psi4, default
}

set PROPERTIES_ORIGIN ["COM"]
properties('MP2/aug-cc-pvtz', properties = ['dipole'])
--------------------------------------------------------------------------

    Molecular point group: c1
  Charge       = 0
  Multiplicity = 1
  Basis Set: AUG-CC-PVTZ
    Blend: AUG-CC-PVTZ
  Basis Set: (AUG-CC-PVTZ AUX)
    Blend: AUG-CC-PVTZ-JKFIT

    Orbital Energies [Eh]
    ---------------------

    Doubly Occupied:

       1A    -20.668251     2A    -20.646939     3A    -20.571468
       4A    -11.424160     5A    -11.270828     6A     -1.511898
       7A     -1.368774     8A     -1.253393     9A     -1.074582
      10A     -0.824185    11A     -0.739551    12A     -0.689069
      13A     -0.688146    14A     -0.625336    15A     -0.620717
      16A     -0.584398    17A     -0.572889    18A     -0.518176
      19A     -0.483953    20A     -0.465533

  @DF-RHF Final Energy:  -302.65669188321658

   => Energetics <=

    Nuclear Repulsion Energy =            179.4872162294065845
    One-Electron Energy =                -771.0833240334161474
    Two-Electron Energy =                 288.9394159207929533
    Total Energy =                       -302.6566918832165811
  Basis Set: (AUG-CC-PVTZ AUX)
    Blend: AUG-CC-PVTZ-RI
    Molecular point group: c1

    Geometry (in Angstrom), charge = 0, multiplicity = 1:

       Center              X                  Y                   Z               Mass
    ------------   -----------------  -----------------  -----------------  -----------------
         O           -0.475332419004    -0.818288805210    -0.007557704384    15.994914619570
         O            0.176648580996     1.350567194790    -0.000905704384    15.994914619570
         O           -1.814367419004    -0.242380805210     0.007293295616    15.994914619570
         C            1.841454580996    -0.430813805210     0.004060295616    12.000000000000
         C            0.557668080996     0.124366394790    -0.006207604384    12.000000000000
         H            2.309294580996    -0.210660805210     0.966393295616     1.007825032230
         H            1.808397580996    -1.509092805210    -0.149449704384     1.007825032230
         H            2.433215580996     0.045127194790    -0.779593704384     1.007825032230
         H           -1.581193419004     0.722558194790     0.006788295616     1.007825032230

  Basis Set: AUG-CC-PVTZ
    Blend: AUG-CC-PVTZ
  Basis Set: (AUG-CC-PVTZ AUX)
    Blend: AUG-CC-PVTZ-JKFIT
	 Reference Energy          =    -302.6566918832165811 [Eh]
	 Singles Energy            =      -0.0000000000000000 [Eh]
	 Same-Spin Energy          =      -0.2864957985984850 [Eh]
	 Opposite-Spin Energy      =      -0.8710593593713836 [Eh]
	 Correlation Energy        =      -1.1575551579698686 [Eh]
	 Total Energy              =    -303.8142470411864338 [Eh]

	 ================> DF-SCS-MP2 Energies <==================
	-----------------------------------------------------------
	 SCS Same-Spin Scale       =       0.3333333333333333 [-]
	 SCS Opposite-Spin Scale   =       1.2000000000000000 [-]
	 SCS Same-Spin Energy      =      -0.0954985995328283 [Eh]
	 SCS Opposite-Spin Energy  =      -1.0452712312456602 [Eh]
	 SCS Correlation Energy    =      -1.1407698307784886 [Eh]
	 SCS Total Energy          =    -303.7974617139950624 [Eh]
	-----------------------------------------------------------

  Dipole Moment: [D]
     X:     2.8953      Y:    -0.7224      Z:     0.0225     Total:     2.9842

*** Psi4 exiting successfully. Buy a developer a beer!
