                               Psi4 1.3.2 release

  ==> Input File <==

--------------------------------------------------------------------------
#psi4
#
memory 32 gb

molecule  {
0 1
  O       -0.4861547    -0.7176382    -0.0081881
  O        0.1289150     1.3564030    -0.0013430
  O       -1.8621010    -0.2365450     0.0068560
  C        1.7937210    -0.4249780     0.0036230
  C        0.4181520     0.1698940    -0.0073790
  H        2.2615610    -0.2048250     0.9659560
  H        1.7606640    -1.5032570    -0.1498870
  H        2.3854820     0.0509630    -0.7800310
  H       -1.6289270     0.7283940     0.0063510
units angstrom
no_reorient  #important for SAPT in psi4, default
symmetry c1  #important for SAPT in psi4, default
}

set PROPERTIES_ORIGIN ["COM"]
properties('MP2/aug-cc-pvtz', properties = ['dipole'])
--------------------------------------------------------------------------

    Molecular point group: c1
  Charge       = 0
  Multiplicity = 1
  Basis Set: AUG-CC-PVTZ
    Blend: AUG-CC-PVTZ
  Basis Set: (AUG-CC-PVTZ AUX)
    Blend: AUG-CC-PVTZ-JKFIT

    Orbital Energies [Eh]
    ---------------------

    Doubly Occupied:

       1A    -20.677601     2A    -20.665047     3A    -20.558308
       4A    -11.401396     5A    -11.262412     6A     -1.562820
       7A     -1.395198     8A     -1.295748     9A     -1.031892
      10A     -0.847627    11A     -0.735273    12A     -0.715405
      13A     -0.707302    14A     -0.629228    15A     -0.609092
      16A     -0.592651    17A     -0.566985    18A     -0.538821
      19A     -0.478718    20A     -0.477304

  @DF-RHF Final Energy:  -302.67788902921995

   => Energetics <=

    Nuclear Repulsion Energy =            182.7963986263513618
    One-Electron Energy =                -777.4509207734794245
    Two-Electron Energy =                 291.9766331179081362
    Total Energy =                       -302.6778890292199549
  Basis Set: (AUG-CC-PVTZ AUX)
    Blend: AUG-CC-PVTZ-RI
    Molecular point group: c1

    Geometry (in Angstrom), charge = 0, multiplicity = 1:

       Center              X                  Y                   Z               Mass
    ------------   -----------------  -----------------  -----------------  -----------------
         O           -0.431698894573    -0.749690263333    -0.007594287188    15.994914619570
         O            0.183370805427     1.324350936667    -0.000749187188    15.994914619570
         O           -1.807645194573    -0.268597063333     0.007449812812    15.994914619570
         C            1.848176805427    -0.457030063333     0.004216812812    12.000000000000
         C            0.472607805427     0.137841936667    -0.006785187188    12.000000000000
         H            2.316016805427    -0.236877063333     0.966549812812     1.007825032230
         H            1.815119805427    -1.535309063333    -0.149293187188     1.007825032230
         H            2.439937805427     0.018910936667    -0.779437187188     1.007825032230
         H           -1.574471194573     0.696341936667     0.006944812812     1.007825032230

  Basis Set: AUG-CC-PVTZ
    Blend: AUG-CC-PVTZ
  Basis Set: (AUG-CC-PVTZ AUX)
    Blend: AUG-CC-PVTZ-JKFIT
	 Reference Energy          =    -302.6778890292199549 [Eh]
	 Singles Energy            =      -0.0000000000000000 [Eh]
	 Same-Spin Energy          =      -0.2828388657569710 [Eh]
	 Opposite-Spin Energy      =      -0.8627714679861858 [Eh]
	 Correlation Energy        =      -1.1456103337431567 [Eh]
	 Total Energy              =    -303.8234993629631049 [Eh]

	 ================> DF-SCS-MP2 Energies <==================
	-----------------------------------------------------------
	 SCS Same-Spin Scale       =       0.3333333333333333 [-]
	 SCS Opposite-Spin Scale   =       1.2000000000000000 [-]
	 SCS Same-Spin Energy      =      -0.0942796219189903 [Eh]
	 SCS Opposite-Spin Energy  =      -1.0353257615834228 [Eh]
	 SCS Correlation Energy    =      -1.1296053835024131 [Eh]
	 SCS Total Energy          =    -303.8074944127223489 [Eh]
	-----------------------------------------------------------

  Dipole Moment: [D]
     X:     2.0945      Y:    -0.8687      Z:     0.0136     Total:     2.2675

*** Psi4 exiting successfully. Buy a developer a beer!
