                               Psi4 1.3.2 release

  ==> Input File <==

--------------------------------------------------------------------------
#psi4
#
memory 32 gb

molecule  {
0 1
  O       -0.5230660    -0.8124530    -0.0079950
  O        0.2545165     1.3801266     0.0002755
  O       -1.8621010    -0.2365450     0.0068560
  C        1.7937210    -0.4249780     0.0036230
  C        0.4181520     0.1698940    -0.0073790
  H        2.2615610    -0.2048250     0.9659560
  H        1.7606640    -1.5032570    -0.1498870
  H        2.3854820     0.0509630    -0.7800310
  H       -1.6289270     0.7283940     0.0063510
units angstrom
no_reorient  #important for SAPT in psi4, default
symmetry c1  #important for SAPT in psi4, default
}

set PROPERTIES_ORIGIN ["COM"]
properties('MP2/aug-cc-pvtz', properties = ['dipole'])
--------------------------------------------------------------------------

    Molecular point group: c1
  Charge       = 0
  Multiplicity = 1
  Basis Set: AUG-CC-PVTZ
    Blend: AUG-CC-PVTZ
  Basis Set: (AUG-CC-PVTZ AUX)
    Blend: AUG-CC-PVTZ-JKFIT

    Orbital Energies [Eh]
    ---------------------

    Doubly Occupied:

       1A    -20.685200     2A    -20.658026     3A    -20.579138
       4A    -11.415150     5A    -11.258875     6A     -1.534474
       7A     -1.409942     8A     -1.272450     9A     -1.029358
      10A     -0.839297    11A     -0.734647    12A     -0.699719
      13A     -0.697011    14A     -0.621985    15A     -0.610654
      16A     -0.600926    17A     -0.570971    18A     -0.535988
      19A     -0.482914    20A     -0.481975

  @DF-RHF Final Energy:  -302.67611497985627

   => Energetics <=

    Nuclear Repulsion Energy =            179.6592778183741643
    One-Electron Energy =                -771.2333852025710712
    Two-Electron Energy =                 288.8979924043405845
    Total Energy =                       -302.6761149798562656
  Basis Set: (AUG-CC-PVTZ AUX)
    Blend: AUG-CC-PVTZ-RI
    Molecular point group: c1

    Geometry (in Angstrom), charge = 0, multiplicity = 1:

       Center              X                  Y                   Z               Mass
    ------------   -----------------  -----------------  -----------------  -----------------
         O           -0.487271941517    -0.829546409679    -0.007782374972    15.994914619570
         O            0.290310558483     1.363033190321     0.000488125028    15.994914619570
         O           -1.826306941517    -0.253638409679     0.007068625028    15.994914619570
         C            1.829515058483    -0.442071409679     0.003835625028    12.000000000000
         C            0.453946058483     0.152800590321    -0.007166374972    12.000000000000
         H            2.297355058483    -0.221918409679     0.966168625028     1.007825032230
         H            1.796458058483    -1.520350409679    -0.149674374972     1.007825032230
         H            2.421276058483     0.033869590321    -0.779818374972     1.007825032230
         H           -1.593132941517     0.711300590321     0.006563625028     1.007825032230

  Basis Set: AUG-CC-PVTZ
    Blend: AUG-CC-PVTZ
  Basis Set: (AUG-CC-PVTZ AUX)
    Blend: AUG-CC-PVTZ-JKFIT
	 Reference Energy          =    -302.6761149798562656 [Eh]
	 Singles Energy            =      -0.0000000000000000 [Eh]
	 Same-Spin Energy          =      -0.2837142937985218 [Eh]
	 Opposite-Spin Energy      =      -0.8669837671524706 [Eh]
	 Correlation Energy        =      -1.1506980609509925 [Eh]
	 Total Energy              =    -303.8268130408072807 [Eh]

	 ================> DF-SCS-MP2 Energies <==================
	-----------------------------------------------------------
	 SCS Same-Spin Scale       =       0.3333333333333333 [-]
	 SCS Opposite-Spin Scale   =       1.2000000000000000 [-]
	 SCS Same-Spin Energy      =      -0.0945714312661739 [Eh]
	 SCS Opposite-Spin Energy  =      -1.0403805205829646 [Eh]
	 SCS Correlation Energy    =      -1.1349519518491384 [Eh]
	 SCS Total Energy          =    -303.8110669317053976 [Eh]
	-----------------------------------------------------------

  Dipole Moment: [D]
     X:     2.0036      Y:    -0.5155      Z:     0.0128     Total:     2.0689

*** Psi4 exiting successfully. Buy a developer a beer!
