                               Psi4 1.3.2 release

  ==> Input File <==

--------------------------------------------------------------------------
#psi4
#
memory 32 gb

molecule  {
0 1
  O       -0.5230660    -0.8124530    -0.0079950
  O        0.1289150     1.3564030    -0.0013430
  O       -1.8990183    -0.3313565     0.0063833
  C        1.7937210    -0.4249780     0.0036230
  C        0.4181520     0.1698940    -0.0073790
  H        2.2615610    -0.2048250     0.9659560
  H        1.7606640    -1.5032570    -0.1498870
  H        2.3854820     0.0509630    -0.7800310
  H       -1.6289270     0.7283940     0.0063510
units angstrom
no_reorient  #important for SAPT in psi4, default
symmetry c1  #important for SAPT in psi4, default
}

set PROPERTIES_ORIGIN ["COM"]
properties('MP2/aug-cc-pvtz', properties = ['dipole'])
--------------------------------------------------------------------------

    Molecular point group: c1
  Charge       = 0
  Multiplicity = 1
  Basis Set: AUG-CC-PVTZ
    Blend: AUG-CC-PVTZ
  Basis Set: (AUG-CC-PVTZ AUX)
    Blend: AUG-CC-PVTZ-JKFIT

    Orbital Energies [Eh]
    ---------------------

    Doubly Occupied:

       1A    -20.669773     2A    -20.657965     3A    -20.580669
       4A    -11.416548     5A    -11.266441     6A     -1.522904
       7A     -1.406663     8A     -1.250765     9A     -1.034479
      10A     -0.822930    11A     -0.736145    12A     -0.695733
      13A     -0.693124    14A     -0.615464    15A     -0.610443
      16A     -0.580022    17A     -0.570456    18A     -0.538298
      19A     -0.488622    20A     -0.473658

  @DF-RHF Final Energy:  -302.66541323516793

   => Energetics <=

    Nuclear Repulsion Energy =            179.1881560282263592
    One-Electron Energy =                -770.4449323134019778
    Two-Electron Energy =                 288.5913630500077147
    Total Energy =                       -302.6654132351679323
  Basis Set: (AUG-CC-PVTZ AUX)
    Blend: AUG-CC-PVTZ-RI
    Molecular point group: c1

    Geometry (in Angstrom), charge = 0, multiplicity = 1:

       Center              X                  Y                   Z               Mass
    ------------   -----------------  -----------------  -----------------  -----------------
         O           -0.453075550943    -0.804604848602    -0.007342355159    15.994914619570
         O            0.198905449057     1.364251151398    -0.000690355159    15.994914619570
         O           -1.829027850943    -0.323508348602     0.007035944841    15.994914619570
         C            1.863711449057    -0.417129848602     0.004275644841    12.000000000000
         C            0.488142449057     0.177742151398    -0.006726355159    12.000000000000
         H            2.331551449057    -0.196976848602     0.966608644841     1.007825032230
         H            1.830654449057    -1.495408848602    -0.149234355159     1.007825032230
         H            2.455472449057     0.058811151398    -0.779378355159     1.007825032230
         H           -1.558936550943     0.736242151398     0.007003644841     1.007825032230

  Basis Set: AUG-CC-PVTZ
    Blend: AUG-CC-PVTZ
  Basis Set: (AUG-CC-PVTZ AUX)
    Blend: AUG-CC-PVTZ-JKFIT
	 Reference Energy          =    -302.6654132351679323 [Eh]
	 Singles Energy            =      -0.0000000000000000 [Eh]
	 Same-Spin Energy          =      -0.2855120713619225 [Eh]
	 Opposite-Spin Energy      =      -0.8700166574363675 [Eh]
	 Correlation Energy        =      -1.1555287287982901 [Eh]
	 Total Energy              =    -303.8209419639662201 [Eh]

	 ================> DF-SCS-MP2 Energies <==================
	-----------------------------------------------------------
	 SCS Same-Spin Scale       =       0.3333333333333333 [-]
	 SCS Opposite-Spin Scale   =       1.2000000000000000 [-]
	 SCS Same-Spin Energy      =      -0.0951706904539742 [Eh]
	 SCS Opposite-Spin Energy  =      -1.0440199889236410 [Eh]
	 SCS Correlation Energy    =      -1.1391906793776152 [Eh]
	 SCS Total Energy          =    -303.8046039145455666 [Eh]
	-----------------------------------------------------------

  Dipole Moment: [D]
     X:     2.4592      Y:    -0.4075      Z:     0.0159     Total:     2.4928

*** Psi4 exiting successfully. Buy a developer a beer!
