                               Psi4 1.3.2 release

  ==> Input File <==

--------------------------------------------------------------------------
#psi4
#
memory 32 gb

molecule  {
0 1
  O       -0.5230660    -0.8124530    -0.0079950
  O        0.0876849     1.3455894    -0.0018981
  O       -1.8621010    -0.2365450     0.0068560
  C        1.7937210    -0.4249780     0.0036230
  C        0.4181520     0.1698940    -0.0073790
  H        2.2615610    -0.2048250     0.9659560
  H        1.7606640    -1.5032570    -0.1498870
  H        2.3854820     0.0509630    -0.7800310
  H       -1.6289270     0.7283940     0.0063510
units angstrom
no_reorient  #important for SAPT in psi4, default
symmetry c1  #important for SAPT in psi4, default
}

set PROPERTIES_ORIGIN ["COM"]
properties('MP2/aug-cc-pvtz', properties = ['dipole'])
--------------------------------------------------------------------------

    Molecular point group: c1
  Charge       = 0
  Multiplicity = 1
  Basis Set: AUG-CC-PVTZ
    Blend: AUG-CC-PVTZ
  Basis Set: (AUG-CC-PVTZ AUX)
    Blend: AUG-CC-PVTZ-JKFIT

    Orbital Energies [Eh]
    ---------------------

    Doubly Occupied:

       1A    -20.673538     2A    -20.646836     3A    -20.577832
       4A    -11.415594     5A    -11.268381     6A     -1.530885
       7A     -1.404256     8A     -1.264203     9A     -1.037360
      10A     -0.831916    11A     -0.740816    12A     -0.697052
      13A     -0.695320    14A     -0.618196    15A     -0.611069
      16A     -0.593640    17A     -0.571538    18A     -0.536014
      19A     -0.488673    20A     -0.475744

  @DF-RHF Final Energy:  -302.67980510416385

   => Energetics <=

    Nuclear Repulsion Energy =            180.6455882682853655
    One-Electron Energy =                -773.2930594098221491
    Two-Electron Energy =                 289.9676660373729646
    Total Energy =                       -302.6798051041638473
  Basis Set: (AUG-CC-PVTZ AUX)
    Blend: AUG-CC-PVTZ-RI
    Molecular point group: c1

    Geometry (in Angstrom), charge = 0, multiplicity = 1:

       Center              X                  Y                   Z               Mass
    ------------   -----------------  -----------------  -----------------  -----------------
         O           -0.452168073204    -0.822279265321    -0.007325016964    15.994914619570
         O            0.158582826796     1.335763134679    -0.001228116964    15.994914619570
         O           -1.791203073204    -0.246371265321     0.007525983036    15.994914619570
         C            1.864618926796    -0.434804265321     0.004292983036    12.000000000000
         C            0.489049926796     0.160067734679    -0.006709016964    12.000000000000
         H            2.332458926796    -0.214651265321     0.966625983036     1.007825032230
         H            1.831561926796    -1.513083265321    -0.149217016964     1.007825032230
         H            2.456379926796     0.041136734679    -0.779361016964     1.007825032230
         H           -1.558029073204     0.718567734679     0.007020983036     1.007825032230

  Basis Set: AUG-CC-PVTZ
    Blend: AUG-CC-PVTZ
  Basis Set: (AUG-CC-PVTZ AUX)
    Blend: AUG-CC-PVTZ-JKFIT
	 Reference Energy          =    -302.6798051041638473 [Eh]
	 Singles Energy            =      -0.0000000000000000 [Eh]
	 Same-Spin Energy          =      -0.2839436110530873 [Eh]
	 Opposite-Spin Energy      =      -0.8663383925055741 [Eh]
	 Correlation Energy        =      -1.1502820035586614 [Eh]
	 Total Energy              =    -303.8300871077225338 [Eh]

	 ================> DF-SCS-MP2 Energies <==================
	-----------------------------------------------------------
	 SCS Same-Spin Scale       =       0.3333333333333333 [-]
	 SCS Opposite-Spin Scale   =       1.2000000000000000 [-]
	 SCS Same-Spin Energy      =      -0.0946478703510291 [Eh]
	 SCS Opposite-Spin Energy  =      -1.0396060710066888 [Eh]
	 SCS Correlation Energy    =      -1.1342539413577180 [Eh]
	 SCS Total Energy          =    -303.8140590455215602 [Eh]
	-----------------------------------------------------------

  Dipole Moment: [D]
     X:     2.5419      Y:    -0.4846      Z:     0.0157     Total:     2.5877

*** Psi4 exiting successfully. Buy a developer a beer!
