                               Psi4 1.3.2 release

  ==> Input File <==

--------------------------------------------------------------------------
#psi4
#
memory 32 gb

molecule  {
0 1
  O       -0.4522504    -0.8757144    -0.0072662
  O        0.1289150     1.3564030    -0.0013430
  O       -1.8621010    -0.2365450     0.0068560
  C        1.7937210    -0.4249780     0.0036230
  C        0.4181520     0.1698940    -0.0073790
  H        2.2615610    -0.2048250     0.9659560
  H        1.7606640    -1.5032570    -0.1498870
  H        2.3854820     0.0509630    -0.7800310
  H       -1.6289270     0.7283940     0.0063510
units angstrom
no_reorient  #important for SAPT in psi4, default
symmetry c1  #important for SAPT in psi4, default
}

set PROPERTIES_ORIGIN ["COM"]
properties('MP2/aug-cc-pvtz', properties = ['dipole'])
--------------------------------------------------------------------------

    Molecular point group: c1
  Charge       = 0
  Multiplicity = 1
  Basis Set: AUG-CC-PVTZ
    Blend: AUG-CC-PVTZ
  Basis Set: (AUG-CC-PVTZ AUX)
    Blend: AUG-CC-PVTZ-JKFIT

    Orbital Energies [Eh]
    ---------------------

    Doubly Occupied:

       1A    -20.684595     2A    -20.656012     3A    -20.582047
       4A    -11.416957     5A    -11.262074     6A     -1.509207
       7A     -1.401722     8A     -1.281534     9A     -1.032983
      10A     -0.822200    11A     -0.737201    12A     -0.691720
      13A     -0.689631    14A     -0.624114    15A     -0.604926
      16A     -0.604200    17A     -0.551656    18A     -0.537220
      19A     -0.492948    20A     -0.486518

  @DF-RHF Final Energy:  -302.66505786987182

   => Energetics <=

    Nuclear Repulsion Energy =            179.0172937544906517
    One-Electron Energy =                -770.0257755809370792
    Two-Electron Energy =                 288.3434239565746111
    Total Energy =                       -302.6650578698718164
  Basis Set: (AUG-CC-PVTZ AUX)
    Blend: AUG-CC-PVTZ-RI
    Molecular point group: c1

    Geometry (in Angstrom), charge = 0, multiplicity = 1:

       Center              X                  Y                   Z               Mass
    ------------   -----------------  -----------------  -----------------  -----------------
         O           -0.404928567288    -0.874504862364    -0.006866368761    15.994914619570
         O            0.176236832712     1.357612537636    -0.000943168761    15.994914619570
         O           -1.814779167288    -0.235335462364     0.007255831239    15.994914619570
         C            1.841042832712    -0.423768462364     0.004022831239    12.000000000000
         C            0.465473832712     0.171103537636    -0.006979168761    12.000000000000
         H            2.308882832712    -0.203615462364     0.966355831239     1.007825032230
         H            1.807985832712    -1.502047462364    -0.149487168761     1.007825032230
         H            2.432803832712     0.052172537636    -0.779631168761     1.007825032230
         H           -1.581605167288     0.729603537636     0.006750831239     1.007825032230

  Basis Set: AUG-CC-PVTZ
    Blend: AUG-CC-PVTZ
  Basis Set: (AUG-CC-PVTZ AUX)
    Blend: AUG-CC-PVTZ-JKFIT
	 Reference Energy          =    -302.6650578698718164 [Eh]
	 Singles Energy            =      -0.0000000000000000 [Eh]
	 Same-Spin Energy          =      -0.2853631017408182 [Eh]
	 Opposite-Spin Energy      =      -0.8732576988449599 [Eh]
	 Correlation Energy        =      -1.1586208005857781 [Eh]
	 Total Energy              =    -303.8236786704575820 [Eh]

	 ================> DF-SCS-MP2 Energies <==================
	-----------------------------------------------------------
	 SCS Same-Spin Scale       =       0.3333333333333333 [-]
	 SCS Opposite-Spin Scale   =       1.2000000000000000 [-]
	 SCS Same-Spin Energy      =      -0.0951210339136061 [Eh]
	 SCS Opposite-Spin Energy  =      -1.0479092386139517 [Eh]
	 SCS Correlation Energy    =      -1.1430302725275578 [Eh]
	 SCS Total Energy          =    -303.8080881423993560 [Eh]
	-----------------------------------------------------------

  Dipole Moment: [D]
     X:     2.4018      Y:    -0.4192      Z:     0.0140     Total:     2.4382

*** Psi4 exiting successfully. Buy a developer a beer!
