                               Psi4 1.3.2 release

  ==> Input File <==

--------------------------------------------------------------------------
#psi4
#
memory 32 gb

molecule  {
0 1
  O       -0.5230660    -0.8124530    -0.0079950
  O        0.1289150     1.3564030    -0.0013430
  O       -1.7702419    -0.2760528     0.0058372
  C        1.7937210    -0.4249780     0.0036230
  C        0.4181520     0.1698940    -0.0073790
  H        2.2615610    -0.2048250     0.9659560
  H        1.7606640    -1.5032570    -0.1498870
  H        2.3854820     0.0509630    -0.7800310
  H       -1.6289270     0.7283940     0.0063510
units angstrom
no_reorient  #important for SAPT in psi4, default
symmetry c1  #important for SAPT in psi4, default
}

set PROPERTIES_ORIGIN ["COM"]
properties('MP2/aug-cc-pvtz', properties = ['dipole'])
--------------------------------------------------------------------------

    Molecular point group: c1
  Charge       = 0
  Multiplicity = 1
  Basis Set: AUG-CC-PVTZ
    Blend: AUG-CC-PVTZ
  Basis Set: (AUG-CC-PVTZ AUX)
    Blend: AUG-CC-PVTZ-JKFIT

    Orbital Energies [Eh]
    ---------------------

    Doubly Occupied:

       1A    -20.676966     2A    -20.636695     3A    -20.578631
       4A    -11.413591     5A    -11.264679     6A     -1.570343
       7A     -1.411446     8A     -1.247009     9A     -1.033137
      10A     -0.854412    11A     -0.739362    12A     -0.711935
      13A     -0.707976    14A     -0.614762    15A     -0.613999
      16A     -0.595939    17A     -0.568936    18A     -0.534069
      19A     -0.488714    20A     -0.459887

  @DF-RHF Final Energy:  -302.68107789477216

   => Energetics <=

    Nuclear Repulsion Energy =            182.8835316418205252
    One-Electron Energy =                -777.6842411116293761
    Two-Electron Energy =                 292.1196315750367489
    Total Energy =                       -302.6810778947721587
  Basis Set: (AUG-CC-PVTZ AUX)
    Blend: AUG-CC-PVTZ-RI
    Molecular point group: c1

    Geometry (in Angstrom), charge = 0, multiplicity = 1:

       Center              X                  Y                   Z               Mass
    ------------   -----------------  -----------------  -----------------  -----------------
         O           -0.480172034988    -0.816241575709    -0.007227447537    15.994914619570
         O            0.171808965012     1.352614424291    -0.000575447537    15.994914619570
         O           -1.727347934988    -0.279841375709     0.006604752463    15.994914619570
         C            1.836614965012    -0.428766575709     0.004390552463    12.000000000000
         C            0.461045965012     0.166105424291    -0.006611447537    12.000000000000
         H            2.304454965012    -0.208613575709     0.966723552463     1.007825032230
         H            1.803557965012    -1.507045575709    -0.149119447537     1.007825032230
         H            2.428375965012     0.047174424291    -0.779263447537     1.007825032230
         H           -1.586033034988     0.724605424291     0.007118552463     1.007825032230

  Basis Set: AUG-CC-PVTZ
    Blend: AUG-CC-PVTZ
  Basis Set: (AUG-CC-PVTZ AUX)
    Blend: AUG-CC-PVTZ-JKFIT
	 Reference Energy          =    -302.6810778947721587 [Eh]
	 Singles Energy            =      -0.0000000000000000 [Eh]
	 Same-Spin Energy          =      -0.2834115350011437 [Eh]
	 Opposite-Spin Energy      =      -0.8616068862306456 [Eh]
	 Correlation Energy        =      -1.1450184212317893 [Eh]
	 Total Energy              =    -303.8260963160039410 [Eh]

	 ================> DF-SCS-MP2 Energies <==================
	-----------------------------------------------------------
	 SCS Same-Spin Scale       =       0.3333333333333333 [-]
	 SCS Opposite-Spin Scale   =       1.2000000000000000 [-]
	 SCS Same-Spin Energy      =      -0.0944705116670479 [Eh]
	 SCS Opposite-Spin Energy  =      -1.0339282634767748 [Eh]
	 SCS Correlation Energy    =      -1.1283987751438227 [Eh]
	 SCS Total Energy          =    -303.8094766699159663 [Eh]
	-----------------------------------------------------------

  Dipole Moment: [D]
     X:     2.2190      Y:    -0.4892      Z:     0.0154     Total:     2.2723

*** Psi4 exiting successfully. Buy a developer a beer!
