                               Psi4 1.3.2 release

  ==> Input File <==

--------------------------------------------------------------------------
#psi4
#
memory 32 gb

molecule  {
0 1
  O       -0.5057789    -0.8287295    -0.0078130
  O        0.1289150     1.3564030    -0.0013430
  O       -1.8621010    -0.2365450     0.0068560
  C        1.7937210    -0.4249780     0.0036230
  C        0.4181520     0.1698940    -0.0073790
  H        2.2615610    -0.2048250     0.9659560
  H        1.7606640    -1.5032570    -0.1498870
  H        2.3854820     0.0509630    -0.7800310
  H       -1.6289270     0.7283940     0.0063510
units angstrom
no_reorient  #important for SAPT in psi4, default
symmetry c1  #important for SAPT in psi4, default
}

set PROPERTIES_ORIGIN ["COM"]
properties('MP2/aug-cc-pvtz', properties = ['dipole'])
--------------------------------------------------------------------------

    Molecular point group: c1
  Charge       = 0
  Multiplicity = 1
  Basis Set: AUG-CC-PVTZ
    Blend: AUG-CC-PVTZ
  Basis Set: (AUG-CC-PVTZ AUX)
    Blend: AUG-CC-PVTZ-JKFIT

    Orbital Energies [Eh]
    ---------------------

    Doubly Occupied:

       1A    -20.678664     2A    -20.651393     3A    -20.579253
       4A    -11.415766     5A    -11.265015     6A     -1.525177
       7A     -1.404797     8A     -1.270251     9A     -1.034851
      10A     -0.830576    11A     -0.738541    12A     -0.695570
      13A     -0.694323    14A     -0.619006    15A     -0.609263
      16A     -0.599267    17A     -0.566907    18A     -0.536389
      19A     -0.487420    20A     -0.481769

  @DF-RHF Final Energy:  -302.67736347828873

   => Energetics <=

    Nuclear Repulsion Energy =            180.0071840591697026
    One-Electron Energy =                -772.0006950617201937
    Two-Electron Energy =                 289.3161475242617371
    Total Energy =                       -302.6773634782887257
  Basis Set: (AUG-CC-PVTZ AUX)
    Blend: AUG-CC-PVTZ-RI
    Molecular point group: c1

    Geometry (in Angstrom), charge = 0, multiplicity = 1:

       Center              X                  Y                   Z               Mass
    ------------   -----------------  -----------------  -----------------  -----------------
         O           -0.447193868859    -0.837406289309    -0.007298113849    15.994914619570
         O            0.187500031141     1.347726210691    -0.000828113849    15.994914619570
         O           -1.803515968859    -0.245221789309     0.007370886151    15.994914619570
         C            1.852306031141    -0.433654789309     0.004137886151    12.000000000000
         C            0.476737031141     0.161217210691    -0.006864113849    12.000000000000
         H            2.320146031141    -0.213501789309     0.966470886151     1.007825032230
         H            1.819249031141    -1.511933789309    -0.149372113849     1.007825032230
         H            2.444067031141     0.042286210691    -0.779516113849     1.007825032230
         H           -1.570341968859     0.719717210691     0.006865886151     1.007825032230

  Basis Set: AUG-CC-PVTZ
    Blend: AUG-CC-PVTZ
  Basis Set: (AUG-CC-PVTZ AUX)
    Blend: AUG-CC-PVTZ-JKFIT
	 Reference Energy          =    -302.6773634782887257 [Eh]
	 Singles Energy            =      -0.0000000000000000 [Eh]
	 Same-Spin Energy          =      -0.2841644801434629 [Eh]
	 Opposite-Spin Energy      =      -0.8679905197973106 [Eh]
	 Correlation Energy        =      -1.1521549999407734 [Eh]
	 Total Energy              =    -303.8295184782294882 [Eh]

	 ================> DF-SCS-MP2 Energies <==================
	-----------------------------------------------------------
	 SCS Same-Spin Scale       =       0.3333333333333333 [-]
	 SCS Opposite-Spin Scale   =       1.2000000000000000 [-]
	 SCS Same-Spin Energy      =      -0.0947214933811543 [Eh]
	 SCS Opposite-Spin Energy  =      -1.0415886237567726 [Eh]
	 SCS Correlation Energy    =      -1.1363101171379268 [Eh]
	 SCS Total Energy          =    -303.8136735954266783 [Eh]
	-----------------------------------------------------------

  Dipole Moment: [D]
     X:     2.4045      Y:    -0.4764      Z:     0.0147     Total:     2.4513

*** Psi4 exiting successfully. Buy a developer a beer!
