                               Psi4 1.3.2 release

  ==> Input File <==

--------------------------------------------------------------------------
#psi4
#
memory 32 gb

molecule  {
0 1
  O       -0.5230660    -0.8124530    -0.0079950
  O        0.1289150     1.3564030    -0.0013430
  O       -1.8621010    -0.2365450     0.0068560
  C        1.7937210    -0.4249780     0.0036230
  C        0.3944687     0.2670478    -0.0068848
  H        2.2615610    -0.2048250     0.9659560
  H        1.7606640    -1.5032570    -0.1498870
  H        2.3854820     0.0509630    -0.7800310
  H       -1.6289270     0.7283940     0.0063510
units angstrom
no_reorient  #important for SAPT in psi4, default
symmetry c1  #important for SAPT in psi4, default
}

set PROPERTIES_ORIGIN ["COM"]
properties('MP2/aug-cc-pvtz', properties = ['dipole'])
--------------------------------------------------------------------------

    Molecular point group: c1
  Charge       = 0
  Multiplicity = 1
  Basis Set: AUG-CC-PVTZ
    Blend: AUG-CC-PVTZ
  Basis Set: (AUG-CC-PVTZ AUX)
    Blend: AUG-CC-PVTZ-JKFIT

    Orbital Energies [Eh]
    ---------------------

    Doubly Occupied:

       1A    -20.661346     2A    -20.636559     3A    -20.598731
       4A    -11.407680     5A    -11.263426     6A     -1.538751
       7A     -1.461847     8A     -1.242825     9A     -1.016027
      10A     -0.822338    11A     -0.759232    12A     -0.702935
      13A     -0.696094    14A     -0.618964    15A     -0.607924
      16A     -0.600926    17A     -0.565344    18A     -0.562335
      19A     -0.482502    20A     -0.471768

  @DF-RHF Final Energy:  -302.66719816132075

   => Energetics <=

    Nuclear Repulsion Energy =            180.9128824024577398
    One-Electron Energy =                -773.7250514304756734
    Two-Electron Energy =                 290.1449708666971787
    Total Energy =                       -302.6671981613207549
  Basis Set: (AUG-CC-PVTZ AUX)
    Blend: AUG-CC-PVTZ-RI
    Molecular point group: c1

    Geometry (in Angstrom), charge = 0, multiplicity = 1:

       Center              X                  Y                   Z               Mass
    ------------   -----------------  -----------------  -----------------  -----------------
         O           -0.457104824836    -0.839891444783    -0.007519833431    15.994914619570
         O            0.194876175164     1.328964555217    -0.000867833431    15.994914619570
         O           -1.796139824836    -0.263983444783     0.007331166569    15.994914619570
         C            1.859682175164    -0.452416444783     0.004098166569    12.000000000000
         C            0.460429875164     0.239609355217    -0.006409633431    12.000000000000
         H            2.327522175164    -0.232263444783     0.966431166569     1.007825032230
         H            1.826625175164    -1.530695444783    -0.149411833431     1.007825032230
         H            2.451443175164     0.023524555217    -0.779555833431     1.007825032230
         H           -1.562965824836     0.700955555217     0.006826166569     1.007825032230

  Basis Set: AUG-CC-PVTZ
    Blend: AUG-CC-PVTZ
  Basis Set: (AUG-CC-PVTZ AUX)
    Blend: AUG-CC-PVTZ-JKFIT
	 Reference Energy          =    -302.6671981613207549 [Eh]
	 Singles Energy            =      -0.0000000000000000 [Eh]
	 Same-Spin Energy          =      -0.2822015810755955 [Eh]
	 Opposite-Spin Energy      =      -0.8638940614243464 [Eh]
	 Correlation Energy        =      -1.1460956424999420 [Eh]
	 Total Energy              =    -303.8132938038206703 [Eh]

	 ================> DF-SCS-MP2 Energies <==================
	-----------------------------------------------------------
	 SCS Same-Spin Scale       =       0.3333333333333333 [-]
	 SCS Opposite-Spin Scale   =       1.2000000000000000 [-]
	 SCS Same-Spin Energy      =      -0.0940671936918652 [Eh]
	 SCS Opposite-Spin Energy  =      -1.0366728737092157 [Eh]
	 SCS Correlation Energy    =      -1.1307400674010808 [Eh]
	 SCS Total Energy          =    -303.7979382287218186 [Eh]
	-----------------------------------------------------------

  Dipole Moment: [D]
     X:     2.4649      Y:     0.2239      Z:     0.0124     Total:     2.4751

*** Psi4 exiting successfully. Buy a developer a beer!
