                               Psi4 1.3.2 release

  ==> Input File <==

--------------------------------------------------------------------------
#psi4
#
memory 32 gb

molecule  {
0 1
  O       -0.5230660    -0.8124530    -0.0079950
  O        0.1289150     1.3564030    -0.0013430
  O       -1.8621010    -0.2365450     0.0068560
  C        1.7937210    -0.4249780     0.0036230
  C        0.4181520     0.1698940    -0.0073790
  H        2.2615610    -0.2048250     0.9659560
  H        1.7606640    -1.5032570    -0.1498870
  H        2.3854820     0.0509630    -0.7800310
  H       -1.5819498     0.9227986     0.0062493
units angstrom
no_reorient  #important for SAPT in psi4, default
symmetry c1  #important for SAPT in psi4, default
}

set PROPERTIES_ORIGIN ["COM"]
properties('MP2/aug-cc-pvtz', properties = ['dipole'])
--------------------------------------------------------------------------

    Molecular point group: c1
  Charge       = 0
  Multiplicity = 1
  Basis Set: AUG-CC-PVTZ
    Blend: AUG-CC-PVTZ
  Basis Set: (AUG-CC-PVTZ AUX)
    Blend: AUG-CC-PVTZ-JKFIT

    Orbital Energies [Eh]
    ---------------------

    Doubly Occupied:

       1A    -20.670272     2A    -20.647747     3A    -20.584742
       4A    -11.416753     5A    -11.266296     6A     -1.518207
       7A     -1.405937     8A     -1.233858     9A     -1.033624
      10A     -0.816184    11A     -0.738292    12A     -0.694871
      13A     -0.691272    14A     -0.608103    15A     -0.607332
      16A     -0.572030    17A     -0.557857    18A     -0.536626
      19A     -0.490525    20A     -0.469439

  @DF-RHF Final Energy:  -302.64807558212902

   => Energetics <=

    Nuclear Repulsion Energy =            179.6099522345462844
    One-Electron Energy =                -771.3961219407982526
    Two-Electron Energy =                 289.1380941241229152
    Total Energy =                       -302.6480755821290245
  Basis Set: (AUG-CC-PVTZ AUX)
    Blend: AUG-CC-PVTZ-RI
    Molecular point group: c1

    Geometry (in Angstrom), charge = 0, multiplicity = 1:

       Center              X                  Y                   Z               Mass
    ------------   -----------------  -----------------  -----------------  -----------------
         O           -0.461466330391    -0.827132036021    -0.007440469977    15.994914619570
         O            0.190514669609     1.341723963979    -0.000788469977    15.994914619570
         O           -1.800501330391    -0.251224036021     0.007410530023    15.994914619570
         C            1.855320669609    -0.439657036021     0.004177530023    12.000000000000
         C            0.479751669609     0.155214963979    -0.006824469977    12.000000000000
         H            2.323160669609    -0.219504036021     0.966510530023     1.007825032230
         H            1.822263669609    -1.517936036021    -0.149332469977     1.007825032230
         H            2.447081669609     0.036283963979    -0.779476469977     1.007825032230
         H           -1.520350130391     0.908119563979     0.006803830023     1.007825032230

  Basis Set: AUG-CC-PVTZ
    Blend: AUG-CC-PVTZ
  Basis Set: (AUG-CC-PVTZ AUX)
    Blend: AUG-CC-PVTZ-JKFIT
	 Reference Energy          =    -302.6480755821290245 [Eh]
	 Singles Energy            =      -0.0000000000000000 [Eh]
	 Same-Spin Energy          =      -0.2873197718007648 [Eh]
	 Opposite-Spin Energy      =      -0.8733061623732831 [Eh]
	 Correlation Energy        =      -1.1606259341740479 [Eh]
	 Total Energy              =    -303.8087015163030742 [Eh]

	 ================> DF-SCS-MP2 Energies <==================
	-----------------------------------------------------------
	 SCS Same-Spin Scale       =       0.3333333333333333 [-]
	 SCS Opposite-Spin Scale   =       1.2000000000000000 [-]
	 SCS Same-Spin Energy      =      -0.0957732572669216 [Eh]
	 SCS Opposite-Spin Energy  =      -1.0479673948479395 [Eh]
	 SCS Correlation Energy    =      -1.1437406521148612 [Eh]
	 SCS Total Energy          =    -303.7918162342438677 [Eh]
	-----------------------------------------------------------

  Dipole Moment: [D]
     X:     2.6200      Y:    -0.2463      Z:     0.0146     Total:     2.6316

*** Psi4 exiting successfully. Buy a developer a beer!
