                               Psi4 1.3.2 release

  ==> Input File <==

--------------------------------------------------------------------------
#psi4
#
memory 32 gb

molecule  {
0 1
  O       -0.5230660    -0.8124530    -0.0079950
  O        0.1289150     1.3564030    -0.0013430
  O       -1.8719495    -0.2600027     0.0067445
  C        1.7937210    -0.4249780     0.0036230
  C        0.4181520     0.1698940    -0.0073790
  H        2.2615610    -0.2048250     0.9659560
  H        1.7606640    -1.5032570    -0.1498870
  H        2.3854820     0.0509630    -0.7800310
  H       -1.6289270     0.7283940     0.0063510
units angstrom
no_reorient  #important for SAPT in psi4, default
symmetry c1  #important for SAPT in psi4, default
}

set PROPERTIES_ORIGIN ["COM"]
properties('MP2/aug-cc-pvtz', properties = ['dipole'])
--------------------------------------------------------------------------

    Molecular point group: c1
  Charge       = 0
  Multiplicity = 1
  Basis Set: AUG-CC-PVTZ
    Blend: AUG-CC-PVTZ
  Basis Set: (AUG-CC-PVTZ AUX)
    Blend: AUG-CC-PVTZ-JKFIT

    Orbital Energies [Eh]
    ---------------------

    Doubly Occupied:

       1A    -20.674785     2A    -20.652213     3A    -20.578806
       4A    -11.415661     5A    -11.266111     6A     -1.529236
       7A     -1.406007     8A     -1.261959     9A     -1.035143
      10A     -0.830924    11A     -0.738261    12A     -0.696566
      13A     -0.695464    14A     -0.617483    15A     -0.610827
      16A     -0.592183    17A     -0.571880    18A     -0.536715
      19A     -0.487775    20A     -0.476617

  @DF-RHF Final Energy:  -302.67777558035334

   => Energetics <=

    Nuclear Repulsion Energy =            180.0542296441964254
    One-Electron Energy =                -772.1147820294077064
    Two-Electron Energy =                 289.3827768048579401
    Total Energy =                       -302.6777755803533410
  Basis Set: (AUG-CC-PVTZ AUX)
    Blend: AUG-CC-PVTZ-RI
    Molecular point group: c1

    Geometry (in Angstrom), charge = 0, multiplicity = 1:

       Center              X                  Y                   Z               Mass
    ------------   -----------------  -----------------  -----------------  -----------------
         O           -0.458771232041    -0.819618757231    -0.007418357051    15.994914619570
         O            0.193209767959     1.349237242769    -0.000766357051    15.994914619570
         O           -1.807654732041    -0.267168457231     0.007321142949    15.994914619570
         C            1.858015767959    -0.432143757231     0.004199642949    12.000000000000
         C            0.482446767959     0.162728242769    -0.006802357051    12.000000000000
         H            2.325855767959    -0.211990757231     0.966532642949     1.007825032230
         H            1.824958767959    -1.510422757231    -0.149310357051     1.007825032230
         H            2.449776767959     0.043797242769    -0.779454357051     1.007825032230
         H           -1.564632232041     0.721228242769     0.006927642949     1.007825032230

  Basis Set: AUG-CC-PVTZ
    Blend: AUG-CC-PVTZ
  Basis Set: (AUG-CC-PVTZ AUX)
    Blend: AUG-CC-PVTZ-JKFIT
	 Reference Energy          =    -302.6777755803533410 [Eh]
	 Singles Energy            =      -0.0000000000000000 [Eh]
	 Same-Spin Energy          =      -0.2842362006604202 [Eh]
	 Opposite-Spin Energy      =      -0.8672619024018988 [Eh]
	 Correlation Energy        =      -1.1514981030623190 [Eh]
	 Total Energy              =    -303.8292736834156358 [Eh]

	 ================> DF-SCS-MP2 Energies <==================
	-----------------------------------------------------------
	 SCS Same-Spin Scale       =       0.3333333333333333 [-]
	 SCS Opposite-Spin Scale   =       1.2000000000000000 [-]
	 SCS Same-Spin Energy      =      -0.0947454002201401 [Eh]
	 SCS Opposite-Spin Energy  =      -1.0407142828822786 [Eh]
	 SCS Correlation Energy    =      -1.1354596831024186 [Eh]
	 SCS Total Energy          =    -303.8132352634557378 [Eh]
	-----------------------------------------------------------

  Dipole Moment: [D]
     X:     2.4171      Y:    -0.4756      Z:     0.0152     Total:     2.4635

*** Psi4 exiting successfully. Buy a developer a beer!
