                               Psi4 1.3.2 release

  ==> Input File <==

--------------------------------------------------------------------------
#psi4
#
memory 32 gb

molecule  {
0 1
  O       -0.4882097    -0.8447020    -0.0082592
  O        0.1289150     1.3564030    -0.0013430
  O       -1.8621010    -0.2365450     0.0068560
  C        1.7937210    -0.4249780     0.0036230
  C        0.4181520     0.1698940    -0.0073790
  H        2.2615610    -0.2048250     0.9659560
  H        1.7606640    -1.5032570    -0.1498870
  H        2.3854820     0.0509630    -0.7800310
  H       -1.6289270     0.7283940     0.0063510
units angstrom
no_reorient  #important for SAPT in psi4, default
symmetry c1  #important for SAPT in psi4, default
}

set PROPERTIES_ORIGIN ["COM"]
properties('MP2/aug-cc-pvtz', properties = ['dipole'])
--------------------------------------------------------------------------

    Molecular point group: c1
  Charge       = 0
  Multiplicity = 1
  Basis Set: AUG-CC-PVTZ
    Blend: AUG-CC-PVTZ
  Basis Set: (AUG-CC-PVTZ AUX)
    Blend: AUG-CC-PVTZ-JKFIT

    Orbital Energies [Eh]
    ---------------------

    Doubly Occupied:

       1A    -20.680718     2A    -20.652934     3A    -20.580212
       4A    -11.416134     5A    -11.264021     6A     -1.519333
       7A     -1.403749     8A     -1.274111     9A     -1.034245
      10A     -0.827539    11A     -0.738098    12A     -0.694200
      13A     -0.692566    14A     -0.620086    15A     -0.607595
      16A     -0.601830    17A     -0.561944    18A     -0.536624
      19A     -0.487221    20A     -0.485680

  @DF-RHF Final Energy:  -302.67393218973069

   => Energetics <=

    Nuclear Repulsion Energy =            179.6645431049987280
    One-Electron Energy =                -771.3192676503562097
    Two-Electron Energy =                 288.9807923556267610
    Total Energy =                       -302.6739321897306922
  Basis Set: (AUG-CC-PVTZ AUX)
    Blend: AUG-CC-PVTZ-RI
    Molecular point group: c1

    Geometry (in Angstrom), charge = 0, multiplicity = 1:

       Center              X                  Y                   Z               Mass
    ------------   -----------------  -----------------  -----------------  -----------------
         O           -0.433321491783    -0.850017935989    -0.007650426683    15.994914619570
         O            0.183803208217     1.351087064011    -0.000734226683    15.994914619570
         O           -1.807212791783    -0.241860935989     0.007464773317    15.994914619570
         C            1.848609208217    -0.430293935989     0.004231773317    12.000000000000
         C            0.473040208217     0.164578064011    -0.006770226683    12.000000000000
         H            2.316449208217    -0.210140935989     0.966564773317     1.007825032230
         H            1.815552208217    -1.508572935989    -0.149278226683     1.007825032230
         H            2.440370208217     0.045647064011    -0.779422226683     1.007825032230
         H           -1.574038791783     0.723078064011     0.006959773317     1.007825032230

  Basis Set: AUG-CC-PVTZ
    Blend: AUG-CC-PVTZ
  Basis Set: (AUG-CC-PVTZ AUX)
    Blend: AUG-CC-PVTZ-JKFIT
	 Reference Energy          =    -302.6739321897306922 [Eh]
	 Singles Energy            =      -0.0000000000000000 [Eh]
	 Same-Spin Energy          =      -0.2845310950983733 [Eh]
	 Opposite-Spin Energy      =      -0.8696615029822555 [Eh]
	 Correlation Energy        =      -1.1541925980806287 [Eh]
	 Total Energy              =    -303.8281247878113049 [Eh]

	 ================> DF-SCS-MP2 Energies <==================
	-----------------------------------------------------------
	 SCS Same-Spin Scale       =       0.3333333333333333 [-]
	 SCS Opposite-Spin Scale   =       1.2000000000000000 [-]
	 SCS Same-Spin Energy      =      -0.0948436983661244 [Eh]
	 SCS Opposite-Spin Energy  =      -1.0435938035787067 [Eh]
	 SCS Correlation Energy    =      -1.1384375019448312 [Eh]
	 SCS Total Energy          =    -303.8123696916755421 [Eh]
	-----------------------------------------------------------

  Dipole Moment: [D]
     X:     2.4027      Y:    -0.4557      Z:     0.0148     Total:     2.4456

*** Psi4 exiting successfully. Buy a developer a beer!
