                               Psi4 1.3.2 release

  ==> Input File <==

--------------------------------------------------------------------------
#psi4
#
memory 32 gb

molecule  {
0 1
  O       -0.4702028    -0.6693226    -0.0082572
  O        0.1289150     1.3564030    -0.0013430
  O       -1.8621010    -0.2365450     0.0068560
  C        1.7937210    -0.4249780     0.0036230
  C        0.4181520     0.1698940    -0.0073790
  H        2.2615610    -0.2048250     0.9659560
  H        1.7606640    -1.5032570    -0.1498870
  H        2.3854820     0.0509630    -0.7800310
  H       -1.6289270     0.7283940     0.0063510
units angstrom
no_reorient  #important for SAPT in psi4, default
symmetry c1  #important for SAPT in psi4, default
}

set PROPERTIES_ORIGIN ["COM"]
properties('MP2/aug-cc-pvtz', properties = ['dipole'])
--------------------------------------------------------------------------

    Molecular point group: c1
  Charge       = 0
  Multiplicity = 1
  Basis Set: AUG-CC-PVTZ
    Blend: AUG-CC-PVTZ
  Basis Set: (AUG-CC-PVTZ AUX)
    Blend: AUG-CC-PVTZ-JKFIT

    Orbital Energies [Eh]
    ---------------------

    Doubly Occupied:

       1A    -20.677159     2A    -20.673130     3A    -20.547572
       4A    -11.393927     5A    -11.260689     6A     -1.580856
       7A     -1.390638     8A     -1.309447     9A     -1.030528
      10A     -0.854221    11A     -0.737284    12A     -0.726331
      13A     -0.709689    14A     -0.637251    15A     -0.608406
      16A     -0.591160    17A     -0.559709    18A     -0.542629
      19A     -0.474455    20A     -0.473162

  @DF-RHF Final Energy:  -302.66829735599390

   => Energetics <=

    Nuclear Repulsion Energy =            184.0728765608612036
    One-Electron Energy =                -779.9258584743007532
    Two-Electron Energy =                 293.1846845574456211
    Total Energy =                       -302.6682973559939001
  Basis Set: (AUG-CC-PVTZ AUX)
    Blend: AUG-CC-PVTZ-RI
    Molecular point group: c1

    Geometry (in Angstrom), charge = 0, multiplicity = 1:

       Center              X                  Y                   Z               Mass
    ------------   -----------------  -----------------  -----------------  -----------------
         O           -0.419103513344    -0.711540989496    -0.007648847513    15.994914619570
         O            0.180014286656     1.314184610504    -0.000734647513    15.994914619570
         O           -1.811001713344    -0.278763389496     0.007464352487    15.994914619570
         C            1.844820286656    -0.467196389496     0.004231352487    12.000000000000
         C            0.469251286656     0.127675610504    -0.006770647513    12.000000000000
         H            2.312660286656    -0.247043389496     0.966564352487     1.007825032230
         H            1.811763286656    -1.545475389496    -0.149278647513     1.007825032230
         H            2.436581286656     0.008744610504    -0.779422647513     1.007825032230
         H           -1.577827713344     0.686175610504     0.006959352487     1.007825032230

  Basis Set: AUG-CC-PVTZ
    Blend: AUG-CC-PVTZ
  Basis Set: (AUG-CC-PVTZ AUX)
    Blend: AUG-CC-PVTZ-JKFIT
	 Reference Energy          =    -302.6682973559939001 [Eh]
	 Singles Energy            =      -0.0000000000000000 [Eh]
	 Same-Spin Energy          =      -0.2824367512475762 [Eh]
	 Opposite-Spin Energy      =      -0.8611731501063803 [Eh]
	 Correlation Energy        =      -1.1436099013539565 [Eh]
	 Total Energy              =    -303.8119072573478547 [Eh]

	 ================> DF-SCS-MP2 Energies <==================
	-----------------------------------------------------------
	 SCS Same-Spin Scale       =       0.3333333333333333 [-]
	 SCS Opposite-Spin Scale   =       1.2000000000000000 [-]
	 SCS Same-Spin Energy      =      -0.0941455837491920 [Eh]
	 SCS Opposite-Spin Energy  =      -1.0334077801276562 [Eh]
	 SCS Correlation Energy    =      -1.1275533638768482 [Eh]
	 SCS Total Energy          =    -303.7958507198707707 [Eh]
	-----------------------------------------------------------

  Dipole Moment: [D]
     X:     1.9469      Y:    -1.0593      Z:     0.0131     Total:     2.2164

*** Psi4 exiting successfully. Buy a developer a beer!
