                               Psi4 1.3.2 release

  ==> Input File <==

--------------------------------------------------------------------------
#psi4
#
memory 32 gb

molecule  {
0 1
  O       -0.5905999    -0.9492737    -0.0075700
  O        0.1289150     1.3564030    -0.0013430
  O       -1.8621010    -0.2365450     0.0068560
  C        1.7937210    -0.4249780     0.0036230
  C        0.4181520     0.1698940    -0.0073790
  H        2.2615610    -0.2048250     0.9659560
  H        1.7606640    -1.5032570    -0.1498870
  H        2.3854820     0.0509630    -0.7800310
  H       -1.6289270     0.7283940     0.0063510
units angstrom
no_reorient  #important for SAPT in psi4, default
symmetry c1  #important for SAPT in psi4, default
}

set PROPERTIES_ORIGIN ["COM"]
properties('MP2/aug-cc-pvtz', properties = ['dipole'])
--------------------------------------------------------------------------

    Molecular point group: c1
  Charge       = 0
  Multiplicity = 1
  Basis Set: AUG-CC-PVTZ
    Blend: AUG-CC-PVTZ
  Basis Set: (AUG-CC-PVTZ AUX)
    Blend: AUG-CC-PVTZ-JKFIT

    Orbital Energies [Eh]
    ---------------------

    Doubly Occupied:

       1A    -20.670934     2A    -20.629363     3A    -20.604163
       4A    -11.433723     5A    -11.272381     6A     -1.496826
       7A     -1.419818     8A     -1.224962     9A     -1.042400
      10A     -0.815374    11A     -0.745833    12A     -0.685050
      13A     -0.675108    14A     -0.615164    15A     -0.613332
      16A     -0.603671    17A     -0.555294    18A     -0.542467
      19A     -0.492806    20A     -0.467512

  @DF-RHF Final Energy:  -302.65587973918321

   => Energetics <=

    Nuclear Repulsion Energy =            177.0162628799368463
    One-Electron Energy =                -766.1319257510660918
    Two-Electron Energy =                 286.4597831319459829
    Total Energy =                       -302.6558797391832059
  Basis Set: (AUG-CC-PVTZ AUX)
    Blend: AUG-CC-PVTZ-RI
    Molecular point group: c1

    Geometry (in Angstrom), charge = 0, multiplicity = 1:

       Center              X                  Y                   Z               Mass
    ------------   -----------------  -----------------  -----------------  -----------------
         O           -0.514167259568    -0.932586183489    -0.007106244690    15.994914619570
         O            0.205347640432     1.373090516511    -0.000879244690    15.994914619570
         O           -1.785668359568    -0.219857483489     0.007319755310    15.994914619570
         C            1.870153640432    -0.408290483489     0.004086755310    12.000000000000
         C            0.494584640432     0.186581516511    -0.006915244690    12.000000000000
         H            2.337993640432    -0.188137483489     0.966419755310     1.007825032230
         H            1.837096640432    -1.486569483489    -0.149423244690     1.007825032230
         H            2.461914640432     0.067650516511    -0.779567244690     1.007825032230
         H           -1.552494359568     0.745081516511     0.006814755310     1.007825032230

  Basis Set: AUG-CC-PVTZ
    Blend: AUG-CC-PVTZ
  Basis Set: (AUG-CC-PVTZ AUX)
    Blend: AUG-CC-PVTZ-JKFIT
	 Reference Energy          =    -302.6558797391832059 [Eh]
	 Singles Energy            =      -0.0000000000000000 [Eh]
	 Same-Spin Energy          =      -0.2858515117402211 [Eh]
	 Opposite-Spin Energy      =      -0.8730435061191202 [Eh]
	 Correlation Energy        =      -1.1588950178593413 [Eh]
	 Total Energy              =    -303.8147747570425281 [Eh]

	 ================> DF-SCS-MP2 Energies <==================
	-----------------------------------------------------------
	 SCS Same-Spin Scale       =       0.3333333333333333 [-]
	 SCS Opposite-Spin Scale   =       1.2000000000000000 [-]
	 SCS Same-Spin Energy      =      -0.0952838372467403 [Eh]
	 SCS Opposite-Spin Energy  =      -1.0476522073429442 [Eh]
	 SCS Correlation Energy    =      -1.1429360445896846 [Eh]
	 SCS Total Energy          =    -303.7988157837729091 [Eh]
	-----------------------------------------------------------

  Dipole Moment: [D]
     X:     2.9352      Y:     0.0331      Z:     0.0174     Total:     2.9354

*** Psi4 exiting successfully. Buy a developer a beer!
