                               Psi4 1.3.2 release

  ==> Input File <==

--------------------------------------------------------------------------
#psi4
#
memory 32 gb

molecule  {
0 1
  O       -0.5230660    -0.8124530    -0.0079950
  O        0.1289150     1.3564030    -0.0013430
  O       -1.8621010    -0.2365450     0.0068560
  C        1.7937210    -0.4249780     0.0036230
  C        0.3489691     0.0976879    -0.0074243
  H        2.2615610    -0.2048250     0.9659560
  H        1.7606640    -1.5032570    -0.1498870
  H        2.3854820     0.0509630    -0.7800310
  H       -1.6289270     0.7283940     0.0063510
units angstrom
no_reorient  #important for SAPT in psi4, default
symmetry c1  #important for SAPT in psi4, default
}

set PROPERTIES_ORIGIN ["COM"]
properties('MP2/aug-cc-pvtz', properties = ['dipole'])
--------------------------------------------------------------------------

    Molecular point group: c1
  Charge       = 0
  Multiplicity = 1
  Basis Set: AUG-CC-PVTZ
    Blend: AUG-CC-PVTZ
  Basis Set: (AUG-CC-PVTZ AUX)
    Blend: AUG-CC-PVTZ-JKFIT

    Orbital Energies [Eh]
    ---------------------

    Doubly Occupied:

       1A    -20.700792     2A    -20.668369     3A    -20.560214
       4A    -11.413988     5A    -11.263328     6A     -1.573701
       7A     -1.366097     8A     -1.303470     9A     -1.021202
      10A     -0.861581    11A     -0.726890    12A     -0.721181
      13A     -0.710965    14A     -0.628778    15A     -0.605389
      16A     -0.590423    17A     -0.568621    18A     -0.535335
      19A     -0.477074    20A     -0.470098

  @DF-RHF Final Energy:  -302.66781274006200

   => Energetics <=

    Nuclear Repulsion Energy =            180.9673597802272127
    One-Electron Energy =                -773.7353528972200820
    Two-Electron Energy =                 290.1001803769308935
    Total Energy =                       -302.6678127400620042
  Basis Set: (AUG-CC-PVTZ AUX)
    Blend: AUG-CC-PVTZ-RI
    Molecular point group: c1

    Geometry (in Angstrom), charge = 0, multiplicity = 1:

       Center              X                  Y                   Z               Mass
    ------------   -----------------  -----------------  -----------------  -----------------
         O           -0.449922193758    -0.813156051919    -0.007434667200    15.994914619570
         O            0.202058806242     1.355699948081    -0.000782667200    15.994914619570
         O           -1.788957193758    -0.237248051919     0.007416332800    15.994914619570
         C            1.866864806242    -0.425681051919     0.004183332800    12.000000000000
         C            0.422112906242     0.096984848081    -0.006863967200    12.000000000000
         H            2.334704806242    -0.205528051919     0.966516332800     1.007825032230
         H            1.833807806242    -1.503960051919    -0.149326667200     1.007825032230
         H            2.458625806242     0.050259948081    -0.779470667200     1.007825032230
         H           -1.555783193758     0.727690948081     0.006911332800     1.007825032230

  Basis Set: AUG-CC-PVTZ
    Blend: AUG-CC-PVTZ
  Basis Set: (AUG-CC-PVTZ AUX)
    Blend: AUG-CC-PVTZ-JKFIT
	 Reference Energy          =    -302.6678127400620042 [Eh]
	 Singles Energy            =      -0.0000000000000000 [Eh]
	 Same-Spin Energy          =      -0.2838805774136803 [Eh]
	 Opposite-Spin Energy      =      -0.8660739043602708 [Eh]
	 Correlation Energy        =      -1.1499544817739511 [Eh]
	 Total Energy              =    -303.8177672218359362 [Eh]

	 ================> DF-SCS-MP2 Energies <==================
	-----------------------------------------------------------
	 SCS Same-Spin Scale       =       0.3333333333333333 [-]
	 SCS Opposite-Spin Scale   =       1.2000000000000000 [-]
	 SCS Same-Spin Energy      =      -0.0946268591378934 [Eh]
	 SCS Opposite-Spin Energy  =      -1.0392886852323249 [Eh]
	 SCS Correlation Energy    =      -1.1339155443702182 [Eh]
	 SCS Total Energy          =    -303.8017282844322153 [Eh]
	-----------------------------------------------------------

  Dipole Moment: [D]
     X:     1.8569      Y:    -1.0508      Z:     0.0132     Total:     2.1337

*** Psi4 exiting successfully. Buy a developer a beer!
