                               Psi4 1.3.2 release

  ==> Input File <==

--------------------------------------------------------------------------
#psi4
#
memory 32 gb

molecule  {
0 1
  O       -0.5230660    -0.8124530    -0.0079950
  O        0.1289150     1.3564030    -0.0013430
  O       -1.8621010    -0.2365450     0.0068560
  C        1.7937210    -0.4249780     0.0036230
  C        0.5565179     0.3143062    -0.0072884
  H        2.2615610    -0.2048250     0.9659560
  H        1.7606640    -1.5032570    -0.1498870
  H        2.3854820     0.0509630    -0.7800310
  H       -1.6289270     0.7283940     0.0063510
units angstrom
no_reorient  #important for SAPT in psi4, default
symmetry c1  #important for SAPT in psi4, default
}

set PROPERTIES_ORIGIN ["COM"]
properties('MP2/aug-cc-pvtz', properties = ['dipole'])
--------------------------------------------------------------------------

    Molecular point group: c1
  Charge       = 0
  Multiplicity = 1
  Basis Set: AUG-CC-PVTZ
    Blend: AUG-CC-PVTZ
  Basis Set: (AUG-CC-PVTZ AUX)
    Blend: AUG-CC-PVTZ-JKFIT

    Orbital Energies [Eh]
    ---------------------

    Doubly Occupied:

       1A    -20.620571     2A    -20.613668     3A    -20.612776
       4A    -11.419525     5A    -11.278352     6A     -1.526465
       7A     -1.430890     8A     -1.196070     9A     -1.064506
      10A     -0.800098    11A     -0.761207    12A     -0.709617
      13A     -0.689117    14A     -0.628049    15A     -0.603840
      16A     -0.583974    17A     -0.569757    18A     -0.553018
      19A     -0.474301    20A     -0.439434

  @DF-RHF Final Energy:  -302.64391301395057

   => Energetics <=

    Nuclear Repulsion Energy =            179.5576499834699291
    One-Electron Energy =                -771.2526563499043277
    Two-Electron Energy =                 289.0510933524838606
    Total Energy =                       -302.6439130139505664
  Basis Set: (AUG-CC-PVTZ AUX)
    Blend: AUG-CC-PVTZ-RI
    Molecular point group: c1

    Geometry (in Angstrom), charge = 0, multiplicity = 1:

       Center              X                  Y                   Z               Mass
    ------------   -----------------  -----------------  -----------------  -----------------
         O           -0.482686140280    -0.847351722512    -0.007456120566    15.994914619570
         O            0.169294859720     1.321504277488    -0.000804120566    15.994914619570
         O           -1.821721140280    -0.271443722512     0.007394879434    15.994914619570
         C            1.834100859720    -0.459876722512     0.004161879434    12.000000000000
         C            0.596897759720     0.279407477488    -0.006749520566    12.000000000000
         H            2.301940859720    -0.239723722512     0.966494879434     1.007825032230
         H            1.801043859720    -1.538155722512    -0.149348120566     1.007825032230
         H            2.425861859720     0.016064277488    -0.779492120566     1.007825032230
         H           -1.588547140280     0.693495277488     0.006889879434     1.007825032230

  Basis Set: AUG-CC-PVTZ
    Blend: AUG-CC-PVTZ
  Basis Set: (AUG-CC-PVTZ AUX)
    Blend: AUG-CC-PVTZ-JKFIT
	 Reference Energy          =    -302.6439130139505664 [Eh]
	 Singles Energy            =      -0.0000000000000000 [Eh]
	 Same-Spin Energy          =      -0.2850152459076959 [Eh]
	 Opposite-Spin Energy      =      -0.8688186628199345 [Eh]
	 Correlation Energy        =      -1.1538339087276304 [Eh]
	 Total Energy              =    -303.7977469226781864 [Eh]

	 ================> DF-SCS-MP2 Energies <==================
	-----------------------------------------------------------
	 SCS Same-Spin Scale       =       0.3333333333333333 [-]
	 SCS Opposite-Spin Scale   =       1.2000000000000000 [-]
	 SCS Same-Spin Energy      =      -0.0950050819692320 [Eh]
	 SCS Opposite-Spin Energy  =      -1.0425823953839213 [Eh]
	 SCS Correlation Energy    =      -1.1375874773531534 [Eh]
	 SCS Total Energy          =    -303.7815004913037455 [Eh]
	-----------------------------------------------------------

  Dipole Moment: [D]
     X:     3.6805      Y:     0.6303      Z:     0.0204     Total:     3.7341

*** Psi4 exiting successfully. Buy a developer a beer!
