                               Psi4 1.3.2 release

  ==> Input File <==

--------------------------------------------------------------------------
#psi4
#
memory 32 gb

molecule  {
0 1
 Br        0.4205329     0.0448384     0.0512276
  C       -1.5290100     0.0000350    -0.0000220
  H       -1.8619780     1.0154290    -0.2007900
  H       -1.8620740    -0.6817160    -0.7788800
  H       -1.8621150    -0.3338450     0.9797570
units angstrom
no_reorient  #important for SAPT in psi4, default
symmetry c1  #important for SAPT in psi4, default
}

set PROPERTIES_ORIGIN ["COM"]
properties('MP2/aug-cc-pvtz', properties = ['dipole'])
--------------------------------------------------------------------------

    Molecular point group: c1
  Charge       = 0
  Multiplicity = 1
  Basis Set: AUG-CC-PVTZ
    Blend: AUG-CC-PVTZ
  Basis Set: (AUG-CC-PVTZ AUX)
    Blend: AUG-CC-PVTZ-JKFIT

    Orbital Energies [Eh]
    ---------------------

    Doubly Occupied:

       1A   -490.013346     2A    -65.153215     3A    -58.508516
       4A    -58.507129     5A    -58.507125     6A    -11.291216
       7A     -9.826016     8A     -7.437543     9A     -7.430872
      10A     -7.430855    11A     -3.181124    12A     -3.177694
      13A     -3.177675    14A     -3.169092    15A     -3.169092
      16A     -1.058680    17A     -0.897927    18A     -0.611751
      19A     -0.611411    20A     -0.503724    21A     -0.402191
      22A     -0.401668

  @DF-RHF Final Energy: -2612.09262214948149

   => Energetics <=

    Nuclear Repulsion Energy =             88.7758838668166703
    One-Electron Energy =               -3812.8012905921218589
    Two-Electron Energy =                1111.9327845758241438
    Total Energy =                      -2612.0926221494810306
  Basis Set: (AUG-CC-PVTZ AUX)
    Blend: AUG-CC-PVTZ-RI
    Molecular point group: c1

    Geometry (in Angstrom), charge = 0, multiplicity = 1:

       Center              X                  Y                   Z               Mass
    ------------   -----------------  -----------------  -----------------  -----------------
         BR           0.322496060249     0.007167645581     0.008194358508    78.918337600000
         C           -1.627046839751    -0.037635754419    -0.043055241492    12.000000000000
         H           -1.960014839751     0.977758245581    -0.243823241492     1.007825032230
         H           -1.960110839751    -0.719386754419    -0.821913241492     1.007825032230
         H           -1.960151839751    -0.371515754419     0.936723758508     1.007825032230

  Basis Set: AUG-CC-PVTZ
    Blend: AUG-CC-PVTZ
  Basis Set: (AUG-CC-PVTZ AUX)
    Blend: AUG-CC-PVTZ-JKFIT
	 Reference Energy          =   -2612.0926221494814854 [Eh]
	 Singles Energy            =      -0.0000000000000000 [Eh]
	 Same-Spin Energy          =      -0.1265320838489846 [Eh]
	 Opposite-Spin Energy      =      -0.3643431358629053 [Eh]
	 Correlation Energy        =      -0.4908752197118899 [Eh]
	 Total Energy              =   -2612.5834973691935375 [Eh]

	 ================> DF-SCS-MP2 Energies <==================
	-----------------------------------------------------------
	 SCS Same-Spin Scale       =       0.3333333333333333 [-]
	 SCS Opposite-Spin Scale   =       1.2000000000000000 [-]
	 SCS Same-Spin Energy      =      -0.0421773612829949 [Eh]
	 SCS Opposite-Spin Energy  =      -0.4372117630354863 [Eh]
	 SCS Correlation Energy    =      -0.4793891243184812 [Eh]
	 SCS Total Energy          =   -2612.5720112737999443 [Eh]
	-----------------------------------------------------------

  Dipole Moment: [D]
     X:    -1.8897      Y:    -0.0335      Z:    -0.0381     Total:     1.8904

*** Psi4 exiting successfully. Buy a developer a beer!
