                               Psi4 1.3.2 release

  ==> Input File <==

--------------------------------------------------------------------------
#psi4
#
memory 32 gb

molecule  {
0 1
 Br        0.4169696     0.0896242     0.1023917
  C       -1.5290100     0.0000350    -0.0000220
  H       -1.8619780     1.0154290    -0.2007900
  H       -1.8620740    -0.6817160    -0.7788800
  H       -1.8621150    -0.3338450     0.9797570
units angstrom
no_reorient  #important for SAPT in psi4, default
symmetry c1  #important for SAPT in psi4, default
}

set PROPERTIES_ORIGIN ["COM"]
properties('MP2/aug-cc-pvtz', properties = ['dipole'])
--------------------------------------------------------------------------

    Molecular point group: c1
  Charge       = 0
  Multiplicity = 1
  Basis Set: AUG-CC-PVTZ
    Blend: AUG-CC-PVTZ
  Basis Set: (AUG-CC-PVTZ AUX)
    Blend: AUG-CC-PVTZ-JKFIT

    Orbital Energies [Eh]
    ---------------------

    Doubly Occupied:

       1A   -490.013378     2A    -65.153248     3A    -58.508550
       4A    -58.507164     5A    -58.507155     6A    -11.291192
       7A     -9.826053     8A     -7.437583     9A     -7.430914
      10A     -7.430880    11A     -3.181165    12A     -3.177741
      13A     -3.177705    14A     -3.169123    15A     -3.169122
      16A     -1.058788    17A     -0.897890    18A     -0.611957
      19A     -0.611387    20A     -0.503490    21A     -0.402375
      22A     -0.401399

  @DF-RHF Final Energy: -2612.09216738210444

   => Energetics <=

    Nuclear Repulsion Energy =             88.7862029059703559
    One-Electron Energy =               -3812.8202239878946784
    Two-Electron Energy =                1111.9418536998202853
    Total Energy =                      -2612.0921673821039803
  Basis Set: (AUG-CC-PVTZ AUX)
    Blend: AUG-CC-PVTZ-RI
    Molecular point group: c1

    Geometry (in Angstrom), charge = 0, multiplicity = 1:

       Center              X                  Y                   Z               Mass
    ------------   -----------------  -----------------  -----------------  -----------------
         BR           0.321926205918     0.014329933935     0.016376684994    78.918337600000
         C           -1.624053394082    -0.075259266065    -0.086037015006    12.000000000000
         H           -1.957021394082     0.940134733935    -0.286805015006     1.007825032230
         H           -1.957117394082    -0.757010266065    -0.864895015006     1.007825032230
         H           -1.957158394082    -0.409139266065     0.893741984994     1.007825032230

  Basis Set: AUG-CC-PVTZ
    Blend: AUG-CC-PVTZ
  Basis Set: (AUG-CC-PVTZ AUX)
    Blend: AUG-CC-PVTZ-JKFIT
	 Reference Energy          =   -2612.0921673821044351 [Eh]
	 Singles Energy            =      -0.0000000000000000 [Eh]
	 Same-Spin Energy          =      -0.1265513074956638 [Eh]
	 Opposite-Spin Energy      =      -0.3643797307980062 [Eh]
	 Correlation Energy        =      -0.4909310382936701 [Eh]
	 Total Energy              =   -2612.5830984203980734 [Eh]

	 ================> DF-SCS-MP2 Energies <==================
	-----------------------------------------------------------
	 SCS Same-Spin Scale       =       0.3333333333333333 [-]
	 SCS Opposite-Spin Scale   =       1.2000000000000000 [-]
	 SCS Same-Spin Energy      =      -0.0421837691652213 [Eh]
	 SCS Opposite-Spin Energy  =      -0.4372556769576075 [Eh]
	 SCS Correlation Energy    =      -0.4794394461228287 [Eh]
	 SCS Total Energy          =   -2612.5716068282272317 [Eh]
	-----------------------------------------------------------

  Dipole Moment: [D]
     X:    -1.8869      Y:    -0.0668      Z:    -0.0763     Total:     1.8896

*** Psi4 exiting successfully. Buy a developer a beer!
