                               Psi4 1.3.2 release

  ==> Input File <==

--------------------------------------------------------------------------
#psi4
#
memory 32 gb

molecule  {
0 1
 Br        0.4214240     0.0224216     0.0256182
  C       -1.5290100     0.0000350    -0.0000220
  H       -1.8619780     1.0154290    -0.2007900
  H       -1.8620740    -0.6817160    -0.7788800
  H       -1.8621150    -0.3338450     0.9797570
units angstrom
no_reorient  #important for SAPT in psi4, default
symmetry c1  #important for SAPT in psi4, default
}

set PROPERTIES_ORIGIN ["COM"]
properties('MP2/aug-cc-pvtz', properties = ['dipole'])
--------------------------------------------------------------------------

    Molecular point group: c1
  Charge       = 0
  Multiplicity = 1
  Basis Set: AUG-CC-PVTZ
    Blend: AUG-CC-PVTZ
  Basis Set: (AUG-CC-PVTZ AUX)
    Blend: AUG-CC-PVTZ-JKFIT

    Orbital Energies [Eh]
    ---------------------

    Doubly Occupied:

       1A   -490.013338     2A    -65.153206     3A    -58.508507
       4A    -58.507120     5A    -58.507118     6A    -11.291223
       7A     -9.826007     8A     -7.437532     9A     -7.430859
      10A     -7.430850    11A     -3.181114    12A     -3.177679
      13A     -3.177670    14A     -3.169084    15A     -3.169084
      16A     -1.058653    17A     -0.897937    18A     -0.611656
      19A     -0.611460    20A     -0.503782    21A     -0.402075
      22A     -0.401805

  @DF-RHF Final Energy: -2612.09273625911192

   => Energetics <=

    Nuclear Repulsion Energy =             88.7732884741904371
    One-Electron Energy =               -3812.7965334100344990
    Two-Electron Energy =                1111.9305086767321882
    Total Energy =                      -2612.0927362591119163
  Basis Set: (AUG-CC-PVTZ AUX)
    Blend: AUG-CC-PVTZ-RI
    Molecular point group: c1

    Geometry (in Angstrom), charge = 0, multiplicity = 1:

       Center              X                  Y                   Z               Mass
    ------------   -----------------  -----------------  -----------------  -----------------
         BR           0.322638567810     0.003582679240     0.004098821365    78.918337600000
         C           -1.627795432190    -0.018803920760    -0.021541378635    12.000000000000
         H           -1.960763432190     0.996590079240    -0.222309378635     1.007825032230
         H           -1.960859432190    -0.700554920760    -0.800399378635     1.007825032230
         H           -1.960900432190    -0.352683920760     0.958237621365     1.007825032230

  Basis Set: AUG-CC-PVTZ
    Blend: AUG-CC-PVTZ
  Basis Set: (AUG-CC-PVTZ AUX)
    Blend: AUG-CC-PVTZ-JKFIT
	 Reference Energy          =   -2612.0927362591119163 [Eh]
	 Singles Energy            =      -0.0000000000000000 [Eh]
	 Same-Spin Energy          =      -0.1265272282969455 [Eh]
	 Opposite-Spin Energy      =      -0.3643339596346509 [Eh]
	 Correlation Energy        =      -0.4908611879315963 [Eh]
	 Total Energy              =   -2612.5835974470433030 [Eh]

	 ================> DF-SCS-MP2 Energies <==================
	-----------------------------------------------------------
	 SCS Same-Spin Scale       =       0.3333333333333333 [-]
	 SCS Opposite-Spin Scale   =       1.2000000000000000 [-]
	 SCS Same-Spin Energy      =      -0.0421757427656485 [Eh]
	 SCS Opposite-Spin Energy  =      -0.4372007515615811 [Eh]
	 SCS Correlation Energy    =      -0.4793764943272296 [Eh]
	 SCS Total Energy          =   -2612.5721127534393418 [Eh]
	-----------------------------------------------------------

  Dipole Moment: [D]
     X:    -1.8904      Y:    -0.0167      Z:    -0.0191     Total:     1.8906

*** Psi4 exiting successfully. Buy a developer a beer!
