                               Psi4 1.4a3.dev225

  ==> Input File <==

--------------------------------------------------------------------------
#psi4
#
memory 32 gb

molecule  {
0 1
 Br       -0.4217890     0.0000000     0.0000000
  C        1.5094650     0.0000020    -0.0000020
  H        1.8619480    -0.2218960     1.0109140
  H        1.8619430    -0.7645390    -0.6976170
  H        1.8619410     0.9864280    -0.3132880
units angstrom
no_reorient  #important for SAPT in psi4, default
symmetry c1  #important for SAPT in psi4, default
}

set PROPERTIES_ORIGIN ["COM"]
properties('MP2/aug-cc-pvtz', properties = ['dipole'])
--------------------------------------------------------------------------

    Molecular point group: c1
  Charge       = 0
  Multiplicity = 1
  Basis Set: AUG-CC-PVTZ
    Blend: AUG-CC-PVTZ
  Basis Set: (AUG-CC-PVTZ AUX)
    Blend: AUG-CC-PVTZ-JKFIT

    Orbital Energies [Eh]
    ---------------------

    Doubly Occupied:

       1A   -490.014438     2A    -65.154379     3A    -58.509675
       4A    -58.508289     5A    -58.508289     6A    -11.290656
       7A     -9.827301     8A     -7.438884     9A     -7.432145
      10A     -7.432145    11A     -3.182491    12A     -3.178988
      13A     -3.178988    14A     -3.170353    15A     -3.170353
      16A     -1.061702    17A     -0.895747    18A     -0.607813
      19A     -0.607809    20A     -0.509270    21A     -0.402183
      22A     -0.402182

  @DF-RHF Final Energy: -2612.09233910399644

   => Energetics <=

    Nuclear Repulsion Energy =             89.2995466274629308
    One-Electron Energy =               -3813.8156078337497092
    Two-Electron Energy =                1112.4237221022904123
    Total Energy =                      -2612.0923391039964372
  Basis Set: (AUG-CC-PVTZ AUX)
    Blend: AUG-CC-PVTZ-RI
    Molecular point group: c1

    Geometry (in Angstrom), charge = 0, multiplicity = 1:

       Center              X                  Y                   Z               Mass
    ------------   -----------------  -----------------  -----------------  -----------------
         BR          -0.320196693991    -0.000000180380     0.000000158924    78.918337600000
         C            1.611057306009     0.000001819620    -0.000001841076    12.000000000000
         H            1.963540306009    -0.221896180380     1.010914158924     1.007825032230
         H            1.963535306009    -0.764539180380    -0.697616841076     1.007825032230
         H            1.963533306009     0.986427819620    -0.313287841076     1.007825032230

  Basis Set: AUG-CC-PVTZ
    Blend: AUG-CC-PVTZ
  Basis Set: (AUG-CC-PVTZ AUX)
    Blend: AUG-CC-PVTZ-JKFIT
	 Reference Energy          =   -2612.0923391039964372 [Eh]
	 Singles Energy            =      -0.0000000000000000 [Eh]
	 Same-Spin Energy          =      -0.1267330919841545 [Eh]
	 Opposite-Spin Energy      =      -0.3645625811927698 [Eh]
	 Correlation Energy        =      -0.4912956731769243 [Eh]
	 Total Energy              =   -2612.5836347771733017 [Eh]

	 ================> DF-SCS-MP2 Energies <==================
	-----------------------------------------------------------
	 SCS Same-Spin Scale       =       0.3333333333333333 [-]
	 SCS Opposite-Spin Scale   =       1.2000000000000000 [-]
	 SCS Same-Spin Energy      =      -0.0422443639947182 [Eh]
	 SCS Opposite-Spin Energy  =      -0.4374750974313237 [Eh]
	 SCS Correlation Energy    =      -0.4797194614260419 [Eh]
	 SCS Total Energy          =   -2612.5720585654225943 [Eh]
	-----------------------------------------------------------

  Dipole Moment: [D]
     X:     1.8425      Y:    -0.0000      Z:     0.0000     Total:     1.8425

*** Psi4 exiting successfully. Buy a developer a beer!
