                               Psi4 1.3.2 release

  ==> Input File <==

--------------------------------------------------------------------------
#psi4
#
memory 32 gb

molecule  {
0 1
 Br        0.4169686    -0.0896280    -0.1023898
  C       -1.5290100     0.0000350    -0.0000220
  H       -1.8619780     1.0154290    -0.2007900
  H       -1.8620740    -0.6817160    -0.7788800
  H       -1.8621150    -0.3338450     0.9797570
units angstrom
no_reorient  #important for SAPT in psi4, default
symmetry c1  #important for SAPT in psi4, default
}

set PROPERTIES_ORIGIN ["COM"]
properties('MP2/aug-cc-pvtz', properties = ['dipole'])
--------------------------------------------------------------------------

    Molecular point group: c1
  Charge       = 0
  Multiplicity = 1
  Basis Set: AUG-CC-PVTZ
    Blend: AUG-CC-PVTZ
  Basis Set: (AUG-CC-PVTZ AUX)
    Blend: AUG-CC-PVTZ-JKFIT

    Orbital Energies [Eh]
    ---------------------

    Doubly Occupied:

       1A   -490.013382     2A    -65.153253     3A    -58.508555
       4A    -58.507169     5A    -58.507160     6A    -11.291187
       7A     -9.826058     8A     -7.437588     9A     -7.430920
      10A     -7.430884    11A     -3.181170    12A     -3.177747
      13A     -3.177709    14A     -3.169127    15A     -3.169127
      16A     -1.058795    17A     -0.897889    18A     -0.612130
      19A     -0.611213    20A     -0.503495    21A     -0.402526
      22A     -0.401248

  @DF-RHF Final Energy: -2612.09215944411926

   => Energetics <=

    Nuclear Repulsion Energy =             88.7865209086806999
    One-Electron Energy =               -3812.8206988989945785
    Two-Electron Energy =                1111.9420185461945039
    Total Energy =                      -2612.0921594441192610
  Basis Set: (AUG-CC-PVTZ AUX)
    Blend: AUG-CC-PVTZ-RI
    Molecular point group: c1

    Geometry (in Angstrom), charge = 0, multiplicity = 1:

       Center              X                  Y                   Z               Mass
    ------------   -----------------  -----------------  -----------------  -----------------
         BR           0.321926045995    -0.014336651108    -0.016372627343    78.918337600000
         C           -1.624052554005     0.075326348892     0.085995172657    12.000000000000
         H           -1.957020554005     1.090720348892    -0.114772827343     1.007825032230
         H           -1.957116554005    -0.606424651108    -0.692862827343     1.007825032230
         H           -1.957157554005    -0.258553651108     1.065774172657     1.007825032230

  Basis Set: AUG-CC-PVTZ
    Blend: AUG-CC-PVTZ
  Basis Set: (AUG-CC-PVTZ AUX)
    Blend: AUG-CC-PVTZ-JKFIT
	 Reference Energy          =   -2612.0921594441192610 [Eh]
	 Singles Energy            =      -0.0000000000000000 [Eh]
	 Same-Spin Energy          =      -0.1265525059381482 [Eh]
	 Opposite-Spin Energy      =      -0.3643807537704069 [Eh]
	 Correlation Energy        =      -0.4909332597085551 [Eh]
	 Total Energy              =   -2612.5830927038277878 [Eh]

	 ================> DF-SCS-MP2 Energies <==================
	-----------------------------------------------------------
	 SCS Same-Spin Scale       =       0.3333333333333333 [-]
	 SCS Opposite-Spin Scale   =       1.2000000000000000 [-]
	 SCS Same-Spin Energy      =      -0.0421841686460494 [Eh]
	 SCS Opposite-Spin Energy  =      -0.4372569045244883 [Eh]
	 SCS Correlation Energy    =      -0.4794410731705377 [Eh]
	 SCS Total Energy          =   -2612.5716005172898804 [Eh]
	-----------------------------------------------------------

  Dipole Moment: [D]
     X:    -1.8867      Y:     0.0667      Z:     0.0762     Total:     1.8894

*** Psi4 exiting successfully. Buy a developer a beer!
