                               Psi4 1.4a3.dev225

  ==> Input File <==

--------------------------------------------------------------------------
#psi4
#
memory 32 gb

molecule  {
0 1
 Br       -0.4217890     0.0000000     0.0000000
  C        1.5494650     0.0000020    -0.0000020
  H        1.8619480    -0.2218960     1.0109140
  H        1.8619430    -0.7645390    -0.6976170
  H        1.8619410     0.9864280    -0.3132880
units angstrom
no_reorient  #important for SAPT in psi4, default
symmetry c1  #important for SAPT in psi4, default
}

set PROPERTIES_ORIGIN ["COM"]
properties('MP2/aug-cc-pvtz', properties = ['dipole'])
--------------------------------------------------------------------------

    Molecular point group: c1
  Charge       = 0
  Multiplicity = 1
  Basis Set: AUG-CC-PVTZ
    Blend: AUG-CC-PVTZ
  Basis Set: (AUG-CC-PVTZ AUX)
    Blend: AUG-CC-PVTZ-JKFIT

    Orbital Energies [Eh]
    ---------------------

    Doubly Occupied:

       1A   -490.012115     2A    -65.151915     3A    -58.507221
       4A    -58.505832     5A    -58.505832     6A    -11.291926
       7A     -9.824601     8A     -7.436068     9A     -7.429455
      10A     -7.429455    11A     -3.179620    12A     -3.176246
      13A     -3.176246    14A     -3.167709    15A     -3.167709
      16A     -1.055686    17A     -0.900188    18A     -0.615619
      19A     -0.615615    20A     -0.498075    21A     -0.401585
      22A     -0.401584

  @DF-RHF Final Energy: -2612.09274626612205

   => Energetics <=

    Nuclear Repulsion Energy =             88.2305025426964562
    One-Electron Energy =               -3811.7458949007036608
    Two-Electron Energy =                1111.4226460918853263
    Total Energy =                      -2612.0927462661220488
  Basis Set: (AUG-CC-PVTZ AUX)
    Blend: AUG-CC-PVTZ-RI
    Molecular point group: c1

    Geometry (in Angstrom), charge = 0, multiplicity = 1:

       Center              X                  Y                   Z               Mass
    ------------   -----------------  -----------------  -----------------  -----------------
         BR          -0.325306239849    -0.000000180380     0.000000158924    78.918337600000
         C            1.645947760151     0.000001819620    -0.000001841076    12.000000000000
         H            1.958430760151    -0.221896180380     1.010914158924     1.007825032230
         H            1.958425760151    -0.764539180380    -0.697616841076     1.007825032230
         H            1.958423760151     0.986427819620    -0.313287841076     1.007825032230

  Basis Set: AUG-CC-PVTZ
    Blend: AUG-CC-PVTZ
  Basis Set: (AUG-CC-PVTZ AUX)
    Blend: AUG-CC-PVTZ-JKFIT
	 Reference Energy          =   -2612.0927462661220488 [Eh]
	 Singles Energy            =      -0.0000000000000000 [Eh]
	 Same-Spin Energy          =      -0.1263212900186922 [Eh]
	 Opposite-Spin Energy      =      -0.3641033121108248 [Eh]
	 Correlation Energy        =      -0.4904246021295170 [Eh]
	 Total Energy              =   -2612.5831708682517274 [Eh]

	 ================> DF-SCS-MP2 Energies <==================
	-----------------------------------------------------------
	 SCS Same-Spin Scale       =       0.3333333333333333 [-]
	 SCS Opposite-Spin Scale   =       1.2000000000000000 [-]
	 SCS Same-Spin Energy      =      -0.0421070966728974 [Eh]
	 SCS Opposite-Spin Energy  =      -0.4369239745329897 [Eh]
	 SCS Correlation Energy    =      -0.4790310712058871 [Eh]
	 SCS Total Energy          =   -2612.5717773373280579 [Eh]
	-----------------------------------------------------------

  Dipole Moment: [D]
     X:     1.9419      Y:    -0.0000      Z:     0.0000     Total:     1.9419

*** Psi4 exiting successfully. Buy a developer a beer!
