                               Psi4 1.4a3.dev225

  ==> Input File <==

--------------------------------------------------------------------------
#psi4
#
memory 32 gb

molecule  {
0 1
 Br       -0.4217890     0.0000000     0.0000000
  C        1.5794650     0.0000021    -0.0000021
  H        1.8619480    -0.2218960     1.0109140
  H        1.8619430    -0.7645390    -0.6976170
  H        1.8619410     0.9864280    -0.3132880
units angstrom
no_reorient  #important for SAPT in psi4, default
symmetry c1  #important for SAPT in psi4, default
}

set PROPERTIES_ORIGIN ["COM"]
properties('MP2/aug-cc-pvtz', properties = ['dipole'])
--------------------------------------------------------------------------

    Molecular point group: c1
  Charge       = 0
  Multiplicity = 1
  Basis Set: AUG-CC-PVTZ
    Blend: AUG-CC-PVTZ
  Basis Set: (AUG-CC-PVTZ AUX)
    Blend: AUG-CC-PVTZ-JKFIT

    Orbital Energies [Eh]
    ---------------------

    Doubly Occupied:

       1A   -490.010246     2A    -65.149962     3A    -58.505271
       4A    -58.503883     5A    -58.503883     6A    -11.293318
       7A     -9.822501     8A     -7.433885     9A     -7.427366
      10A     -7.427366    11A     -3.177394    12A     -3.174111
      13A     -3.174111    14A     -3.165660    15A     -3.165660
      16A     -1.051765    17A     -0.903209    18A     -0.621561
      19A     -0.621557    20A     -0.489795    21A     -0.400878
      22A     -0.400878

  @DF-RHF Final Energy: -2612.09186051987035

   => Energetics <=

    Nuclear Repulsion Energy =             87.4534750886500660
    One-Electron Energy =               -3810.2421528064905942
    Two-Electron Energy =                1110.6968171979701765
    Total Energy =                      -2612.0918605198703517
  Basis Set: (AUG-CC-PVTZ AUX)
    Blend: AUG-CC-PVTZ-RI
    Molecular point group: c1

    Geometry (in Angstrom), charge = 0, multiplicity = 1:

       Center              X                  Y                   Z               Mass
    ------------   -----------------  -----------------  -----------------  -----------------
         BR          -0.329138399243    -0.000000193154     0.000000171698    78.918337600000
         C            1.672115600757     0.000001906846    -0.000001928302    12.000000000000
         H            1.954598600757    -0.221896193154     1.010914171698     1.007825032230
         H            1.954593600757    -0.764539193154    -0.697616828302     1.007825032230
         H            1.954591600757     0.986427806846    -0.313287828302     1.007825032230

  Basis Set: AUG-CC-PVTZ
    Blend: AUG-CC-PVTZ
  Basis Set: (AUG-CC-PVTZ AUX)
    Blend: AUG-CC-PVTZ-JKFIT
	 Reference Energy          =   -2612.0918605198703517 [Eh]
	 Singles Energy            =      -0.0000000000000000 [Eh]
	 Same-Spin Energy          =      -0.1260470782126704 [Eh]
	 Opposite-Spin Energy      =      -0.3638082347581310 [Eh]
	 Correlation Energy        =      -0.4898553129708013 [Eh]
	 Total Energy              =   -2612.5817158328409278 [Eh]

	 ================> DF-SCS-MP2 Energies <==================
	-----------------------------------------------------------
	 SCS Same-Spin Scale       =       0.3333333333333333 [-]
	 SCS Opposite-Spin Scale   =       1.2000000000000000 [-]
	 SCS Same-Spin Energy      =      -0.0420156927375568 [Eh]
	 SCS Opposite-Spin Energy  =      -0.4365698817097571 [Eh]
	 SCS Correlation Energy    =      -0.4785855744473139 [Eh]
	 SCS Total Energy          =   -2612.5704460943175036 [Eh]
	-----------------------------------------------------------

  Dipole Moment: [D]
     X:     2.0168      Y:    -0.0000      Z:     0.0000     Total:     2.0168

*** Psi4 exiting successfully. Buy a developer a beer!
