                               Psi4 1.3.2 release

  ==> Input File <==

--------------------------------------------------------------------------
#psi4
#
memory 32 gb

molecule  {
0 1
 Br        0.4217210    -0.0000020     0.0000010
  C       -1.7290100     0.0000388    -0.0000244
  H       -1.8619780     1.0154290    -0.2007900
  H       -1.8620740    -0.6817160    -0.7788800
  H       -1.8621150    -0.3338450     0.9797570
units angstrom
no_reorient  #important for SAPT in psi4, default
symmetry c1  #important for SAPT in psi4, default
}

set PROPERTIES_ORIGIN ["COM"]
properties('MP2/aug-cc-pvtz', properties = ['dipole'])
--------------------------------------------------------------------------

    Molecular point group: c1
  Charge       = 0
  Multiplicity = 1
  Basis Set: AUG-CC-PVTZ
    Blend: AUG-CC-PVTZ
  Basis Set: (AUG-CC-PVTZ AUX)
    Blend: AUG-CC-PVTZ-JKFIT

    Orbital Energies [Eh]
    ---------------------

    Doubly Occupied:

       1A   -489.999890     2A    -65.139393     3A    -58.494676
       4A    -58.493337     5A    -58.493337     6A    -11.305288
       7A     -9.811499     8A     -7.422508     9A     -7.416449
      10A     -7.416449    11A     -3.165789    12A     -3.162907
      13A     -3.162907    14A     -3.154980    15A     -3.154980
      16A     -1.038783    17A     -0.913976    18A     -0.649320
      19A     -0.649247    20A     -0.451478    21A     -0.395174
      22A     -0.395171

  @DF-RHF Final Energy: -2612.07650462520451

   => Energetics <=

    Nuclear Repulsion Energy =             83.8421706859772939
    One-Electron Energy =               -3803.2622756166633735
    Two-Electron Energy =                1107.3436003054816865
    Total Energy =                      -2612.0765046252045067
  Basis Set: (AUG-CC-PVTZ AUX)
    Blend: AUG-CC-PVTZ-RI
    Molecular point group: c1

    Geometry (in Angstrom), charge = 0, multiplicity = 1:

       Center              X                  Y                   Z               Mass
    ------------   -----------------  -----------------  -----------------  -----------------
         BR           0.348233794292    -0.000003859986     0.000002343394    78.918337600000
         C           -1.802497205708     0.000036940014    -0.000023056606    12.000000000000
         H           -1.935465205708     1.015427140014    -0.200788656606     1.007825032230
         H           -1.935561205708    -0.681717859986    -0.778878656606     1.007825032230
         H           -1.935602205708    -0.333846859986     0.979758343394     1.007825032230

  Basis Set: AUG-CC-PVTZ
    Blend: AUG-CC-PVTZ
  Basis Set: (AUG-CC-PVTZ AUX)
    Blend: AUG-CC-PVTZ-JKFIT
	 Reference Energy          =   -2612.0765046252045067 [Eh]
	 Singles Energy            =      -0.0000000000000000 [Eh]
	 Same-Spin Energy          =      -0.1250076669898751 [Eh]
	 Opposite-Spin Energy      =      -0.3628400866529679 [Eh]
	 Correlation Energy        =      -0.4878477536428429 [Eh]
	 Total Energy              =   -2612.5643523788471612 [Eh]

	 ================> DF-SCS-MP2 Energies <==================
	-----------------------------------------------------------
	 SCS Same-Spin Scale       =       0.3333333333333333 [-]
	 SCS Opposite-Spin Scale   =       1.2000000000000000 [-]
	 SCS Same-Spin Energy      =      -0.0416692223299584 [Eh]
	 SCS Opposite-Spin Energy  =      -0.4354081039835614 [Eh]
	 SCS Correlation Energy    =      -0.4770773263135197 [Eh]
	 SCS Total Energy          =   -2612.5535819515180265 [Eh]
	-----------------------------------------------------------

  Dipole Moment: [D]
     X:    -2.3662      Y:    -0.0000      Z:     0.0000     Total:     2.3662

*** Psi4 exiting successfully. Buy a developer a beer!
