                               Psi4 1.3.2 release

  ==> Input File <==

--------------------------------------------------------------------------
#psi4
#
memory 32 gb

molecule  {
0 1
 Br        0.4110354     0.1343009     0.1534311
  C       -1.5290100     0.0000350    -0.0000220
  H       -1.8619780     1.0154290    -0.2007900
  H       -1.8620740    -0.6817160    -0.7788800
  H       -1.8621150    -0.3338450     0.9797570
units angstrom
no_reorient  #important for SAPT in psi4, default
symmetry c1  #important for SAPT in psi4, default
}

set PROPERTIES_ORIGIN ["COM"]
properties('MP2/aug-cc-pvtz', properties = ['dipole'])
--------------------------------------------------------------------------

    Molecular point group: c1
  Charge       = 0
  Multiplicity = 1
  Basis Set: AUG-CC-PVTZ
    Blend: AUG-CC-PVTZ
  Basis Set: (AUG-CC-PVTZ AUX)
    Blend: AUG-CC-PVTZ-JKFIT

    Orbital Energies [Eh]
    ---------------------

    Doubly Occupied:

       1A   -490.013430     2A    -65.153303     3A    -58.508606
       4A    -58.507218     5A    -58.507206     6A    -11.291153
       7A     -9.826112     8A     -7.437648     9A     -7.430977
      10A     -7.430926    11A     -3.181231    12A     -3.177814
      13A     -3.177760    14A     -3.169172    15A     -3.169171
      16A     -1.058964    17A     -0.897828    18A     -0.612184
      19A     -0.611463    20A     -0.503101    21A     -0.402496
      22A     -0.401137

  @DF-RHF Final Energy: -2612.09141246153013

   => Energetics <=

    Nuclear Repulsion Energy =             88.8032736159665887
    One-Electron Energy =               -3812.8515756999936457
    Two-Electron Energy =                1111.9568896224968739
    Total Energy =                      -2612.0914124615301262
  Basis Set: (AUG-CC-PVTZ AUX)
    Blend: AUG-CC-PVTZ-RI
    Molecular point group: c1

    Geometry (in Angstrom), charge = 0, multiplicity = 1:

       Center              X                  Y                   Z               Mass
    ------------   -----------------  -----------------  -----------------  -----------------
         BR           0.320977189677     0.021474774667     0.024539069057    78.918337600000
         C           -1.619068210323    -0.112791125333    -0.128914030943    12.000000000000
         H           -1.952036210323     0.902602874667    -0.329682030943     1.007825032230
         H           -1.952132210323    -0.794542125333    -0.907772030943     1.007825032230
         H           -1.952173210323    -0.446671125333     0.850864969057     1.007825032230

  Basis Set: AUG-CC-PVTZ
    Blend: AUG-CC-PVTZ
  Basis Set: (AUG-CC-PVTZ AUX)
    Blend: AUG-CC-PVTZ-JKFIT
	 Reference Energy          =   -2612.0914124615301262 [Eh]
	 Singles Energy            =      -0.0000000000000000 [Eh]
	 Same-Spin Energy          =      -0.1265830235622323 [Eh]
	 Opposite-Spin Energy      =      -0.3644406528741587 [Eh]
	 Correlation Energy        =      -0.4910236764363911 [Eh]
	 Total Energy              =   -2612.5824361379663969 [Eh]

	 ================> DF-SCS-MP2 Energies <==================
	-----------------------------------------------------------
	 SCS Same-Spin Scale       =       0.3333333333333333 [-]
	 SCS Opposite-Spin Scale   =       1.2000000000000000 [-]
	 SCS Same-Spin Energy      =      -0.0421943411874108 [Eh]
	 SCS Opposite-Spin Energy  =      -0.4373287834489905 [Eh]
	 SCS Correlation Energy    =      -0.4795231246364012 [Eh]
	 SCS Total Energy          =   -2612.5709355861663425 [Eh]
	-----------------------------------------------------------

  Dipole Moment: [D]
     X:    -1.8822      Y:    -0.1001      Z:    -0.1143     Total:     1.8883

*** Psi4 exiting successfully. Buy a developer a beer!
