                               Psi4 1.3.2 release

  ==> Input File <==

--------------------------------------------------------------------------
#psi4
#
memory 32 gb

molecule  {
0 1
 Br        0.4110340    -0.1343044    -0.1534293
  C       -1.5290100     0.0000350    -0.0000220
  H       -1.8619780     1.0154290    -0.2007900
  H       -1.8620740    -0.6817160    -0.7788800
  H       -1.8621150    -0.3338450     0.9797570
units angstrom
no_reorient  #important for SAPT in psi4, default
symmetry c1  #important for SAPT in psi4, default
}

set PROPERTIES_ORIGIN ["COM"]
properties('MP2/aug-cc-pvtz', properties = ['dipole'])
--------------------------------------------------------------------------

    Molecular point group: c1
  Charge       = 0
  Multiplicity = 1
  Basis Set: AUG-CC-PVTZ
    Blend: AUG-CC-PVTZ
  Basis Set: (AUG-CC-PVTZ AUX)
    Blend: AUG-CC-PVTZ-JKFIT

    Orbital Energies [Eh]
    ---------------------

    Doubly Occupied:

       1A   -490.013446     2A    -65.153319     3A    -58.508622
       4A    -58.507235     5A    -58.507222     6A    -11.291136
       7A     -9.826129     8A     -7.437665     9A     -7.430995
      10A     -7.430941    11A     -3.181248    12A     -3.177832
      13A     -3.177775    14A     -3.169188    15A     -3.169188
      16A     -1.058989    17A     -0.897824    18A     -0.612584
      19A     -0.611058    20A     -0.503119    21A     -0.402836
      22A     -0.400795

  @DF-RHF Final Energy: -2612.09138496546984

   => Energetics <=

    Nuclear Repulsion Energy =             88.8043351768391460
    One-Electron Energy =               -3812.8531471471178520
    Two-Electron Energy =                1111.9574270048085509
    Total Energy =                      -2612.0913849654698424
  Basis Set: (AUG-CC-PVTZ AUX)
    Blend: AUG-CC-PVTZ-RI
    Molecular point group: c1

    Geometry (in Angstrom), charge = 0, multiplicity = 1:

       Center              X                  Y                   Z               Mass
    ------------   -----------------  -----------------  -----------------  -----------------
         BR           0.320976965785    -0.021481443863    -0.024535027399    78.918337600000
         C           -1.619067034215     0.112857956137     0.128872272601    12.000000000000
         H           -1.952035034215     1.128251956137    -0.071895727399     1.007825032230
         H           -1.952131034215    -0.568893043863    -0.649985727399     1.007825032230
         H           -1.952172034215    -0.221022043863     1.108651272601     1.007825032230

  Basis Set: AUG-CC-PVTZ
    Blend: AUG-CC-PVTZ
  Basis Set: (AUG-CC-PVTZ AUX)
    Blend: AUG-CC-PVTZ-JKFIT
	 Reference Energy          =   -2612.0913849654698424 [Eh]
	 Singles Energy            =      -0.0000000000000000 [Eh]
	 Same-Spin Energy          =      -0.1265870828497619 [Eh]
	 Opposite-Spin Energy      =      -0.3644441886270134 [Eh]
	 Correlation Energy        =      -0.4910312714767753 [Eh]
	 Total Energy              =   -2612.5824162369467558 [Eh]

	 ================> DF-SCS-MP2 Energies <==================
	-----------------------------------------------------------
	 SCS Same-Spin Scale       =       0.3333333333333333 [-]
	 SCS Opposite-Spin Scale   =       1.2000000000000000 [-]
	 SCS Same-Spin Energy      =      -0.0421956942832540 [Eh]
	 SCS Opposite-Spin Energy  =      -0.4373330263524161 [Eh]
	 SCS Correlation Energy    =      -0.4795287206356700 [Eh]
	 SCS Total Energy          =   -2612.5709136861055413 [Eh]
	-----------------------------------------------------------

  Dipole Moment: [D]
     X:    -1.8817      Y:     0.0998      Z:     0.1141     Total:     1.8878

*** Psi4 exiting successfully. Buy a developer a beer!
