                               Psi4 1.3.2 release

  ==> Input File <==

--------------------------------------------------------------------------
#psi4
#
memory 32 gb

molecule  {
0 1
 Br        0.4217210    -0.0000020     0.0000010
  C       -1.6290100     0.0000369    -0.0000232
  H       -1.8619780     1.0154290    -0.2007900
  H       -1.8620740    -0.6817160    -0.7788800
  H       -1.8621150    -0.3338450     0.9797570
units angstrom
no_reorient  #important for SAPT in psi4, default
symmetry c1  #important for SAPT in psi4, default
}

set PROPERTIES_ORIGIN ["COM"]
properties('MP2/aug-cc-pvtz', properties = ['dipole'])
--------------------------------------------------------------------------

    Molecular point group: c1
  Charge       = 0
  Multiplicity = 1
  Basis Set: AUG-CC-PVTZ
    Blend: AUG-CC-PVTZ
  Basis Set: (AUG-CC-PVTZ AUX)
    Blend: AUG-CC-PVTZ-JKFIT

    Orbital Energies [Eh]
    ---------------------

    Doubly Occupied:

       1A   -490.006966     2A    -65.146577     3A    -58.501884
       4A    -58.500506     5A    -58.500506     6A    -11.296436
       7A     -9.818925     8A     -7.430177     9A     -7.423811
      10A     -7.423811    11A     -3.173612    12A     -3.170472
      13A     -3.170472    14A     -3.162178    15A     -3.162178
      16A     -1.046313    17A     -0.907554    18A     -0.631284
      19A     -0.631212    20A     -0.476480    21A     -0.399322
      22A     -0.399318

  @DF-RHF Final Energy: -2612.08852843400746

   => Energetics <=

    Nuclear Repulsion Energy =             86.2120949213954333
    One-Electron Energy =               -3807.8412623289050316
    Two-Electron Energy =                1109.5406389735017001
    Total Energy =                      -2612.0885284340079124
  Basis Set: (AUG-CC-PVTZ AUX)
    Blend: AUG-CC-PVTZ-RI
    Molecular point group: c1

    Geometry (in Angstrom), charge = 0, multiplicity = 1:

       Center              X                  Y                   Z               Mass
    ------------   -----------------  -----------------  -----------------  -----------------
         BR           0.335459929646    -0.000003617282     0.000002190108    78.918337600000
         C           -1.715271070354     0.000035282718    -0.000022009892    12.000000000000
         H           -1.948239070354     1.015427382718    -0.200788809892     1.007825032230
         H           -1.948335070354    -0.681717617282    -0.778878809892     1.007825032230
         H           -1.948376070354    -0.333846617282     0.979758190108     1.007825032230

  Basis Set: AUG-CC-PVTZ
    Blend: AUG-CC-PVTZ
  Basis Set: (AUG-CC-PVTZ AUX)
    Blend: AUG-CC-PVTZ-JKFIT
	 Reference Energy          =   -2612.0885284340074577 [Eh]
	 Singles Energy            =      -0.0000000000000000 [Eh]
	 Same-Spin Energy          =      -0.1256488774182654 [Eh]
	 Opposite-Spin Energy      =      -0.3634016980380053 [Eh]
	 Correlation Energy        =      -0.4890505754562707 [Eh]
	 Total Energy              =   -2612.5775790094635340 [Eh]

	 ================> DF-SCS-MP2 Energies <==================
	-----------------------------------------------------------
	 SCS Same-Spin Scale       =       0.3333333333333333 [-]
	 SCS Opposite-Spin Scale   =       1.2000000000000000 [-]
	 SCS Same-Spin Energy      =      -0.0418829591394218 [Eh]
	 SCS Opposite-Spin Energy  =      -0.4360820376456063 [Eh]
	 SCS Correlation Energy    =      -0.4779649967850281 [Eh]
	 SCS Total Energy          =   -2612.5664934307924341 [Eh]
	-----------------------------------------------------------

  Dipole Moment: [D]
     X:    -2.1390      Y:    -0.0000      Z:     0.0000     Total:     2.1390

*** Psi4 exiting successfully. Buy a developer a beer!
