                               Psi4 1.3.2 release

  ==> Input File <==

--------------------------------------------------------------------------
#psi4
#
memory 32 gb

molecule  {
0 1
 Br        0.4217210    -0.0000020     0.0000010
  C       -1.3290100     0.0000312    -0.0000196
  H       -1.8619780     1.0154290    -0.2007900
  H       -1.8620740    -0.6817160    -0.7788800
  H       -1.8621150    -0.3338450     0.9797570
units angstrom
no_reorient  #important for SAPT in psi4, default
symmetry c1  #important for SAPT in psi4, default
}

set PROPERTIES_ORIGIN ["COM"]
properties('MP2/aug-cc-pvtz', properties = ['dipole'])
--------------------------------------------------------------------------

    Molecular point group: c1
  Charge       = 0
  Multiplicity = 1
  Basis Set: AUG-CC-PVTZ
    Blend: AUG-CC-PVTZ
  Basis Set: (AUG-CC-PVTZ AUX)
    Blend: AUG-CC-PVTZ-JKFIT

    Orbital Energies [Eh]
    ---------------------

    Doubly Occupied:

       1A   -490.022374     2A    -65.163470     3A    -58.518609
       4A    -58.517337     5A    -58.517337     6A    -11.293142
       7A     -9.838226     8A     -7.450453     9A     -7.443080
      10A     -7.443080    11A     -3.194273    12A     -3.190038
      13A     -3.190038    14A     -3.181183    15A     -3.181183
      16A     -1.101442    17A     -0.870543    18A     -0.579146
      19A     -0.579092    20A     -0.559155    21A     -0.398059
      22A     -0.398046

  @DF-RHF Final Energy: -2612.05981298215784

   => Energetics <=

    Nuclear Repulsion Energy =             94.7013793838564339
    One-Electron Energy =               -3824.2637739361352942
    Two-Electron Energy =                1117.5025815701208103
    Total Energy =                      -2612.0598129821582916
  Basis Set: (AUG-CC-PVTZ AUX)
    Blend: AUG-CC-PVTZ-RI
    Molecular point group: c1

    Geometry (in Angstrom), charge = 0, multiplicity = 1:

       Center              X                  Y                   Z               Mass
    ------------   -----------------  -----------------  -----------------  -----------------
         BR           0.297138335708    -0.000002889172     0.000001730249    78.918337600000
         C           -1.453592664292     0.000030310828    -0.000018869751    12.000000000000
         H           -1.986560664292     1.015428110828    -0.200789269751     1.007825032230
         H           -1.986656664292    -0.681716889172    -0.778879269751     1.007825032230
         H           -1.986697664292    -0.333845889172     0.979757730249     1.007825032230

  Basis Set: AUG-CC-PVTZ
    Blend: AUG-CC-PVTZ
  Basis Set: (AUG-CC-PVTZ AUX)
    Blend: AUG-CC-PVTZ-JKFIT
	 Reference Energy          =   -2612.0598129821578368 [Eh]
	 Singles Energy            =      -0.0000000000000000 [Eh]
	 Same-Spin Energy          =      -0.1295487040935586 [Eh]
	 Opposite-Spin Energy      =      -0.3680302815238642 [Eh]
	 Correlation Energy        =      -0.4975789856174229 [Eh]
	 Total Energy              =   -2612.5573919677754020 [Eh]

	 ================> DF-SCS-MP2 Energies <==================
	-----------------------------------------------------------
	 SCS Same-Spin Scale       =       0.3333333333333333 [-]
	 SCS Opposite-Spin Scale   =       1.2000000000000000 [-]
	 SCS Same-Spin Energy      =      -0.0431829013645195 [Eh]
	 SCS Opposite-Spin Energy  =      -0.4416363378286370 [Eh]
	 SCS Correlation Energy    =      -0.4848192391931566 [Eh]
	 SCS Total Energy          =   -2612.5446322213510939 [Eh]
	-----------------------------------------------------------

  Dipole Moment: [D]
     X:    -1.4082      Y:    -0.0000      Z:     0.0000     Total:     1.4082

*** Psi4 exiting successfully. Buy a developer a beer!
