                               Psi4 1.3.2 release

  ==> Input File <==

--------------------------------------------------------------------------
#psi4
#
memory 32 gb

molecule  {
0 1
 Br        0.4217210    -0.0000020     0.0000010
  C       -1.5290100     0.0000350    -0.0000220
  H       -1.8619780     1.0154290    -0.2007900
  H       -1.8620740    -0.6817160    -0.7788800
  H       -1.8621150    -0.3338450     0.9797570
units angstrom
no_reorient  #important for SAPT in psi4, default
symmetry c1  #important for SAPT in psi4, default
}

set PROPERTIES_ORIGIN ["COM"]
properties('MP2/aug-cc-pvtz', properties = ['dipole'])
--------------------------------------------------------------------------

    Molecular point group: c1
  Charge       = 0
  Multiplicity = 1
  Basis Set: AUG-CC-PVTZ
    Blend: AUG-CC-PVTZ
  Basis Set: (AUG-CC-PVTZ AUX)
    Blend: AUG-CC-PVTZ-JKFIT

    Orbital Energies [Eh]
    ---------------------

    Doubly Occupied:

       1A   -490.013335     2A    -65.153203     3A    -58.508504
       4A    -58.507116     5A    -58.507116     6A    -11.291225
       7A     -9.826003     8A     -7.437529     9A     -7.430852
      10A     -7.430852    11A     -3.181110    12A     -3.177671
      13A     -3.177671    14A     -3.169081    15A     -3.169081
      16A     -1.058644    17A     -0.897940    18A     -0.611585
      19A     -0.611516    20A     -0.503802    21A     -0.401946
      22A     -0.401941

  @DF-RHF Final Energy: -2612.09277440549340

   => Energetics <=

    Nuclear Repulsion Energy =             88.7724198749498186
    One-Electron Energy =               -3812.7949425159072234
    Two-Electron Energy =                1111.9297482354643307
    Total Energy =                      -2612.0927744054934010
  Basis Set: (AUG-CC-PVTZ AUX)
    Blend: AUG-CC-PVTZ-RI
    Molecular point group: c1

    Geometry (in Angstrom), charge = 0, multiplicity = 1:

       Center              X                  Y                   Z               Mass
    ------------   -----------------  -----------------  -----------------  -----------------
         BR           0.322686065000    -0.000003374579     0.000002036821    78.918337600000
         C           -1.628044935000     0.000033625421    -0.000020963179    12.000000000000
         H           -1.961012935000     1.015427625421    -0.200788963179     1.007825032230
         H           -1.961108935000    -0.681717374579    -0.778878963179     1.007825032230
         H           -1.961149935000    -0.333846374579     0.979758036821     1.007825032230

  Basis Set: AUG-CC-PVTZ
    Blend: AUG-CC-PVTZ
  Basis Set: (AUG-CC-PVTZ AUX)
    Blend: AUG-CC-PVTZ-JKFIT
	 Reference Energy          =   -2612.0927744054934010 [Eh]
	 Singles Energy            =      -0.0000000000000000 [Eh]
	 Same-Spin Energy          =      -0.1265255980879908 [Eh]
	 Opposite-Spin Energy      =      -0.3643308914495930 [Eh]
	 Correlation Energy        =      -0.4908564895375838 [Eh]
	 Total Energy              =   -2612.5836308950310922 [Eh]

	 ================> DF-SCS-MP2 Energies <==================
	-----------------------------------------------------------
	 SCS Same-Spin Scale       =       0.3333333333333333 [-]
	 SCS Opposite-Spin Scale   =       1.2000000000000000 [-]
	 SCS Same-Spin Energy      =      -0.0421751993626636 [Eh]
	 SCS Opposite-Spin Energy  =      -0.4371970697395116 [Eh]
	 SCS Correlation Energy    =      -0.4793722691021751 [Eh]
	 SCS Total Energy          =   -2612.5721466745953876 [Eh]
	-----------------------------------------------------------

  Dipole Moment: [D]
     X:    -1.8907      Y:    -0.0000      Z:     0.0000     Total:     1.8907

*** Psi4 exiting successfully. Buy a developer a beer!
