                               Psi4 1.3.2 release

  ==> Input File <==

--------------------------------------------------------------------------
#psi4
#
memory 32 gb

molecule  {
0 1
 Br       -0.4217890     0.0000000     0.0000000
  C        1.4794650     0.0000019    -0.0000019
  H        1.8619480    -0.2218960     1.0109140
  H        1.8619430    -0.7645390    -0.6976170
  H        1.8619410     0.9864280    -0.3132880
units angstrom
no_reorient  #important for SAPT in psi4, default
symmetry c1  #important for SAPT in psi4, default
}

set PROPERTIES_ORIGIN ["COM"]
properties('MP2/aug-cc-pvtz', properties = ['dipole'])
--------------------------------------------------------------------------

    Molecular point group: c1
  Charge       = 0
  Multiplicity = 1
  Basis Set: AUG-CC-PVTZ
    Blend: AUG-CC-PVTZ
  Basis Set: (AUG-CC-PVTZ AUX)
    Blend: AUG-CC-PVTZ-JKFIT

    Orbital Energies [Eh]
    ---------------------

    Doubly Occupied:

       1A   -490.016044     2A    -65.156114     3A    -58.511397
       4A    -58.510018     5A    -58.510018     6A    -11.290149
       7A     -9.829247     8A     -7.440922     9A     -7.434088
      10A     -7.434088    11A     -3.184568    12A     -3.180963
      13A     -3.180963    14A     -3.172267    15A     -3.172267
      16A     -1.066834    17A     -0.892121    18A     -0.602152
      19A     -0.602147    20A     -0.517725    21A     -0.402333
      22A     -0.402332

  @DF-RHF Final Energy: -2612.09067831896573

   => Energetics <=

    Nuclear Repulsion Energy =             90.1282498479386760
    One-Electron Energy =               -3815.4203393926454737
    Two-Electron Energy =                1113.2014112257411398
    Total Energy =                      -2612.0906783189657290
  Basis Set: (AUG-CC-PVTZ AUX)
    Blend: AUG-CC-PVTZ-RI
    Molecular point group: c1

    Geometry (in Angstrom), charge = 0, multiplicity = 1:

       Center              X                  Y                   Z               Mass
    ------------   -----------------  -----------------  -----------------  -----------------
         BR          -0.316364534597    -0.000000167606     0.000000146150    78.918337600000
         C            1.584889465403     0.000001732394    -0.000001753850    12.000000000000
         H            1.967372465403    -0.221896167606     1.010914146150     1.007825032230
         H            1.967367465403    -0.764539167606    -0.697616853850     1.007825032230
         H            1.967365465403     0.986427832394    -0.313287853850     1.007825032230

  Basis Set: AUG-CC-PVTZ
    Blend: AUG-CC-PVTZ
  Basis Set: (AUG-CC-PVTZ AUX)
    Blend: AUG-CC-PVTZ-JKFIT
	 Reference Energy          =   -2612.0906783189657290 [Eh]
	 Singles Energy            =      -0.0000000000000000 [Eh]
	 Same-Spin Energy          =      -0.1270823632937676 [Eh]
	 Opposite-Spin Energy      =      -0.3649645867087435 [Eh]
	 Correlation Energy        =      -0.4920469500025111 [Eh]
	 Total Energy              =   -2612.5827252689682609 [Eh]

	 ================> DF-SCS-MP2 Energies <==================
	-----------------------------------------------------------
	 SCS Same-Spin Scale       =       0.3333333333333333 [-]
	 SCS Opposite-Spin Scale   =       1.2000000000000000 [-]
	 SCS Same-Spin Energy      =      -0.0423607877645892 [Eh]
	 SCS Opposite-Spin Energy  =      -0.4379575040504922 [Eh]
	 SCS Correlation Energy    =      -0.4803182918150814 [Eh]
	 SCS Total Energy          =   -2612.5709966107806395 [Eh]
	-----------------------------------------------------------

  Dipole Moment: [D]
     X:     1.7688      Y:    -0.0000      Z:     0.0000     Total:     1.7688

*** Psi4 exiting successfully. Buy a developer a beer!
