                               Psi4 1.3.2 release

  ==> Input File <==

--------------------------------------------------------------------------
#psi4
#
memory 32 gb

molecule  {
0 1
 Br        0.4205324    -0.0448423    -0.0512256
  C       -1.5290100     0.0000350    -0.0000220
  H       -1.8619780     1.0154290    -0.2007900
  H       -1.8620740    -0.6817160    -0.7788800
  H       -1.8621150    -0.3338450     0.9797570
units angstrom
no_reorient  #important for SAPT in psi4, default
symmetry c1  #important for SAPT in psi4, default
}

set PROPERTIES_ORIGIN ["COM"]
properties('MP2/aug-cc-pvtz', properties = ['dipole'])
--------------------------------------------------------------------------

    Molecular point group: c1
  Charge       = 0
  Multiplicity = 1
  Basis Set: AUG-CC-PVTZ
    Blend: AUG-CC-PVTZ
  Basis Set: (AUG-CC-PVTZ AUX)
    Blend: AUG-CC-PVTZ-JKFIT

    Orbital Energies [Eh]
    ---------------------

    Doubly Occupied:

       1A   -490.013346     2A    -65.153215     3A    -58.508517
       4A    -58.507130     5A    -58.507125     6A    -11.291216
       7A     -9.826017     8A     -7.437543     9A     -7.430873
      10A     -7.430855    11A     -3.181125    12A     -3.177694
      13A     -3.177676    14A     -3.169093    15A     -3.169092
      16A     -1.058681    17A     -0.897927    18A     -0.611785
      19A     -0.611377    20A     -0.503725    21A     -0.402229
      22A     -0.401630

  @DF-RHF Final Energy: -2612.09262129281296

   => Energetics <=

    Nuclear Repulsion Energy =             88.7759256200959044
    One-Electron Energy =               -3812.8013551472513427
    Two-Electron Energy =                1111.9328082343424740
    Total Energy =                      -2612.0926212928125096
  Basis Set: (AUG-CC-PVTZ AUX)
    Blend: AUG-CC-PVTZ-RI
    Molecular point group: c1

    Geometry (in Angstrom), charge = 0, multiplicity = 1:

       Center              X                  Y                   Z               Mass
    ------------   -----------------  -----------------  -----------------  -----------------
         BR           0.322495980287    -0.007174378747    -0.008190284865    78.918337600000
         C           -1.627046419713     0.037702921253     0.043013315135    12.000000000000
         H           -1.960014419713     1.053096921253    -0.157754684865     1.007825032230
         H           -1.960110419713    -0.644048078747    -0.735844684865     1.007825032230
         H           -1.960151419713    -0.296177078747     1.022792315135     1.007825032230

  Basis Set: AUG-CC-PVTZ
    Blend: AUG-CC-PVTZ
  Basis Set: (AUG-CC-PVTZ AUX)
    Blend: AUG-CC-PVTZ-JKFIT
	 Reference Energy          =   -2612.0926212928129644 [Eh]
	 Singles Energy            =      -0.0000000000000000 [Eh]
	 Same-Spin Energy          =      -0.1265322317504082 [Eh]
	 Opposite-Spin Energy      =      -0.3643432566279473 [Eh]
	 Correlation Energy        =      -0.4908754883783555 [Eh]
	 Total Energy              =   -2612.5834967811911156 [Eh]

	 ================> DF-SCS-MP2 Energies <==================
	-----------------------------------------------------------
	 SCS Same-Spin Scale       =       0.3333333333333333 [-]
	 SCS Opposite-Spin Scale   =       1.2000000000000000 [-]
	 SCS Same-Spin Energy      =      -0.0421774105834694 [Eh]
	 SCS Opposite-Spin Energy  =      -0.4372119079535368 [Eh]
	 SCS Correlation Energy    =      -0.4793893185370062 [Eh]
	 SCS Total Energy          =   -2612.5720106113499241 [Eh]
	-----------------------------------------------------------

  Dipole Moment: [D]
     X:    -1.8897      Y:     0.0334      Z:     0.0382     Total:     1.8904

*** Psi4 exiting successfully. Buy a developer a beer!
