                               Psi4 1.3.2 release

  ==> Input File <==

--------------------------------------------------------------------------
#psi4
#
memory 32 gb

molecule  {
0 1
 Br        0.4217210    -0.0000020     0.0000010
  C       -1.4290100     0.0000331    -0.0000208
  H       -1.8619780     1.0154290    -0.2007900
  H       -1.8620740    -0.6817160    -0.7788800
  H       -1.8621150    -0.3338450     0.9797570
units angstrom
no_reorient  #important for SAPT in psi4, default
symmetry c1  #important for SAPT in psi4, default
}

set PROPERTIES_ORIGIN ["COM"]
properties('MP2/aug-cc-pvtz', properties = ['dipole'])
--------------------------------------------------------------------------

    Molecular point group: c1
  Charge       = 0
  Multiplicity = 1
  Basis Set: AUG-CC-PVTZ
    Blend: AUG-CC-PVTZ
  Basis Set: (AUG-CC-PVTZ AUX)
    Blend: AUG-CC-PVTZ-JKFIT

    Orbital Energies [Eh]
    ---------------------

    Doubly Occupied:

       1A   -490.018479     2A    -65.158819     3A    -58.514070
       4A    -58.512713     5A    -58.512713     6A    -11.290185
       7A     -9.832383     8A     -7.444223     9A     -7.437224
      10A     -7.437224    11A     -3.187932    12A     -3.184141
      13A     -3.184141    14A     -3.175363    15A     -3.175363
      16A     -1.076738    17A     -0.885453    18A     -0.593233
      19A     -0.593170    20A     -0.531934    21A     -0.401912
      22A     -0.401904

  @DF-RHF Final Energy: -2612.08484218889498

   => Energetics <=

    Nuclear Repulsion Energy =             91.5797774668385216
    One-Electron Energy =               -3818.2306061116191813
    Two-Electron Energy =                1114.5659864558858771
    Total Energy =                      -2612.0848421888949815
  Basis Set: (AUG-CC-PVTZ AUX)
    Blend: AUG-CC-PVTZ-RI
    Molecular point group: c1

    Geometry (in Angstrom), charge = 0, multiplicity = 1:

       Center              X                  Y                   Z               Mass
    ------------   -----------------  -----------------  -----------------  -----------------
         BR           0.309912200354    -0.000003131875     0.000001883535    78.918337600000
         C           -1.540818799646     0.000031968125    -0.000019916465    12.000000000000
         H           -1.973786799646     1.015427868125    -0.200789116465     1.007825032230
         H           -1.973882799646    -0.681717131875    -0.778879116465     1.007825032230
         H           -1.973923799646    -0.333846131875     0.979757883535     1.007825032230

  Basis Set: AUG-CC-PVTZ
    Blend: AUG-CC-PVTZ
  Basis Set: (AUG-CC-PVTZ AUX)
    Blend: AUG-CC-PVTZ-JKFIT
	 Reference Energy          =   -2612.0848421888949815 [Eh]
	 Singles Energy            =      -0.0000000000000000 [Eh]
	 Same-Spin Energy          =      -0.1277641169619951 [Eh]
	 Opposite-Spin Energy      =      -0.3657778279433373 [Eh]
	 Correlation Energy        =      -0.4935419449053324 [Eh]
	 Total Energy              =   -2612.5783841338002276 [Eh]

	 ================> DF-SCS-MP2 Energies <==================
	-----------------------------------------------------------
	 SCS Same-Spin Scale       =       0.3333333333333333 [-]
	 SCS Opposite-Spin Scale   =       1.2000000000000000 [-]
	 SCS Same-Spin Energy      =      -0.0425880389873317 [Eh]
	 SCS Opposite-Spin Energy  =      -0.4389333935320047 [Eh]
	 SCS Correlation Energy    =      -0.4815214325193364 [Eh]
	 SCS Total Energy          =   -2612.5663636214144390 [Eh]
	-----------------------------------------------------------

  Dipole Moment: [D]
     X:    -1.6465      Y:    -0.0000      Z:     0.0000     Total:     1.6465

*** Psi4 exiting successfully. Buy a developer a beer!
