                               Psi4 1.3.2 release

  ==> Input File <==

--------------------------------------------------------------------------
#psi4
#
memory 32 gb

molecule  {
0 1
 Cl        3.0582810    -0.0000320     0.2153210
 Cl        1.0892650     1.4501210    -1.3457080
 Cl        1.0892300    -1.4499710    -1.3458710
  S        0.2835450    -0.0000560     1.1319340
  O        0.5217130     1.2849120     1.7899600
  O        0.5217120    -1.2850930     1.7898260
  C       -1.2710023    -0.0000128     0.2867797
  C        1.4090800     0.0000190    -0.3971410
  C       -1.9834610    -1.2238950     0.2202880
  C       -1.9834510     1.2238780     0.2203840
  C       -3.2836100    -1.2122960    -0.2842060
  C       -3.2836000     1.2123300    -0.2841110
  C       -3.9288570     0.0000300    -0.5427800
  H       -1.4734280    -2.1539290     0.4522940
  H       -1.4734140     2.1538900     0.4524690
  H       -3.7956980    -2.1526110    -0.4704350
  H       -3.7956790     2.1526630    -0.4702660
  H       -4.9427330     0.0000490    -0.9349330
units angstrom
no_reorient  #important for SAPT in psi4, default
symmetry c1  #important for SAPT in psi4, default
}

set PROPERTIES_ORIGIN ["COM"]
properties('MP2/aug-cc-pvtz', properties = ['dipole'])
--------------------------------------------------------------------------

    Molecular point group: c1
  Charge       = 0
  Multiplicity = 1
  Basis Set: AUG-CC-PVTZ
    Blend: AUG-CC-PVTZ
  Basis Set: (AUG-CC-PVTZ AUX)
    Blend: AUG-CC-PVTZ-JKFIT

    Orbital Energies [Eh]
    ---------------------

    Doubly Occupied:

       1A   -104.878424     2A   -104.878424     3A   -104.872631
       4A    -92.213612     5A    -20.573375     6A    -20.573355
       7A    -11.461307     8A    -11.298189     9A    -11.287156
      10A    -11.287088    11A    -11.280507    12A    -11.267859
      13A    -11.267792    14A    -10.602770    15A    -10.602762
      16A    -10.596844    17A     -9.181793    18A     -8.069550
      19A     -8.069550    20A     -8.067339    21A     -8.067338
      22A     -8.067300    23A     -8.067299    24A     -8.063652
      25A     -8.061365    26A     -8.061346    27A     -6.866690
      28A     -6.865651    29A     -6.865563    30A     -1.465399
      31A     -1.357283    32A     -1.257616    33A     -1.190839
      34A     -1.128593    35A     -1.125809    36A     -1.073307
      37A     -1.052239    38A     -0.959623    39A     -0.868447
      40A     -0.862627    41A     -0.800841    42A     -0.744270
      43A     -0.711673    44A     -0.690757    45A     -0.676887
      46A     -0.652236    47A     -0.650533    48A     -0.637573
      49A     -0.630527    50A     -0.625060    51A     -0.560657
      52A     -0.547112    53A     -0.539019    54A     -0.531389
      55A     -0.523106    56A     -0.517703    57A     -0.515766
      58A     -0.502620    59A     -0.496921    60A     -0.474009
      61A     -0.469010    62A     -0.458291    63A     -0.434646
      64A     -0.380479    65A     -0.368263

  @DF-RHF Final Energy: -2193.85590729026126

   => Energetics <=

    Nuclear Repulsion Energy =           1338.5432848804150581
    One-Electron Energy =               -5689.2030713736785401
    Two-Electron Energy =                2156.8038792030024524
    Total Energy =                      -2193.8559072902612570
  Basis Set: (AUG-CC-PVTZ AUX)
    Blend: AUG-CC-PVTZ-RI
    Molecular point group: c1

    Geometry (in Angstrom), charge = 0, multiplicity = 1:

       Center              X                  Y                   Z               Mass
    ------------   -----------------  -----------------  -----------------  -----------------
         CL           2.975390236060    -0.000032549399     0.228857473079    34.968852682000
         CL           1.006374236060     1.450120450601    -1.332171526921    34.968852682000
         CL           1.006339236060    -1.449971549399    -1.332334526921    34.968852682000
         S            0.200654236060    -0.000056549399     1.145470473079    31.972071174400
         O            0.438822236060     1.284911450601     1.803496473079    15.994914619570
         O            0.438821236060    -1.285093549399     1.803362473079    15.994914619570
         C           -1.353893063940    -0.000013349399     0.300316173079    12.000000000000
         C            1.326189236060     0.000018450601    -0.383604526921    12.000000000000
         C           -2.066351763940    -1.223895549399     0.233824473079    12.000000000000
         C           -2.066341763940     1.223877450601     0.233920473079    12.000000000000
         C           -3.366500763940    -1.212296549399    -0.270669526921    12.000000000000
         C           -3.366490763940     1.212329450601    -0.270574526921    12.000000000000
         C           -4.011747763940     0.000029450601    -0.529243526921    12.000000000000
         H           -1.556318763940    -2.153929549399     0.465830473079     1.007825032230
         H           -1.556304763940     2.153889450601     0.466005473079     1.007825032230
         H           -3.878588763940    -2.152611549399    -0.456898526921     1.007825032230
         H           -3.878569763940     2.152662450601    -0.456729526921     1.007825032230
         H           -5.025623763940     0.000048450601    -0.921396526921     1.007825032230

  Basis Set: AUG-CC-PVTZ
    Blend: AUG-CC-PVTZ
  Basis Set: (AUG-CC-PVTZ AUX)
    Blend: AUG-CC-PVTZ-JKFIT
	 Reference Energy          =   -2193.8559072902612570 [Eh]
	 Singles Energy            =      -0.0000000000000000 [Eh]
	 Same-Spin Energy          =      -0.7069650256771498 [Eh]
	 Opposite-Spin Energy      =      -2.0156679909815036 [Eh]
	 Correlation Energy        =      -2.7226330166586532 [Eh]
	 Total Energy              =   -2196.5785403069198765 [Eh]

	 ================> DF-SCS-MP2 Energies <==================
	-----------------------------------------------------------
	 SCS Same-Spin Scale       =       0.3333333333333333 [-]
	 SCS Opposite-Spin Scale   =       1.2000000000000000 [-]
	 SCS Same-Spin Energy      =      -0.2356550085590499 [Eh]
	 SCS Opposite-Spin Energy  =      -2.4188015891778041 [Eh]
	 SCS Correlation Energy    =      -2.6544565977368539 [Eh]
	 SCS Total Energy          =   -2196.5103638879982100 [Eh]
	-----------------------------------------------------------

  Dipole Moment: [D]
     X:    -3.8506      Y:     0.0002      Z:    -2.8592     Total:     4.7960

*** Psi4 exiting successfully. Buy a developer a beer!
