                               Psi4 1.3.2 release

  ==> Input File <==

--------------------------------------------------------------------------
#psi4
#
memory 32 gb

molecule  {
0 1
 Cl        3.0582810    -0.0000320     0.2153210
 Cl        1.0892650     1.4501210    -1.3457080
 Cl        1.0892300    -1.4499710    -1.3458710
  S        0.2835450    -0.0000560     1.1319340
  O        0.5063039     1.3085520     1.7473921
  O        0.5217120    -1.2850930     1.7898260
  C       -1.3508290    -0.0000210     0.4539040
  C        1.4090800     0.0000190    -0.3971410
  C       -1.9834610    -1.2238950     0.2202880
  C       -1.9834510     1.2238780     0.2203840
  C       -3.2836100    -1.2122960    -0.2842060
  C       -3.2836000     1.2123300    -0.2841110
  C       -3.9288570     0.0000300    -0.5427800
  H       -1.4734280    -2.1539290     0.4522940
  H       -1.4734140     2.1538900     0.4524690
  H       -3.7956980    -2.1526110    -0.4704350
  H       -3.7956790     2.1526630    -0.4702660
  H       -4.9427330     0.0000490    -0.9349330
units angstrom
no_reorient  #important for SAPT in psi4, default
symmetry c1  #important for SAPT in psi4, default
}

set PROPERTIES_ORIGIN ["COM"]
properties('MP2/aug-cc-pvtz', properties = ['dipole'])
--------------------------------------------------------------------------

    Molecular point group: c1
  Charge       = 0
  Multiplicity = 1
  Basis Set: AUG-CC-PVTZ
    Blend: AUG-CC-PVTZ
  Basis Set: (AUG-CC-PVTZ AUX)
    Blend: AUG-CC-PVTZ-JKFIT

    Orbital Energies [Eh]
    ---------------------

    Doubly Occupied:

       1A   -104.880213     2A   -104.880042     3A   -104.876417
       4A    -92.212506     5A    -20.572064     6A    -20.569440
       7A    -11.466168     8A    -11.293887     9A    -11.281523
      10A    -11.281311    11A    -11.277406    12A    -11.267197
      13A    -11.267101    14A    -10.604539    15A    -10.604341
      16A    -10.600544    17A     -9.180751    18A     -8.071327
      19A     -8.071130    20A     -8.069103    21A     -8.069065
      22A     -8.068903    23A     -8.068862    24A     -8.067349
      25A     -8.065048    26A     -8.065017    27A     -6.865463
      28A     -6.864826    29A     -6.864443    30A     -1.464059
      31A     -1.357417    32A     -1.259439    33A     -1.192322
      34A     -1.130124    35A     -1.128315    36A     -1.071736
      37A     -1.052290    38A     -0.957473    39A     -0.870778
      40A     -0.864597    41A     -0.802327    42A     -0.745314
      43A     -0.713646    44A     -0.686407    45A     -0.677318
      46A     -0.654417    47A     -0.650063    48A     -0.638706
      49A     -0.632022    50A     -0.624876    51A     -0.558154
      52A     -0.547228    53A     -0.541345    54A     -0.533044
      55A     -0.523640    56A     -0.518746    57A     -0.516368
      58A     -0.498298    59A     -0.496506    60A     -0.475783
      61A     -0.469937    62A     -0.460206    63A     -0.436859
      64A     -0.380977    65A     -0.368718

  @DF-RHF Final Energy: -2193.86728675022960

   => Energetics <=

    Nuclear Repulsion Energy =           1338.0104709799611555
    One-Electron Energy =               -5688.1046388006088819
    Two-Electron Energy =                2156.2268810704176758
    Total Energy =                      -2193.8672867502295958
  Basis Set: (AUG-CC-PVTZ AUX)
    Blend: AUG-CC-PVTZ-RI
    Molecular point group: c1

    Geometry (in Angstrom), charge = 0, multiplicity = 1:

       Center              X                  Y                   Z               Mass
    ------------   -----------------  -----------------  -----------------  -----------------
         CL           2.980060077954    -0.001498273580     0.223721440802    34.968852682000
         CL           1.011044077954     1.448654726420    -1.337307559198    34.968852682000
         CL           1.011009077954    -1.451437273580    -1.337470559198    34.968852682000
         S            0.205324077954    -0.001522273580     1.140334440802    31.972071174400
         O            0.428082977954     1.307085726420     1.755792540802    15.994914619570
         O            0.443491077954    -1.286559273580     1.798226440802    15.994914619570
         C           -1.429049922046    -0.001487273580     0.462304440802    12.000000000000
         C            1.330859077954    -0.001447273580    -0.388740559198    12.000000000000
         C           -2.061681922046    -1.225361273580     0.228688440802    12.000000000000
         C           -2.061671922046     1.222411726420     0.228784440802    12.000000000000
         C           -3.361830922046    -1.213762273580    -0.275805559198    12.000000000000
         C           -3.361820922046     1.210863726420    -0.275710559198    12.000000000000
         C           -4.007077922046    -0.001436273580    -0.534379559198    12.000000000000
         H           -1.551648922046    -2.155395273580     0.460694440802     1.007825032230
         H           -1.551634922046     2.152423726420     0.460869440802     1.007825032230
         H           -3.873918922046    -2.154077273580    -0.462034559198     1.007825032230
         H           -3.873899922046     2.151196726420    -0.461865559198     1.007825032230
         H           -5.020953922046    -0.001417273580    -0.926532559198     1.007825032230

  Basis Set: AUG-CC-PVTZ
    Blend: AUG-CC-PVTZ
  Basis Set: (AUG-CC-PVTZ AUX)
    Blend: AUG-CC-PVTZ-JKFIT
	 Reference Energy          =   -2193.8672867502295958 [Eh]
	 Singles Energy            =      -0.0000000000000000 [Eh]
	 Same-Spin Energy          =      -0.7060003931001224 [Eh]
	 Opposite-Spin Energy      =      -2.0133183610941052 [Eh]
	 Correlation Energy        =      -2.7193187541942274 [Eh]
	 Total Energy              =   -2196.5866055044239147 [Eh]

	 ================> DF-SCS-MP2 Energies <==================
	-----------------------------------------------------------
	 SCS Same-Spin Scale       =       0.3333333333333333 [-]
	 SCS Opposite-Spin Scale   =       1.2000000000000000 [-]
	 SCS Same-Spin Energy      =      -0.2353334643667075 [Eh]
	 SCS Opposite-Spin Energy  =      -2.4159820333129263 [Eh]
	 SCS Correlation Energy    =      -2.6513154976796338 [Eh]
	 SCS Total Energy          =   -2196.5186022479092571 [Eh]
	-----------------------------------------------------------

  Dipole Moment: [D]
     X:    -3.6645      Y:    -0.0366      Z:    -2.8993     Total:     4.6729

*** Psi4 exiting successfully. Buy a developer a beer!
