                               Psi4 1.3.2 release

  ==> Input File <==

--------------------------------------------------------------------------
#psi4
#
memory 32 gb

molecule  {
0 1
 Cl        3.0582810    -0.0000320     0.2153210
 Cl        1.0892650     1.4501210    -1.3457080
 Cl        1.0892300    -1.4499710    -1.3458710
  S        0.2835541     0.0308176     1.1312104
  O        0.5217130     1.2849120     1.7899600
  O        0.5217120    -1.2850930     1.7898260
  C       -1.3508290    -0.0000210     0.4539040
  C        1.4090800     0.0000190    -0.3971410
  C       -1.9834610    -1.2238950     0.2202880
  C       -1.9834510     1.2238780     0.2203840
  C       -3.2836100    -1.2122960    -0.2842060
  C       -3.2836000     1.2123300    -0.2841110
  C       -3.9288570     0.0000300    -0.5427800
  H       -1.4734280    -2.1539290     0.4522940
  H       -1.4734140     2.1538900     0.4524690
  H       -3.7956980    -2.1526110    -0.4704350
  H       -3.7956790     2.1526630    -0.4702660
  H       -4.9427330     0.0000490    -0.9349330
units angstrom
no_reorient  #important for SAPT in psi4, default
symmetry c1  #important for SAPT in psi4, default
}

set PROPERTIES_ORIGIN ["COM"]
properties('MP2/aug-cc-pvtz', properties = ['dipole'])
--------------------------------------------------------------------------

    Molecular point group: c1
  Charge       = 0
  Multiplicity = 1
  Basis Set: AUG-CC-PVTZ
    Blend: AUG-CC-PVTZ
  Basis Set: (AUG-CC-PVTZ AUX)
    Blend: AUG-CC-PVTZ-JKFIT

    Orbital Energies [Eh]
    ---------------------

    Doubly Occupied:

       1A   -104.880979     2A   -104.880839     3A   -104.876663
       4A    -92.211432     5A    -20.574864     6A    -20.562789
       7A    -11.467050     8A    -11.294970     9A    -11.282267
      10A    -11.282131    11A    -11.277953    12A    -11.267808
      13A    -11.267728    14A    -10.605227    15A    -10.605204
      16A    -10.600772    17A     -9.179944    18A     -8.072012
      19A     -8.071995    20A     -8.069792    21A     -8.069762
      22A     -8.069754    23A     -8.069720    24A     -8.067578
      25A     -8.065272    26A     -8.065241    27A     -6.864621
      28A     -6.864030    29A     -6.863591    30A     -1.467013
      31A     -1.350739    32A     -1.260079    33A     -1.193074
      34A     -1.130907    35A     -1.128666    36A     -1.072723
      37A     -1.052938    38A     -0.958388    39A     -0.871313
      40A     -0.865200    41A     -0.802596    42A     -0.745339
      43A     -0.713871    44A     -0.687194    45A     -0.677217
      46A     -0.654590    47A     -0.650599    48A     -0.639346
      49A     -0.631309    50A     -0.625250    51A     -0.558994
      52A     -0.549014    53A     -0.542434    54A     -0.533184
      55A     -0.521920    56A     -0.517128    57A     -0.516798
      58A     -0.499560    59A     -0.492326    60A     -0.476024
      61A     -0.469806    62A     -0.460636    63A     -0.437129
      64A     -0.381582    65A     -0.369332

  @DF-RHF Final Energy: -2193.86646466284446

   => Energetics <=

    Nuclear Repulsion Energy =           1337.4419486742940535
    One-Electron Energy =               -5686.9444212682592479
    Two-Electron Energy =                2155.6360079311211848
    Total Energy =                      -2193.8664646628444643
  Basis Set: (AUG-CC-PVTZ AUX)
    Blend: AUG-CC-PVTZ-RI
    Molecular point group: c1

    Geometry (in Angstrom), charge = 0, multiplicity = 1:

       Center              X                  Y                   Z               Mass
    ------------   -----------------  -----------------  -----------------  -----------------
         CL           2.979103308164    -0.003859480437     0.221171167071    34.968852682000
         CL           1.010087308164     1.446293519563    -1.339857832929    34.968852682000
         CL           1.010052308164    -1.453798480437    -1.340020832929    34.968852682000
         S            0.204376408164     0.026990119563     1.137060567071    31.972071174400
         O            0.442535308164     1.281084519563     1.795810167071    15.994914619570
         O            0.442534308164    -1.288920480437     1.795676167071    15.994914619570
         C           -1.430006691836    -0.003848480437     0.459754167071    12.000000000000
         C            1.329902308164    -0.003808480437    -0.391290832929    12.000000000000
         C           -2.062638691836    -1.227722480437     0.226138167071    12.000000000000
         C           -2.062628691836     1.220050519563     0.226234167071    12.000000000000
         C           -3.362787691836    -1.216123480437    -0.278355832929    12.000000000000
         C           -3.362777691836     1.208502519563    -0.278260832929    12.000000000000
         C           -4.008034691836    -0.003797480437    -0.536929832929    12.000000000000
         H           -1.552605691836    -2.157756480437     0.458144167071     1.007825032230
         H           -1.552591691836     2.150062519563     0.458319167071     1.007825032230
         H           -3.874875691836    -2.156438480437    -0.464584832929     1.007825032230
         H           -3.874856691836     2.148835519563    -0.464415832929     1.007825032230
         H           -5.021910691836    -0.003778480437    -0.929082832929     1.007825032230

  Basis Set: AUG-CC-PVTZ
    Blend: AUG-CC-PVTZ
  Basis Set: (AUG-CC-PVTZ AUX)
    Blend: AUG-CC-PVTZ-JKFIT
	 Reference Energy          =   -2193.8664646628444643 [Eh]
	 Singles Energy            =      -0.0000000000000000 [Eh]
	 Same-Spin Energy          =      -0.7057675428676657 [Eh]
	 Opposite-Spin Energy      =      -2.0129649321110032 [Eh]
	 Correlation Energy        =      -2.7187324749786690 [Eh]
	 Total Energy              =   -2196.5851971378233429 [Eh]

	 ================> DF-SCS-MP2 Energies <==================
	-----------------------------------------------------------
	 SCS Same-Spin Scale       =       0.3333333333333333 [-]
	 SCS Opposite-Spin Scale   =       1.2000000000000000 [-]
	 SCS Same-Spin Energy      =      -0.2352558476225552 [Eh]
	 SCS Opposite-Spin Energy  =      -2.4155579185332039 [Eh]
	 SCS Correlation Energy    =      -2.6508137661557591 [Eh]
	 SCS Total Energy          =   -2196.5172784290002710 [Eh]
	-----------------------------------------------------------

  Dipole Moment: [D]
     X:    -3.7059      Y:     0.2015      Z:    -3.0173     Total:     4.7831

*** Psi4 exiting successfully. Buy a developer a beer!
