                               Psi4 1.3.2 release

  ==> Input File <==

--------------------------------------------------------------------------
#psi4
#
memory 32 gb

molecule  {
0 1
 Cl        3.0115404    -0.0000379     0.3288715
 Cl        1.0892650     1.4501210    -1.3457080
 Cl        1.0892300    -1.4499710    -1.3458710
  S        0.2835450    -0.0000560     1.1319340
  O        0.5217130     1.2849120     1.7899600
  O        0.5217120    -1.2850930     1.7898260
  C       -1.3508290    -0.0000210     0.4539040
  C        1.4090800     0.0000190    -0.3971410
  C       -1.9834610    -1.2238950     0.2202880
  C       -1.9834510     1.2238780     0.2203840
  C       -3.2836100    -1.2122960    -0.2842060
  C       -3.2836000     1.2123300    -0.2841110
  C       -3.9288570     0.0000300    -0.5427800
  H       -1.4734280    -2.1539290     0.4522940
  H       -1.4734140     2.1538900     0.4524690
  H       -3.7956980    -2.1526110    -0.4704350
  H       -3.7956790     2.1526630    -0.4702660
  H       -4.9427330     0.0000490    -0.9349330
units angstrom
no_reorient  #important for SAPT in psi4, default
symmetry c1  #important for SAPT in psi4, default
}

set PROPERTIES_ORIGIN ["COM"]
properties('MP2/aug-cc-pvtz', properties = ['dipole'])
--------------------------------------------------------------------------

    Molecular point group: c1
  Charge       = 0
  Multiplicity = 1
  Basis Set: AUG-CC-PVTZ
    Blend: AUG-CC-PVTZ
  Basis Set: (AUG-CC-PVTZ AUX)
    Blend: AUG-CC-PVTZ-JKFIT

    Orbital Energies [Eh]
    ---------------------

    Doubly Occupied:

       1A   -104.882485     2A   -104.882485     3A   -104.876704
       4A    -92.209852     5A    -20.568060     6A    -20.568040
       7A    -11.467385     8A    -11.293839     9A    -11.281295
      10A    -11.281223    11A    -11.277090    12A    -11.267203
      13A    -11.267121    14A    -10.606658    15A    -10.606649
      16A    -10.600861    17A     -9.178376    18A     -8.073446
      19A     -8.073445    20A     -8.071217    21A     -8.071216
      22A     -8.071177    23A     -8.071177    24A     -8.067663
      25A     -8.065355    26A     -8.065319    27A     -6.863074
      28A     -6.862367    29A     -6.862082    30A     -1.462544
      31A     -1.353643    32A     -1.259523    33A     -1.192274
      34A     -1.131532    35A     -1.131220    36A     -1.071845
      37A     -1.052217    38A     -0.957116    39A     -0.870316
      40A     -0.864515    41A     -0.801985    42A     -0.744876
      43A     -0.713054    44A     -0.685700    45A     -0.676392
      46A     -0.654520    47A     -0.650374    48A     -0.640136
      49A     -0.630709    50A     -0.624646    51A     -0.558300
      52A     -0.545666    53A     -0.541562    54A     -0.532717
      55A     -0.520699    56A     -0.518375    57A     -0.518280
      58A     -0.497602    59A     -0.494653    60A     -0.477958
      61A     -0.471026    62A     -0.462231    63A     -0.435329
      64A     -0.380550    65A     -0.368729

  @DF-RHF Final Energy: -2193.86671141086890

   => Energetics <=

    Nuclear Repulsion Energy =           1339.3914143672297996
    One-Electron Energy =               -5690.8649072060279650
    Two-Electron Energy =                2157.6067814279290360
    Total Energy =                      -2193.8667114108689020
  Basis Set: (AUG-CC-PVTZ AUX)
    Blend: AUG-CC-PVTZ-RI
    Molecular point group: c1

    Geometry (in Angstrom), charge = 0, multiplicity = 1:

       Center              X                  Y                   Z               Mass
    ------------   -----------------  -----------------  -----------------  -----------------
         CL           2.938701242605    -0.000037267905     0.319236020464    34.968852682000
         CL           1.016425842605     1.450121632095    -1.355343479536    34.968852682000
         CL           1.016390842605    -1.449970367905    -1.355506479536    34.968852682000
         S            0.210705842605    -0.000055367905     1.122298520464    31.972071174400
         O            0.448873842605     1.284912632095     1.780324520464    15.994914619570
         O            0.448872842605    -1.285092367905     1.780190520464    15.994914619570
         C           -1.423668157395    -0.000020367905     0.444268520464    12.000000000000
         C            1.336240842605     0.000019632095    -0.406776479536    12.000000000000
         C           -2.056300157395    -1.223894367905     0.210652520464    12.000000000000
         C           -2.056290157395     1.223878632095     0.210748520464    12.000000000000
         C           -3.356449157395    -1.212295367905    -0.293841479536    12.000000000000
         C           -3.356439157395     1.212330632095    -0.293746479536    12.000000000000
         C           -4.001696157395     0.000030632095    -0.552415479536    12.000000000000
         H           -1.546267157395    -2.153928367905     0.442658520464     1.007825032230
         H           -1.546253157395     2.153890632095     0.442833520464     1.007825032230
         H           -3.868537157395    -2.152610367905    -0.480070479536     1.007825032230
         H           -3.868518157395     2.152663632095    -0.479901479536     1.007825032230
         H           -5.015572157395     0.000049632095    -0.944568479536     1.007825032230

  Basis Set: AUG-CC-PVTZ
    Blend: AUG-CC-PVTZ
  Basis Set: (AUG-CC-PVTZ AUX)
    Blend: AUG-CC-PVTZ-JKFIT
	 Reference Energy          =   -2193.8667114108689020 [Eh]
	 Singles Energy            =      -0.0000000000000000 [Eh]
	 Same-Spin Energy          =      -0.7062061186568525 [Eh]
	 Opposite-Spin Energy      =      -2.0135263330980422 [Eh]
	 Correlation Energy        =      -2.7197324517548944 [Eh]
	 Total Energy              =   -2196.5864438626235824 [Eh]

	 ================> DF-SCS-MP2 Energies <==================
	-----------------------------------------------------------
	 SCS Same-Spin Scale       =       0.3333333333333333 [-]
	 SCS Opposite-Spin Scale   =       1.2000000000000000 [-]
	 SCS Same-Spin Energy      =      -0.2354020395522841 [Eh]
	 SCS Opposite-Spin Energy  =      -2.4162315997176504 [Eh]
	 SCS Correlation Energy    =      -2.6516336392699347 [Eh]
	 SCS Total Energy          =   -2196.5183450501390325 [Eh]
	-----------------------------------------------------------

  Dipole Moment: [D]
     X:    -3.6152      Y:     0.0002      Z:    -3.0272     Total:     4.7153

*** Psi4 exiting successfully. Buy a developer a beer!
