                               Psi4 1.3.2 release

  ==> Input File <==

--------------------------------------------------------------------------
#psi4
#
memory 32 gb

molecule  {
0 1
 Cl        3.0582810    -0.0000320     0.2153210
 Cl        1.0892650     1.4501210    -1.3457080
 Cl        1.0892300    -1.4499710    -1.3458710
  S        0.2785325    -0.1234563     1.1327619
  O        0.5217130     1.2849120     1.7899600
  O        0.5217120    -1.2850930     1.7898260
  C       -1.3508290    -0.0000210     0.4539040
  C        1.4090800     0.0000190    -0.3971410
  C       -1.9834610    -1.2238950     0.2202880
  C       -1.9834510     1.2238780     0.2203840
  C       -3.2836100    -1.2122960    -0.2842060
  C       -3.2836000     1.2123300    -0.2841110
  C       -3.9288570     0.0000300    -0.5427800
  H       -1.4734280    -2.1539290     0.4522940
  H       -1.4734140     2.1538900     0.4524690
  H       -3.7956980    -2.1526110    -0.4704350
  H       -3.7956790     2.1526630    -0.4702660
  H       -4.9427330     0.0000490    -0.9349330
units angstrom
no_reorient  #important for SAPT in psi4, default
symmetry c1  #important for SAPT in psi4, default
}

set PROPERTIES_ORIGIN ["COM"]
properties('MP2/aug-cc-pvtz', properties = ['dipole'])
--------------------------------------------------------------------------

    Molecular point group: c1
  Charge       = 0
  Multiplicity = 1
  Basis Set: AUG-CC-PVTZ
    Blend: AUG-CC-PVTZ
  Basis Set: (AUG-CC-PVTZ AUX)
    Blend: AUG-CC-PVTZ-JKFIT

    Orbital Energies [Eh]
    ---------------------

    Doubly Occupied:

       1A   -104.880602     2A   -104.880037     3A   -104.876055
       4A    -92.206551     5A    -20.592127     6A    -20.544649
       7A    -11.466379     8A    -11.295432     9A    -11.282629
      10A    -11.282174    11A    -11.278085    12A    -11.268016
      13A    -11.267935    14A    -10.604678    15A    -10.604606
      16A    -10.600151    17A     -9.177712    18A     -8.071456
      19A     -8.071399    20A     -8.069259    21A     -8.069228
      22A     -8.069154    23A     -8.069104    24A     -8.066956
      25A     -8.064659    26A     -8.064621    27A     -6.862480
      28A     -6.861790    29A     -6.860789    30A     -1.511908
      31A     -1.316529    32A     -1.257483    33A     -1.193154
      34A     -1.130694    35A     -1.127716    36A     -1.073257
      37A     -1.052938    38A     -0.957103    39A     -0.872332
      40A     -0.864524    41A     -0.803499    42A     -0.748700
      43A     -0.720342    44A     -0.694900    45A     -0.681509
      46A     -0.654821    47A     -0.651996    48A     -0.640819
      49A     -0.634802    50A     -0.624879    51A     -0.567667
      52A     -0.560925    53A     -0.543123    54A     -0.533733
      55A     -0.519129    56A     -0.516420    57A     -0.510556
      58A     -0.493967    59A     -0.480254    60A     -0.472754
      61A     -0.464631    62A     -0.458365    63A     -0.431528
      64A     -0.381507    65A     -0.369428

  @DF-RHF Final Energy: -2193.84095302963033

   => Energetics <=

    Nuclear Repulsion Energy =           1337.5594162093043451
    One-Electron Energy =               -5687.1475321189727765
    Two-Electron Energy =                2155.7471628800376493
    Total Energy =                      -2193.8409530296303274
  Basis Set: (AUG-CC-PVTZ AUX)
    Blend: AUG-CC-PVTZ-RI
    Molecular point group: c1

    Geometry (in Angstrom), charge = 0, multiplicity = 1:

       Center              X                  Y                   Z               Mass
    ------------   -----------------  -----------------  -----------------  -----------------
         CL           2.979725821664     0.015265417102     0.220978832020    34.968852682000
         CL           1.010709821664     1.465418417102    -1.340050167980    34.968852682000
         CL           1.010674821664    -1.434673582898    -1.340213167980    34.968852682000
         S            0.199977321664    -0.108158882898     1.138419732020    31.972071174400
         O            0.443157821664     1.300209417102     1.795617832020    15.994914619570
         O            0.443156821664    -1.269795582898     1.795483832020    15.994914619570
         C           -1.429384178336     0.015276417102     0.459561832020    12.000000000000
         C            1.330524821664     0.015316417102    -0.391483167980    12.000000000000
         C           -2.062016178336    -1.208597582898     0.225945832020    12.000000000000
         C           -2.062006178336     1.239175417102     0.226041832020    12.000000000000
         C           -3.362165178336    -1.196998582898    -0.278548167980    12.000000000000
         C           -3.362155178336     1.227627417102    -0.278453167980    12.000000000000
         C           -4.007412178336     0.015327417102    -0.537122167980    12.000000000000
         H           -1.551983178336    -2.138631582898     0.457951832020     1.007825032230
         H           -1.551969178336     2.169187417102     0.458126832020     1.007825032230
         H           -3.874253178336    -2.137313582898    -0.464777167980     1.007825032230
         H           -3.874234178336     2.167960417102    -0.464608167980     1.007825032230
         H           -5.021288178336     0.015346417102    -0.929275167980     1.007825032230

  Basis Set: AUG-CC-PVTZ
    Blend: AUG-CC-PVTZ
  Basis Set: (AUG-CC-PVTZ AUX)
    Blend: AUG-CC-PVTZ-JKFIT
	 Reference Energy          =   -2193.8409530296303274 [Eh]
	 Singles Energy            =      -0.0000000000000000 [Eh]
	 Same-Spin Energy          =      -0.7051734736992820 [Eh]
	 Opposite-Spin Energy      =      -2.0123372243019695 [Eh]
	 Correlation Energy        =      -2.7175106980012513 [Eh]
	 Total Energy              =   -2196.5584637276315334 [Eh]

	 ================> DF-SCS-MP2 Energies <==================
	-----------------------------------------------------------
	 SCS Same-Spin Scale       =       0.3333333333333333 [-]
	 SCS Opposite-Spin Scale   =       1.2000000000000000 [-]
	 SCS Same-Spin Energy      =      -0.2350578245664273 [Eh]
	 SCS Opposite-Spin Energy  =      -2.4148046691623635 [Eh]
	 SCS Correlation Energy    =      -2.6498624937287909 [Eh]
	 SCS Total Energy          =   -2196.4908155233592879 [Eh]
	-----------------------------------------------------------

  Dipole Moment: [D]
     X:    -3.7614      Y:    -0.8087      Z:    -3.0397     Total:     4.9032

*** Psi4 exiting successfully. Buy a developer a beer!
