                               Psi4 1.3.2 release

  ==> Input File <==

--------------------------------------------------------------------------
#psi4
#
memory 32 gb

molecule  {
0 1
 Cl        3.0582810    -0.0000320     0.2153210
 Cl        1.0892650     1.4501210    -1.3457080
 Cl        1.0892300    -1.4499710    -1.3458710
  S        0.2835450    -0.0000560     1.1319340
  O        0.5217130     1.2849120     1.7899600
  O        0.5217120    -1.2850930     1.7898260
  C       -1.1660951    -0.0000250     0.5305420
  C        1.4090800     0.0000190    -0.3971410
  C       -1.9834610    -1.2238950     0.2202880
  C       -1.9834510     1.2238780     0.2203840
  C       -3.2836100    -1.2122960    -0.2842060
  C       -3.2836000     1.2123300    -0.2841110
  C       -3.9288570     0.0000300    -0.5427800
  H       -1.4734280    -2.1539290     0.4522940
  H       -1.4734140     2.1538900     0.4524690
  H       -3.7956980    -2.1526110    -0.4704350
  H       -3.7956790     2.1526630    -0.4702660
  H       -4.9427330     0.0000490    -0.9349330
units angstrom
no_reorient  #important for SAPT in psi4, default
symmetry c1  #important for SAPT in psi4, default
}

set PROPERTIES_ORIGIN ["COM"]
properties('MP2/aug-cc-pvtz', properties = ['dipole'])
--------------------------------------------------------------------------

    Molecular point group: c1
  Charge       = 0
  Multiplicity = 1
  Basis Set: AUG-CC-PVTZ
    Blend: AUG-CC-PVTZ
  Basis Set: (AUG-CC-PVTZ AUX)
    Blend: AUG-CC-PVTZ-JKFIT

    Orbital Energies [Eh]
    ---------------------

    Doubly Occupied:

       1A   -104.877152     2A   -104.877152     3A   -104.871387
       4A    -92.202958     5A    -20.560748     6A    -20.560729
       7A    -11.460253     8A    -11.307370     9A    -11.307367
      10A    -11.296591    11A    -11.290244    12A    -11.272655
      13A    -11.272613    14A    -10.601477    15A    -10.601468
      16A    -10.595553    17A     -9.174028    18A     -8.068261
      19A     -8.068261    20A     -8.066056    21A     -8.066054
      22A     -8.066015    23A     -8.066015    24A     -8.062361
      25A     -8.060064    26A     -8.060043    27A     -6.859111
      28A     -6.858310    29A     -6.857604    30A     -1.463971
      31A     -1.349115    32A     -1.255855    33A     -1.183397
      34A     -1.127116    35A     -1.124909    36A     -1.094596
      37A     -1.051155    38A     -0.968888    39A     -0.883697
      40A     -0.858021    41A     -0.799233    42A     -0.743184
      43A     -0.722418    44A     -0.695072    45A     -0.679817
      46A     -0.650294    47A     -0.648094    48A     -0.637570
      49A     -0.627548    50A     -0.615547    51A     -0.566584
      52A     -0.543505    53A     -0.534202    54A     -0.522557
      55A     -0.520512    56A     -0.517654    57A     -0.503927
      58A     -0.503722    59A     -0.488424    60A     -0.472865
      61A     -0.465674    62A     -0.456480    63A     -0.438666
      64A     -0.380246    65A     -0.373032

  @DF-RHF Final Energy: -2193.81970152444592

   => Energetics <=

    Nuclear Repulsion Energy =           1340.4991743595521712
    One-Electron Energy =               -5693.1268552591382104
    Two-Electron Energy =                2158.8079793751403486
    Total Energy =                      -2193.8197015244459180
  Basis Set: (AUG-CC-PVTZ AUX)
    Blend: AUG-CC-PVTZ-RI
    Molecular point group: c1

    Geometry (in Angstrom), charge = 0, multiplicity = 1:

       Center              X                  Y                   Z               Mass
    ------------   -----------------  -----------------  -----------------  -----------------
         CL           2.970509082965    -0.000031981754     0.217515629000    34.968852682000
         CL           1.001493082965     1.450121018246    -1.343513371000    34.968852682000
         CL           1.001458082965    -1.449970981754    -1.343676371000    34.968852682000
         S            0.195773082965    -0.000055981754     1.134128629000    31.972071174400
         O            0.433941082965     1.284912018246     1.792154629000    15.994914619570
         O            0.433940082965    -1.285092981754     1.792020629000    15.994914619570
         C           -1.253867017035    -0.000024981754     0.532736629000    12.000000000000
         C            1.321308082965     0.000019018246    -0.394946371000    12.000000000000
         C           -2.071232917035    -1.223894981754     0.222482629000    12.000000000000
         C           -2.071222917035     1.223878018246     0.222578629000    12.000000000000
         C           -3.371381917035    -1.212295981754    -0.282011371000    12.000000000000
         C           -3.371371917035     1.212330018246    -0.281916371000    12.000000000000
         C           -4.016628917035     0.000030018246    -0.540585371000    12.000000000000
         H           -1.561199917035    -2.153928981754     0.454488629000     1.007825032230
         H           -1.561185917035     2.153890018246     0.454663629000     1.007825032230
         H           -3.883469917035    -2.152610981754    -0.468240371000     1.007825032230
         H           -3.883450917035     2.152663018246    -0.468071371000     1.007825032230
         H           -5.030504917035     0.000049018246    -0.932738371000     1.007825032230

  Basis Set: AUG-CC-PVTZ
    Blend: AUG-CC-PVTZ
  Basis Set: (AUG-CC-PVTZ AUX)
    Blend: AUG-CC-PVTZ-JKFIT
	 Reference Energy          =   -2193.8197015244459180 [Eh]
	 Singles Energy            =      -0.0000000000000000 [Eh]
	 Same-Spin Energy          =      -0.7075426746657969 [Eh]
	 Opposite-Spin Energy      =      -2.0165176779090372 [Eh]
	 Correlation Energy        =      -2.7240603525748339 [Eh]
	 Total Energy              =   -2196.5437618770206427 [Eh]

	 ================> DF-SCS-MP2 Energies <==================
	-----------------------------------------------------------
	 SCS Same-Spin Scale       =       0.3333333333333333 [-]
	 SCS Opposite-Spin Scale   =       1.2000000000000000 [-]
	 SCS Same-Spin Energy      =      -0.2358475582219323 [Eh]
	 SCS Opposite-Spin Energy  =      -2.4198212134908448 [Eh]
	 SCS Correlation Energy    =      -2.6556687717127772 [Eh]
	 SCS Total Energy          =   -2196.4753702961588715 [Eh]
	-----------------------------------------------------------

  Dipole Moment: [D]
     X:    -4.4371      Y:     0.0002      Z:    -3.2379     Total:     5.4928

*** Psi4 exiting successfully. Buy a developer a beer!
