                               Psi4 1.3.2 release

  ==> Input File <==

--------------------------------------------------------------------------
#psi4
#
memory 32 gb

molecule  {
0 1
 Cl        3.0582810    -0.0000320     0.2153210
 Cl        1.0892650     1.4501210    -1.3457080
 Cl        1.0892300    -1.4499710    -1.3458710
  S        0.2835450    -0.0000560     1.1319340
  O        0.4271942     1.3123403     1.7626842
  O        0.5217120    -1.2850930     1.7898260
  C       -1.3508290    -0.0000210     0.4539040
  C        1.4090800     0.0000190    -0.3971410
  C       -1.9834610    -1.2238950     0.2202880
  C       -1.9834510     1.2238780     0.2203840
  C       -3.2836100    -1.2122960    -0.2842060
  C       -3.2836000     1.2123300    -0.2841110
  C       -3.9288570     0.0000300    -0.5427800
  H       -1.4734280    -2.1539290     0.4522940
  H       -1.4734140     2.1538900     0.4524690
  H       -3.7956980    -2.1526110    -0.4704350
  H       -3.7956790     2.1526630    -0.4702660
  H       -4.9427330     0.0000490    -0.9349330
units angstrom
no_reorient  #important for SAPT in psi4, default
symmetry c1  #important for SAPT in psi4, default
}

set PROPERTIES_ORIGIN ["COM"]
properties('MP2/aug-cc-pvtz', properties = ['dipole'])
--------------------------------------------------------------------------

    Molecular point group: c1
  Charge       = 0
  Multiplicity = 1
  Basis Set: AUG-CC-PVTZ
    Blend: AUG-CC-PVTZ
  Basis Set: (AUG-CC-PVTZ AUX)
    Blend: AUG-CC-PVTZ-JKFIT

    Orbital Energies [Eh]
    ---------------------

    Doubly Occupied:

       1A   -104.882410     2A   -104.881818     3A   -104.878626
       4A    -92.212405     5A    -20.572730     6A    -20.569637
       7A    -11.469264     8A    -11.290753     9A    -11.279175
      10A    -11.278798    11A    -11.275386    12A    -11.265370
      13A    -11.265273    14A    -10.606681    15A    -10.606094
      16A    -10.602759    17A     -9.180688    18A     -8.073469
      19A     -8.072881    20A     -8.071232    21A     -8.071192
      22A     -8.070645    23A     -8.070607    24A     -8.069564
      25A     -8.067260    26A     -8.067229    27A     -6.865376
      28A     -6.864779    29A     -6.864363    30A     -1.464277
      31A     -1.358135    32A     -1.261718    33A     -1.190032
      34A     -1.131967    35A     -1.130379    36A     -1.069339
      37A     -1.050263    38A     -0.958078    39A     -0.870340
      40A     -0.862558    41A     -0.801746    42A     -0.745123
      43A     -0.714084    44A     -0.685357    45A     -0.676797
      46A     -0.654722    47A     -0.649106    48A     -0.639757
      49A     -0.632564    50A     -0.623167    51A     -0.556470
      52A     -0.548791    53A     -0.539602    54A     -0.531700
      55A     -0.524244    56A     -0.519735    57A     -0.517218
      58A     -0.497915    59A     -0.497074    60A     -0.477704
      61A     -0.471750    62A     -0.462106    63A     -0.438155
      64A     -0.378694    65A     -0.366855

  @DF-RHF Final Energy: -2193.86596325732171

   => Energetics <=

    Nuclear Repulsion Energy =           1337.7321809223103628
    One-Electron Energy =               -5687.5083247070560901
    Two-Electron Energy =                2155.9101805274240178
    Total Energy =                      -2193.8659632573217095
  Basis Set: (AUG-CC-PVTZ AUX)
    Blend: AUG-CC-PVTZ-RI
    Molecular point group: c1

    Geometry (in Angstrom), charge = 0, multiplicity = 1:

       Center              X                  Y                   Z               Mass
    ------------   -----------------  -----------------  -----------------  -----------------
         CL           2.984966303972    -0.001733216400     0.222773055219    34.968852682000
         CL           1.015950303972     1.448419783600    -1.338255944781    34.968852682000
         CL           1.015915303972    -1.451672216400    -1.338418944781    34.968852682000
         S            0.210230303972    -0.001757216400     1.139386055219    31.972071174400
         O            0.353879503972     1.310639083600     1.770136255219    15.994914619570
         O            0.448397303972    -1.286794216400     1.797278055219    15.994914619570
         C           -1.424143696028    -0.001722216400     0.461356055219    12.000000000000
         C            1.335765303972    -0.001682216400    -0.389688944781    12.000000000000
         C           -2.056775696028    -1.225596216400     0.227740055219    12.000000000000
         C           -2.056765696028     1.222176783600     0.227836055219    12.000000000000
         C           -3.356924696028    -1.213997216400    -0.276753944781    12.000000000000
         C           -3.356914696028     1.210628783600    -0.276658944781    12.000000000000
         C           -4.002171696028    -0.001671216400    -0.535327944781    12.000000000000
         H           -1.546742696028    -2.155630216400     0.459746055219     1.007825032230
         H           -1.546728696028     2.152188783600     0.459921055219     1.007825032230
         H           -3.869012696028    -2.154312216400    -0.462982944781     1.007825032230
         H           -3.868993696028     2.150961783600    -0.462813944781     1.007825032230
         H           -5.016047696028    -0.001652216400    -0.927480944781     1.007825032230

  Basis Set: AUG-CC-PVTZ
    Blend: AUG-CC-PVTZ
  Basis Set: (AUG-CC-PVTZ AUX)
    Blend: AUG-CC-PVTZ-JKFIT
	 Reference Energy          =   -2193.8659632573217095 [Eh]
	 Singles Energy            =      -0.0000000000000000 [Eh]
	 Same-Spin Energy          =      -0.7060937452748024 [Eh]
	 Opposite-Spin Energy      =      -2.0135864159621644 [Eh]
	 Correlation Energy        =      -2.7196801612369668 [Eh]
	 Total Energy              =   -2196.5856434185589023 [Eh]

	 ================> DF-SCS-MP2 Energies <==================
	-----------------------------------------------------------
	 SCS Same-Spin Scale       =       0.3333333333333333 [-]
	 SCS Opposite-Spin Scale   =       1.2000000000000000 [-]
	 SCS Same-Spin Energy      =      -0.2353645817582675 [Eh]
	 SCS Opposite-Spin Energy  =      -2.4163036991545970 [Eh]
	 SCS Correlation Energy    =      -2.6516682809128644 [Eh]
	 SCS Total Energy          =   -2196.5176315382345820 [Eh]
	-----------------------------------------------------------

  Dipole Moment: [D]
     X:    -3.3939      Y:    -0.0519      Z:    -2.9526     Total:     4.4987

*** Psi4 exiting successfully. Buy a developer a beer!
