                               Psi4 1.3.2 release

  ==> Input File <==

--------------------------------------------------------------------------
#psi4
#
memory 32 gb

molecule  {
0 1
 Cl        3.0582810    -0.0000320     0.2153210
 Cl        1.0892650     1.4501210    -1.3457080
 Cl        1.0892300    -1.4499710    -1.3458710
  S        0.2730464    -0.1849684     1.1319352
  O        0.5217130     1.2849120     1.7899600
  O        0.5217120    -1.2850930     1.7898260
  C       -1.3508290    -0.0000210     0.4539040
  C        1.4090800     0.0000190    -0.3971410
  C       -1.9834610    -1.2238950     0.2202880
  C       -1.9834510     1.2238780     0.2203840
  C       -3.2836100    -1.2122960    -0.2842060
  C       -3.2836000     1.2123300    -0.2841110
  C       -3.9288570     0.0000300    -0.5427800
  H       -1.4734280    -2.1539290     0.4522940
  H       -1.4734140     2.1538900     0.4524690
  H       -3.7956980    -2.1526110    -0.4704350
  H       -3.7956790     2.1526630    -0.4702660
  H       -4.9427330     0.0000490    -0.9349330
units angstrom
no_reorient  #important for SAPT in psi4, default
symmetry c1  #important for SAPT in psi4, default
}

set PROPERTIES_ORIGIN ["COM"]
properties('MP2/aug-cc-pvtz', properties = ['dipole'])
--------------------------------------------------------------------------

    Molecular point group: c1
  Charge       = 0
  Multiplicity = 1
  Basis Set: AUG-CC-PVTZ
    Blend: AUG-CC-PVTZ
  Basis Set: (AUG-CC-PVTZ AUX)
    Blend: AUG-CC-PVTZ-JKFIT

    Orbital Energies [Eh]
    ---------------------

    Doubly Occupied:

       1A   -104.880254     2A   -104.879385     3A   -104.875520
       4A    -92.200413     5A    -20.602374     6A    -20.532698
       7A    -11.465868     8A    -11.296067     9A    -11.282972
      10A    -11.282317    11A    -11.278238    12A    -11.268277
      13A    -11.268185    14A    -10.604201    15A    -10.604122
      16A    -10.599596    17A     -9.175072    18A     -8.070972
      19A     -8.070916    20A     -8.068794    21A     -8.068765
      22A     -8.068666    23A     -8.068611    24A     -8.066400
      25A     -8.064113    26A     -8.064066    27A     -6.860440
      28A     -6.858511    29A     -6.857512    30A     -1.551706
      31A     -1.290600    32A     -1.252628    33A     -1.193127
      34A     -1.130595    35A     -1.126856    36A     -1.073966
      37A     -1.052923    38A     -0.956059    39A     -0.873751
      40A     -0.863899    41A     -0.804755    42A     -0.753654
      43A     -0.729286    44A     -0.701310    45A     -0.689908
      46A     -0.656495    47A     -0.653407    48A     -0.641909
      49A     -0.637927    50A     -0.624865    51A     -0.580445
      52A     -0.561724    53A     -0.543310    54A     -0.534716
      55A     -0.518328    56A     -0.516408    57A     -0.502054
      58A     -0.486844    59A     -0.477473    60A     -0.467290
      61A     -0.461443    62A     -0.449333    63A     -0.424900
      64A     -0.381334    65A     -0.369524

  @DF-RHF Final Energy: -2193.80530864217462

   => Energetics <=

    Nuclear Repulsion Energy =           1337.8057248563281973
    One-Electron Energy =               -5687.5859184608771102
    Two-Electron Energy =                2155.9748849623742899
    Total Energy =                      -2193.8053086421746229
  Basis Set: (AUG-CC-PVTZ AUX)
    Blend: AUG-CC-PVTZ-RI
    Molecular point group: c1

    Geometry (in Angstrom), charge = 0, multiplicity = 1:

       Center              X                  Y                   Z               Mass
    ------------   -----------------  -----------------  -----------------  -----------------
         CL           2.980405917911     0.022890897561     0.221081315672    34.968852682000
         CL           1.011389917911     1.473043897561    -1.339947684328    34.968852682000
         CL           1.011354917911    -1.427048102439    -1.340110684328    34.968852682000
         S            0.195171317911    -0.162045502439     1.137695515672    31.972071174400
         O            0.443837917911     1.307834897561     1.795720315672    15.994914619570
         O            0.443836917911    -1.262170102439     1.795586315672    15.994914619570
         C           -1.428704082089     0.022901897561     0.459664315672    12.000000000000
         C            1.331204917911     0.022941897561    -0.391380684328    12.000000000000
         C           -2.061336082089    -1.200972102439     0.226048315672    12.000000000000
         C           -2.061326082089     1.246800897561     0.226144315672    12.000000000000
         C           -3.361485082089    -1.189373102439    -0.278445684328    12.000000000000
         C           -3.361475082089     1.235252897561    -0.278350684328    12.000000000000
         C           -4.006732082089     0.022952897561    -0.537019684328    12.000000000000
         H           -1.551303082089    -2.131006102439     0.458054315672     1.007825032230
         H           -1.551289082089     2.176812897561     0.458229315672     1.007825032230
         H           -3.873573082089    -2.129688102439    -0.464674684328     1.007825032230
         H           -3.873554082089     2.175585897561    -0.464505684328     1.007825032230
         H           -5.020608082089     0.022971897561    -0.929172684328     1.007825032230

  Basis Set: AUG-CC-PVTZ
    Blend: AUG-CC-PVTZ
  Basis Set: (AUG-CC-PVTZ AUX)
    Blend: AUG-CC-PVTZ-JKFIT
	 Reference Energy          =   -2193.8053086421746229 [Eh]
	 Singles Energy            =      -0.0000000000000000 [Eh]
	 Same-Spin Energy          =      -0.7045080581883743 [Eh]
	 Opposite-Spin Energy      =      -2.0117215480174124 [Eh]
	 Correlation Energy        =      -2.7162296062057867 [Eh]
	 Total Energy              =   -2196.5215382483802387 [Eh]

	 ================> DF-SCS-MP2 Energies <==================
	-----------------------------------------------------------
	 SCS Same-Spin Scale       =       0.3333333333333333 [-]
	 SCS Opposite-Spin Scale   =       1.2000000000000000 [-]
	 SCS Same-Spin Energy      =      -0.2348360193961248 [Eh]
	 SCS Opposite-Spin Energy  =      -2.4140658576208947 [Eh]
	 SCS Correlation Energy    =      -2.6489018770170194 [Eh]
	 SCS Total Energy          =   -2196.4542105191917472 [Eh]
	-----------------------------------------------------------

  Dipole Moment: [D]
     X:    -3.8219      Y:    -1.2195      Z:    -3.0915     Total:     5.0647

*** Psi4 exiting successfully. Buy a developer a beer!
