                               Psi4 1.3.2 release

  ==> Input File <==

--------------------------------------------------------------------------
#psi4
#
memory 32 gb

molecule  {
0 1
 Cl        3.0786510    -0.0000289     0.1573916
 Cl        1.0892650     1.4501210    -1.3457080
 Cl        1.0892300    -1.4499710    -1.3458710
  S        0.2835450    -0.0000560     1.1319340
  O        0.5217130     1.2849120     1.7899600
  O        0.5217120    -1.2850930     1.7898260
  C       -1.3508290    -0.0000210     0.4539040
  C        1.4090800     0.0000190    -0.3971410
  C       -1.9834610    -1.2238950     0.2202880
  C       -1.9834510     1.2238780     0.2203840
  C       -3.2836100    -1.2122960    -0.2842060
  C       -3.2836000     1.2123300    -0.2841110
  C       -3.9288570     0.0000300    -0.5427800
  H       -1.4734280    -2.1539290     0.4522940
  H       -1.4734140     2.1538900     0.4524690
  H       -3.7956980    -2.1526110    -0.4704350
  H       -3.7956790     2.1526630    -0.4702660
  H       -4.9427330     0.0000490    -0.9349330
units angstrom
no_reorient  #important for SAPT in psi4, default
symmetry c1  #important for SAPT in psi4, default
}

set PROPERTIES_ORIGIN ["COM"]
properties('MP2/aug-cc-pvtz', properties = ['dipole'])
--------------------------------------------------------------------------

    Molecular point group: c1
  Charge       = 0
  Multiplicity = 1
  Basis Set: AUG-CC-PVTZ
    Blend: AUG-CC-PVTZ
  Basis Set: (AUG-CC-PVTZ AUX)
    Blend: AUG-CC-PVTZ-JKFIT

    Orbital Energies [Eh]
    ---------------------

    Doubly Occupied:

       1A   -104.880045     2A   -104.880044     3A   -104.876508
       4A    -92.212745     5A    -20.569375     6A    -20.569356
       7A    -11.466758     8A    -11.295480     9A    -11.282679
      10A    -11.282608    11A    -11.278364    12A    -11.268087
      13A    -11.268007    14A    -10.604425    15A    -10.604417
      16A    -10.600619    17A     -9.180983    18A     -8.071207
      19A     -8.071207    20A     -8.068982    21A     -8.068980
      22A     -8.068942    23A     -8.068941    24A     -8.067423
      25A     -8.065117    26A     -8.065088    27A     -6.865693
      28A     -6.865026    29A     -6.864699    30A     -1.463464
      31A     -1.354790    32A     -1.260492    33A     -1.193465
      34A     -1.130486    35A     -1.127369    36A     -1.073088
      37A     -1.053294    38A     -0.958863    39A     -0.871545
      40A     -0.865621    41A     -0.802810    42A     -0.745322
      43A     -0.713734    44A     -0.686981    45A     -0.677367
      46A     -0.654579    47A     -0.650565    48A     -0.638562
      49A     -0.631462    50A     -0.625639    51A     -0.558857
      52A     -0.548238    53A     -0.542289    54A     -0.533824
      55A     -0.523482    56A     -0.517340    57A     -0.516217
      58A     -0.499142    59A     -0.495311    60A     -0.474763
      61A     -0.469504    62A     -0.459741    63A     -0.438339
      64A     -0.382076    65A     -0.369619

  @DF-RHF Final Energy: -2193.86808105798991

   => Energetics <=

    Nuclear Repulsion Energy =           1336.5695611487115002
    One-Electron Energy =               -5685.1951955671229371
    Two-Electron Energy =                2154.7575533604212978
    Total Energy =                      -2193.8680810579899116
  Basis Set: (AUG-CC-PVTZ AUX)
    Blend: AUG-CC-PVTZ-RI
    Molecular point group: c1

    Geometry (in Angstrom), charge = 0, multiplicity = 1:

       Center              X                  Y                   Z               Mass
    ------------   -----------------  -----------------  -----------------  -----------------
         CL           2.996712534039    -0.000029488186     0.171006523872    34.968852682000
         CL           1.007326534039     1.450120411814    -1.332093076128    34.968852682000
         CL           1.007291534039    -1.449971588186    -1.332256076128    34.968852682000
         S            0.201606534039    -0.000056588186     1.145548923872    31.972071174400
         O            0.439774534039     1.284911411814     1.803574923872    15.994914619570
         O            0.439773534039    -1.285093588186     1.803440923872    15.994914619570
         C           -1.432767465961    -0.000021588186     0.467518923872    12.000000000000
         C            1.327141534039     0.000018411814    -0.383526076128    12.000000000000
         C           -2.065399465961    -1.223895588186     0.233902923872    12.000000000000
         C           -2.065389465961     1.223877411814     0.233998923872    12.000000000000
         C           -3.365548465961    -1.212296588186    -0.270591076128    12.000000000000
         C           -3.365538465961     1.212329411814    -0.270496076128    12.000000000000
         C           -4.010795465961     0.000029411814    -0.529165076128    12.000000000000
         H           -1.555366465961    -2.153929588186     0.465908923872     1.007825032230
         H           -1.555352465961     2.153889411814     0.466083923872     1.007825032230
         H           -3.877636465961    -2.152611588186    -0.456820076128     1.007825032230
         H           -3.877617465961     2.152662411814    -0.456651076128     1.007825032230
         H           -5.024671465961     0.000048411814    -0.921318076128     1.007825032230

  Basis Set: AUG-CC-PVTZ
    Blend: AUG-CC-PVTZ
  Basis Set: (AUG-CC-PVTZ AUX)
    Blend: AUG-CC-PVTZ-JKFIT
	 Reference Energy          =   -2193.8680810579899116 [Eh]
	 Singles Energy            =      -0.0000000000000000 [Eh]
	 Same-Spin Energy          =      -0.7056588231233202 [Eh]
	 Opposite-Spin Energy      =      -2.0128190225398050 [Eh]
	 Correlation Energy        =      -2.7184778456631253 [Eh]
	 Total Energy              =   -2196.5865589036529855 [Eh]

	 ================> DF-SCS-MP2 Energies <==================
	-----------------------------------------------------------
	 SCS Same-Spin Scale       =       0.3333333333333333 [-]
	 SCS Opposite-Spin Scale   =       1.2000000000000000 [-]
	 SCS Same-Spin Energy      =      -0.2352196077077734 [Eh]
	 SCS Opposite-Spin Energy  =      -2.4153828270477660 [Eh]
	 SCS Correlation Energy    =      -2.6506024347555392 [Eh]
	 SCS Total Energy          =   -2196.5186834927453674 [Eh]
	-----------------------------------------------------------

  Dipole Moment: [D]
     X:    -3.7494      Y:     0.0002      Z:    -2.9984     Total:     4.8009

*** Psi4 exiting successfully. Buy a developer a beer!
