                               Psi4 1.3.2 release

  ==> Input File <==

--------------------------------------------------------------------------
#psi4
#
memory 32 gb

molecule  {
0 1
 Cl        3.0582810    -0.0000320     0.2153210
 Cl        1.0892650     1.4501210    -1.3457080
 Cl        1.0892300    -1.4499710    -1.3458710
  S        0.2835450    -0.0000560     1.1319340
  O        0.5140435     1.2969295     1.7687730
  O        0.5217120    -1.2850930     1.7898260
  C       -1.3508290    -0.0000210     0.4539040
  C        1.4090800     0.0000190    -0.3971410
  C       -1.9834610    -1.2238950     0.2202880
  C       -1.9834510     1.2238780     0.2203840
  C       -3.2836100    -1.2122960    -0.2842060
  C       -3.2836000     1.2123300    -0.2841110
  C       -3.9288570     0.0000300    -0.5427800
  H       -1.4734280    -2.1539290     0.4522940
  H       -1.4734140     2.1538900     0.4524690
  H       -3.7956980    -2.1526110    -0.4704350
  H       -3.7956790     2.1526630    -0.4702660
  H       -4.9427330     0.0000490    -0.9349330
units angstrom
no_reorient  #important for SAPT in psi4, default
symmetry c1  #important for SAPT in psi4, default
}

set PROPERTIES_ORIGIN ["COM"]
properties('MP2/aug-cc-pvtz', properties = ['dipole'])
--------------------------------------------------------------------------

    Molecular point group: c1
  Charge       = 0
  Multiplicity = 1
  Basis Set: AUG-CC-PVTZ
    Blend: AUG-CC-PVTZ
  Basis Set: (AUG-CC-PVTZ AUX)
    Blend: AUG-CC-PVTZ-JKFIT

    Orbital Energies [Eh]
    ---------------------

    Doubly Occupied:

       1A   -104.880544     2A   -104.880460     3A   -104.876522
       4A    -92.212145     5A    -20.570514     6A    -20.569201
       7A    -11.466580     8A    -11.294417     9A    -11.281871
      10A    -11.281748    11A    -11.277681    12A    -11.267500
      13A    -11.267416    14A    -10.604860    15A    -10.604763
      16A    -10.600641    17A     -9.180432    18A     -8.071648
      19A     -8.071551    20A     -8.069423    21A     -8.069384
      22A     -8.069324    23A     -8.069284    24A     -8.067447
      25A     -8.065143    26A     -8.065113    27A     -6.865140
      28A     -6.864484    29A     -6.864136    30A     -1.463595
      31A     -1.355926    32A     -1.259779    33A     -1.192702
      34A     -1.130480    35A     -1.128487    36A     -1.072216
      37A     -1.052621    38A     -0.957886    39A     -0.870968
      40A     -0.864933    41A     -0.802434    42A     -0.745227
      43A     -0.713554    44A     -0.686494    45A     -0.677179
      46A     -0.654482    47A     -0.650286    48A     -0.638930
      49A     -0.631631    50A     -0.625105    51A     -0.558403
      52A     -0.547296    53A     -0.541692    54A     -0.533242
      55A     -0.523007    56A     -0.518225    57A     -0.516689
      58A     -0.498391    59A     -0.495868    60A     -0.475944
      61A     -0.470032    62A     -0.460436    63A     -0.437108
      64A     -0.381288    65A     -0.369029

  @DF-RHF Final Energy: -2193.86780144442719

   => Energetics <=

    Nuclear Repulsion Energy =           1337.7043802091784528
    One-Electron Energy =               -5687.4824924491658749
    Two-Electron Energy =                2155.9103107955602354
    Total Energy =                      -2193.8678014444271867
  Basis Set: (AUG-CC-PVTZ AUX)
    Blend: AUG-CC-PVTZ-RI
    Molecular point group: c1

    Geometry (in Angstrom), charge = 0, multiplicity = 1:

       Center              X                  Y                   Z               Mass
    ------------   -----------------  -----------------  -----------------  -----------------
         CL           2.979580083378    -0.000777469280     0.222395439971    34.968852682000
         CL           1.010564083378     1.449375530720    -1.338633560029    34.968852682000
         CL           1.010529083378    -1.450716469280    -1.338796560029    34.968852682000
         S            0.204844083378    -0.000801469280     1.139008439971    31.972071174400
         O            0.435342583378     1.296184030720     1.775847439971    15.994914619570
         O            0.443011083378    -1.285838469280     1.796900439971    15.994914619570
         C           -1.429529916622    -0.000766469280     0.460978439971    12.000000000000
         C            1.330379083378    -0.000726469280    -0.390066560029    12.000000000000
         C           -2.062161916622    -1.224640469280     0.227362439971    12.000000000000
         C           -2.062151916622     1.223132530720     0.227458439971    12.000000000000
         C           -3.362310916622    -1.213041469280    -0.277131560029    12.000000000000
         C           -3.362300916622     1.211584530720    -0.277036560029    12.000000000000
         C           -4.007557916622    -0.000715469280    -0.535705560029    12.000000000000
         H           -1.552128916622    -2.154674469280     0.459368439971     1.007825032230
         H           -1.552114916622     2.153144530720     0.459543439971     1.007825032230
         H           -3.874398916622    -2.153356469280    -0.463360560029     1.007825032230
         H           -3.874379916622     2.151917530720    -0.463191560029     1.007825032230
         H           -5.021433916622    -0.000696469280    -0.927858560029     1.007825032230

  Basis Set: AUG-CC-PVTZ
    Blend: AUG-CC-PVTZ
  Basis Set: (AUG-CC-PVTZ AUX)
    Blend: AUG-CC-PVTZ-JKFIT
	 Reference Energy          =   -2193.8678014444271867 [Eh]
	 Singles Energy            =      -0.0000000000000000 [Eh]
	 Same-Spin Energy          =      -0.7058961042464091 [Eh]
	 Opposite-Spin Energy      =      -2.0131468512117929 [Eh]
	 Correlation Energy        =      -2.7190429554582023 [Eh]
	 Total Energy              =   -2196.5868443998851944 [Eh]

	 ================> DF-SCS-MP2 Energies <==================
	-----------------------------------------------------------
	 SCS Same-Spin Scale       =       0.3333333333333333 [-]
	 SCS Opposite-Spin Scale   =       1.2000000000000000 [-]
	 SCS Same-Spin Energy      =      -0.2352987014154697 [Eh]
	 SCS Opposite-Spin Energy  =      -2.4157762214541516 [Eh]
	 SCS Correlation Energy    =      -2.6510749228696211 [Eh]
	 SCS Total Energy          =   -2196.5188763672967980 [Eh]
	-----------------------------------------------------------

  Dipole Moment: [D]
     X:    -3.6853      Y:    -0.0186      Z:    -2.9544     Total:     4.7234

*** Psi4 exiting successfully. Buy a developer a beer!
