                               Psi4 1.3.2 release

  ==> Input File <==

--------------------------------------------------------------------------
#psi4
#
memory 32 gb

molecule  {
0 1
 Cl        3.0582810    -0.0000320     0.2153210
 Cl        1.0892650     1.4501210    -1.3457080
 Cl        1.0892300    -1.4499710    -1.3458710
  S        0.2835450    -0.0000560     1.1319340
  O        0.5661261     1.2047236     1.9126510
  O        0.5217120    -1.2850930     1.7898260
  C       -1.3508290    -0.0000210     0.4539040
  C        1.4090800     0.0000190    -0.3971410
  C       -1.9834610    -1.2238950     0.2202880
  C       -1.9834510     1.2238780     0.2203840
  C       -3.2836100    -1.2122960    -0.2842060
  C       -3.2836000     1.2123300    -0.2841110
  C       -3.9288570     0.0000300    -0.5427800
  H       -1.4734280    -2.1539290     0.4522940
  H       -1.4734140     2.1538900     0.4524690
  H       -3.7956980    -2.1526110    -0.4704350
  H       -3.7956790     2.1526630    -0.4702660
  H       -4.9427330     0.0000490    -0.9349330
units angstrom
no_reorient  #important for SAPT in psi4, default
symmetry c1  #important for SAPT in psi4, default
}

set PROPERTIES_ORIGIN ["COM"]
properties('MP2/aug-cc-pvtz', properties = ['dipole'])
--------------------------------------------------------------------------

    Molecular point group: c1
  Charge       = 0
  Multiplicity = 1
  Basis Set: AUG-CC-PVTZ
    Blend: AUG-CC-PVTZ
  Basis Set: (AUG-CC-PVTZ AUX)
    Blend: AUG-CC-PVTZ-JKFIT

    Orbital Energies [Eh]
    ---------------------

    Doubly Occupied:

       1A   -104.883200     2A   -104.882749     3A   -104.877246
       4A    -92.209352     5A    -20.567003     6A    -20.559106
       7A    -11.469419     8A    -11.298006     9A    -11.284677
      10A    -11.284094    11A    -11.279507    12A    -11.269578
      13A    -11.269407    14A    -10.607529    15A    -10.606995
      16A    -10.601310    17A     -9.178015    18A     -8.074315
      19A     -8.073782    20A     -8.072090    21A     -8.072053
      22A     -8.071546    23A     -8.071501    24A     -8.068116
      25A     -8.065796    26A     -8.065769    27A     -6.862681
      28A     -6.861923    29A     -6.861760    30A     -1.460572
      31A     -1.344633    32A     -1.262022    33A     -1.195212
      34A     -1.132884    35A     -1.129585    36A     -1.075383
      37A     -1.054806    38A     -0.960742    39A     -0.872255
      40A     -0.867163    41A     -0.803207    42A     -0.744710
      43A     -0.712970    44A     -0.686884    45A     -0.676414
      46A     -0.655060    47A     -0.651713    48A     -0.640388
      49A     -0.628852    50A     -0.625718    51A     -0.560270
      52A     -0.547742    53A     -0.544015    54A     -0.534908
      55A     -0.521554    56A     -0.518488    57A     -0.511398
      58A     -0.499155    59A     -0.489637    60A     -0.476993
      61A     -0.469127    62A     -0.461753    63A     -0.438707
      64A     -0.383347    65A     -0.371072

  @DF-RHF Final Energy: -2193.86695834687089

   => Energetics <=

    Nuclear Repulsion Energy =           1335.8039966507190002
    One-Electron Energy =               -5683.6261843765742015
    Two-Electron Energy =                2153.9552293789838586
    Total Energy =                      -2193.8669583468708879
  Basis Set: (AUG-CC-PVTZ AUX)
    Blend: AUG-CC-PVTZ-RI
    Molecular point group: c1

    Geometry (in Angstrom), charge = 0, multiplicity = 1:

       Center              X                  Y                   Z               Mass
    ------------   -----------------  -----------------  -----------------  -----------------
         CL           2.976350024268     0.004940956976     0.213472412997    34.968852682000
         CL           1.007334024268     1.455093956976    -1.347556587003    34.968852682000
         CL           1.007299024268    -1.444998043024    -1.347719587003    34.968852682000
         S            0.201614024268     0.004916956976     1.130085412997    31.972071174400
         O            0.484195124268     1.209696556976     1.910802412997    15.994914619570
         O            0.439781024268    -1.280120043024     1.787977412997    15.994914619570
         C           -1.432759975732     0.004951956976     0.452055412997    12.000000000000
         C            1.327149024268     0.004991956976    -0.398989587003    12.000000000000
         C           -2.065391975732    -1.218922043024     0.218439412997    12.000000000000
         C           -2.065381975732     1.228850956976     0.218535412997    12.000000000000
         C           -3.365540975732    -1.207323043024    -0.286054587003    12.000000000000
         C           -3.365530975732     1.217302956976    -0.285959587003    12.000000000000
         C           -4.010787975732     0.005002956976    -0.544628587003    12.000000000000
         H           -1.555358975732    -2.148956043024     0.450445412997     1.007825032230
         H           -1.555344975732     2.158862956976     0.450620412997     1.007825032230
         H           -3.877628975732    -2.147638043024    -0.472283587003     1.007825032230
         H           -3.877609975732     2.157635956976    -0.472114587003     1.007825032230
         H           -5.024663975732     0.005021956976    -0.936781587003     1.007825032230

  Basis Set: AUG-CC-PVTZ
    Blend: AUG-CC-PVTZ
  Basis Set: (AUG-CC-PVTZ AUX)
    Blend: AUG-CC-PVTZ-JKFIT
	 Reference Energy          =   -2193.8669583468708879 [Eh]
	 Singles Energy            =      -0.0000000000000000 [Eh]
	 Same-Spin Energy          =      -0.7054226559035356 [Eh]
	 Opposite-Spin Energy      =      -2.0124360613841104 [Eh]
	 Correlation Energy        =      -2.7178587172876458 [Eh]
	 Total Energy              =   -2196.5848170641584147 [Eh]

	 ================> DF-SCS-MP2 Energies <==================
	-----------------------------------------------------------
	 SCS Same-Spin Scale       =       0.3333333333333333 [-]
	 SCS Opposite-Spin Scale   =       1.2000000000000000 [-]
	 SCS Same-Spin Energy      =      -0.2351408853011785 [Eh]
	 SCS Opposite-Spin Energy  =      -2.4149232736609325 [Eh]
	 SCS Correlation Energy    =      -2.6500641589621110 [Eh]
	 SCS Total Energy          =   -2196.5170225058332107 [Eh]
	-----------------------------------------------------------

  Dipole Moment: [D]
     X:    -3.8237      Y:     0.1285      Z:    -3.3238     Total:     5.0680

*** Psi4 exiting successfully. Buy a developer a beer!
