                               Psi4 1.3.2 release

  ==> Input File <==

--------------------------------------------------------------------------
#psi4
#
memory 32 gb

molecule  {
0 1
 Cl        3.0582810    -0.0000320     0.2153210
 Cl        1.0892650     1.4501210    -1.3457080
 Cl        1.0892300    -1.4499710    -1.3458710
  S        0.2830653     0.0616818     1.1302804
  O        0.5217130     1.2849120     1.7899600
  O        0.5217120    -1.2850930     1.7898260
  C       -1.3508290    -0.0000210     0.4539040
  C        1.4090800     0.0000190    -0.3971410
  C       -1.9834610    -1.2238950     0.2202880
  C       -1.9834510     1.2238780     0.2203840
  C       -3.2836100    -1.2122960    -0.2842060
  C       -3.2836000     1.2123300    -0.2841110
  C       -3.9288570     0.0000300    -0.5427800
  H       -1.4734280    -2.1539290     0.4522940
  H       -1.4734140     2.1538900     0.4524690
  H       -3.7956980    -2.1526110    -0.4704350
  H       -3.7956790     2.1526630    -0.4702660
  H       -4.9427330     0.0000490    -0.9349330
units angstrom
no_reorient  #important for SAPT in psi4, default
symmetry c1  #important for SAPT in psi4, default
}

set PROPERTIES_ORIGIN ["COM"]
properties('MP2/aug-cc-pvtz', properties = ['dipole'])
--------------------------------------------------------------------------

    Molecular point group: c1
  Charge       = 0
  Multiplicity = 1
  Basis Set: AUG-CC-PVTZ
    Blend: AUG-CC-PVTZ
  Basis Set: (AUG-CC-PVTZ AUX)
    Blend: AUG-CC-PVTZ-JKFIT

    Orbital Energies [Eh]
    ---------------------

    Doubly Occupied:

       1A   -104.881046     2A   -104.880764     3A   -104.876654
       4A    -92.210426     5A    -20.580637     6A    -20.556576
       7A    -11.467072     8A    -11.295056     9A    -11.282342
      10A    -11.282103    11A    -11.277966    12A    -11.267836
      13A    -11.267755    14A    -10.605235    15A    -10.605194
      16A    -10.600760    17A     -9.179469    18A     -8.072018
      19A     -8.071986    20A     -8.069804    21A     -8.069769
      22A     -8.069748    23A     -8.069703    24A     -8.067565
      25A     -8.065260    26A     -8.065228    27A     -6.864084
      28A     -6.863660    29A     -6.862972    30A     -1.477664
      31A     -1.341466    32A     -1.259780    33A     -1.193078
      34A     -1.130997    35A     -1.128586    36A     -1.072827
      37A     -1.052922    38A     -0.958392    39A     -0.871647
      40A     -0.865036    41A     -0.802764    42A     -0.745950
      43A     -0.715104    44A     -0.688968    45A     -0.677839
      46A     -0.654643    47A     -0.650876    48A     -0.639819
      49A     -0.631823    50A     -0.625088    51A     -0.559996
      52A     -0.553402    53A     -0.542838    54A     -0.533010
      55A     -0.520902    56A     -0.516523    57A     -0.515682
      58A     -0.499385    59A     -0.487700    60A     -0.475634
      61A     -0.468878    62A     -0.460445    63A     -0.436217
      64A     -0.381555    65A     -0.369339

  @DF-RHF Final Energy: -2193.86143122278554

   => Energetics <=

    Nuclear Repulsion Energy =           1337.5058915845263527
    One-Electron Energy =               -5687.0637194825312690
    Two-Electron Energy =                2155.6963966752191482
    Total Energy =                      -2193.8614312227855407
  Basis Set: (AUG-CC-PVTZ AUX)
    Blend: AUG-CC-PVTZ-RI
    Molecular point group: c1

    Geometry (in Angstrom), charge = 0, multiplicity = 1:

       Center              X                  Y                   Z               Mass
    ------------   -----------------  -----------------  -----------------  -----------------
         CL           2.979163903312    -0.007685627715     0.221286456532    34.968852682000
         CL           1.010147903312     1.442467372285    -1.339742543468    34.968852682000
         CL           1.010112903312    -1.457624627715    -1.339905543468    34.968852682000
         S            0.203948203312     0.054028172285     1.136245856532    31.972071174400
         O            0.442595903312     1.277258372285     1.795925456532    15.994914619570
         O            0.442594903312    -1.292746627715     1.795791456532    15.994914619570
         C           -1.429946096688    -0.007674627715     0.459869456532    12.000000000000
         C            1.329962903312    -0.007634627715    -0.391175543468    12.000000000000
         C           -2.062578096688    -1.231548627715     0.226253456532    12.000000000000
         C           -2.062568096688     1.216224372285     0.226349456532    12.000000000000
         C           -3.362727096688    -1.219949627715    -0.278240543468    12.000000000000
         C           -3.362717096688     1.204676372285    -0.278145543468    12.000000000000
         C           -4.007974096688    -0.007623627715    -0.536814543468    12.000000000000
         H           -1.552545096688    -2.161582627715     0.458259456532     1.007825032230
         H           -1.552531096688     2.146236372285     0.458434456532     1.007825032230
         H           -3.874815096688    -2.160264627715    -0.464469543468     1.007825032230
         H           -3.874796096688     2.145009372285    -0.464300543468     1.007825032230
         H           -5.021850096688    -0.007604627715    -0.928967543468     1.007825032230

  Basis Set: AUG-CC-PVTZ
    Blend: AUG-CC-PVTZ
  Basis Set: (AUG-CC-PVTZ AUX)
    Blend: AUG-CC-PVTZ-JKFIT
	 Reference Energy          =   -2193.8614312227855407 [Eh]
	 Singles Energy            =      -0.0000000000000000 [Eh]
	 Same-Spin Energy          =      -0.7056561640208555 [Eh]
	 Opposite-Spin Energy      =      -2.0128574635795107 [Eh]
	 Correlation Energy        =      -2.7185136276003661 [Eh]
	 Total Energy              =   -2196.5799448503858002 [Eh]

	 ================> DF-SCS-MP2 Energies <==================
	-----------------------------------------------------------
	 SCS Same-Spin Scale       =       0.3333333333333333 [-]
	 SCS Opposite-Spin Scale   =       1.2000000000000000 [-]
	 SCS Same-Spin Energy      =      -0.2352187213402852 [Eh]
	 SCS Opposite-Spin Energy  =      -2.4154289562954125 [Eh]
	 SCS Correlation Energy    =      -2.6506476776356975 [Eh]
	 SCS Total Energy          =   -2196.5120789004213293 [Eh]
	-----------------------------------------------------------

  Dipole Moment: [D]
     X:    -3.7115      Y:     0.4032      Z:    -3.0320     Total:     4.8095

*** Psi4 exiting successfully. Buy a developer a beer!
