                               Psi4 1.3.2 release

  ==> Input File <==

--------------------------------------------------------------------------
#psi4
#
memory 32 gb

molecule  {
0 1
 Cl        3.0473409    -0.0000335     0.2440102
 Cl        1.0892650     1.4501210    -1.3457080
 Cl        1.0892300    -1.4499710    -1.3458710
  S        0.2835450    -0.0000560     1.1319340
  O        0.5217130     1.2849120     1.7899600
  O        0.5217120    -1.2850930     1.7898260
  C       -1.3508290    -0.0000210     0.4539040
  C        1.4090800     0.0000190    -0.3971410
  C       -1.9834610    -1.2238950     0.2202880
  C       -1.9834510     1.2238780     0.2203840
  C       -3.2836100    -1.2122960    -0.2842060
  C       -3.2836000     1.2123300    -0.2841110
  C       -3.9288570     0.0000300    -0.5427800
  H       -1.4734280    -2.1539290     0.4522940
  H       -1.4734140     2.1538900     0.4524690
  H       -3.7956980    -2.1526110    -0.4704350
  H       -3.7956790     2.1526630    -0.4702660
  H       -4.9427330     0.0000490    -0.9349330
units angstrom
no_reorient  #important for SAPT in psi4, default
symmetry c1  #important for SAPT in psi4, default
}

set PROPERTIES_ORIGIN ["COM"]
properties('MP2/aug-cc-pvtz', properties = ['dipole'])
--------------------------------------------------------------------------

    Molecular point group: c1
  Charge       = 0
  Multiplicity = 1
  Basis Set: AUG-CC-PVTZ
    Blend: AUG-CC-PVTZ
  Basis Set: (AUG-CC-PVTZ AUX)
    Blend: AUG-CC-PVTZ-JKFIT

    Orbital Energies [Eh]
    ---------------------

    Doubly Occupied:

       1A   -104.881281     2A   -104.881280     3A   -104.876667
       4A    -92.211291     5A    -20.568737     6A    -20.568717
       7A    -11.467099     8A    -11.294671     9A    -11.282003
      10A    -11.281931    11A    -11.277742    12A    -11.267657
      13A    -11.267576    14A    -10.605556    15A    -10.605547
      16A    -10.600783    17A     -9.179671    18A     -8.072341
      19A     -8.072340    20A     -8.070114    21A     -8.070113
      22A     -8.070074    23A     -8.070073    24A     -8.067589
      25A     -8.065282    26A     -8.065251    27A     -6.864372
      28A     -6.863692    29A     -6.863384    30A     -1.462980
      31A     -1.354214    32A     -1.259946    33A     -1.192881
      34A     -1.131010    35A     -1.129294    36A     -1.072484
      37A     -1.052770    38A     -0.958009    39A     -0.870956
      40A     -0.865082    41A     -0.802406    42A     -0.745064
      43A     -0.713345    44A     -0.686365    45A     -0.676885
      46A     -0.654541    47A     -0.650473    48A     -0.639417
      49A     -0.631093    50A     -0.625157    51A     -0.558564
      52A     -0.546931    53A     -0.541913    54A     -0.533273
      55A     -0.522015    56A     -0.517721    57A     -0.517357
      58A     -0.498246    59A     -0.495008    60A     -0.476680
      61A     -0.470349    62A     -0.461082    63A     -0.436853
      64A     -0.381345    65A     -0.369188

  @DF-RHF Final Energy: -2193.86799993979594

   => Energetics <=

    Nuclear Repulsion Energy =           1337.8638829504077421
    One-Electron Energy =               -5687.7963025999633828
    Two-Electron Energy =                2156.0644197097594770
    Total Energy =                      -2193.8679999397959364
  Basis Set: (AUG-CC-PVTZ AUX)
    Blend: AUG-CC-PVTZ-RI
    Molecular point group: c1

    Geometry (in Angstrom), charge = 0, multiplicity = 1:

       Center              X                  Y                   Z               Mass
    ------------   -----------------  -----------------  -----------------  -----------------
         CL           2.969647668937    -0.000033464487     0.245880788865    34.968852682000
         CL           1.011571768937     1.450121035513    -1.343837411135    34.968852682000
         CL           1.011536768937    -1.449970964487    -1.344000411135    34.968852682000
         S            0.205851768937    -0.000055964487     1.133804588865    31.972071174400
         O            0.444019768937     1.284912035513     1.791830588865    15.994914619570
         O            0.444018768937    -1.285092964487     1.791696588865    15.994914619570
         C           -1.428522231063    -0.000020964487     0.455774588865    12.000000000000
         C            1.331386768937     0.000019035513    -0.395270411135    12.000000000000
         C           -2.061154231063    -1.223894964487     0.222158588865    12.000000000000
         C           -2.061144231063     1.223878035513     0.222254588865    12.000000000000
         C           -3.361303231063    -1.212295964487    -0.282335411135    12.000000000000
         C           -3.361293231063     1.212330035513    -0.282240411135    12.000000000000
         C           -4.006550231063     0.000030035513    -0.540909411135    12.000000000000
         H           -1.551121231063    -2.153928964487     0.454164588865     1.007825032230
         H           -1.551107231063     2.153890035513     0.454339588865     1.007825032230
         H           -3.873391231063    -2.152610964487    -0.468564411135     1.007825032230
         H           -3.873372231063     2.152663035513    -0.468395411135     1.007825032230
         H           -5.020426231063     0.000049035513    -0.933062411135     1.007825032230

  Basis Set: AUG-CC-PVTZ
    Blend: AUG-CC-PVTZ
  Basis Set: (AUG-CC-PVTZ AUX)
    Blend: AUG-CC-PVTZ-JKFIT
	 Reference Energy          =   -2193.8679999397959364 [Eh]
	 Singles Energy            =      -0.0000000000000000 [Eh]
	 Same-Spin Energy          =      -0.7058868224758998 [Eh]
	 Opposite-Spin Energy      =      -2.0131026159051975 [Eh]
	 Correlation Energy        =      -2.7189894383810973 [Eh]
	 Total Energy              =   -2196.5869893781768951 [Eh]

	 ================> DF-SCS-MP2 Energies <==================
	-----------------------------------------------------------
	 SCS Same-Spin Scale       =       0.3333333333333333 [-]
	 SCS Opposite-Spin Scale   =       1.2000000000000000 [-]
	 SCS Same-Spin Energy      =      -0.2352956074919666 [Eh]
	 SCS Opposite-Spin Energy  =      -2.4157231390862370 [Eh]
	 SCS Correlation Energy    =      -2.6510187465782038 [Eh]
	 SCS Total Energy          =   -2196.5190186863742383 [Eh]
	-----------------------------------------------------------

  Dipole Moment: [D]
     X:    -3.6836      Y:     0.0002      Z:    -3.0140     Total:     4.7595

*** Psi4 exiting successfully. Buy a developer a beer!
