                               Psi4 1.3.2 release

  ==> Input File <==

--------------------------------------------------------------------------
#psi4
#
memory 32 gb

molecule  {
0 1
 Cl        3.0582810    -0.0000320     0.2153210
 Cl        1.0892650     1.4501210    -1.3457080
 Cl        1.0892300    -1.4499710    -1.3458710
  S        0.2835450    -0.0000560     1.1319340
  O        0.6611731     1.2320817     1.8248254
  O        0.5217120    -1.2850930     1.7898260
  C       -1.3508290    -0.0000210     0.4539040
  C        1.4090800     0.0000190    -0.3971410
  C       -1.9834610    -1.2238950     0.2202880
  C       -1.9834510     1.2238780     0.2203840
  C       -3.2836100    -1.2122960    -0.2842060
  C       -3.2836000     1.2123300    -0.2841110
  C       -3.9288570     0.0000300    -0.5427800
  H       -1.4734280    -2.1539290     0.4522940
  H       -1.4734140     2.1538900     0.4524690
  H       -3.7956980    -2.1526110    -0.4704350
  H       -3.7956790     2.1526630    -0.4702660
  H       -4.9427330     0.0000490    -0.9349330
units angstrom
no_reorient  #important for SAPT in psi4, default
symmetry c1  #important for SAPT in psi4, default
}

set PROPERTIES_ORIGIN ["COM"]
properties('MP2/aug-cc-pvtz', properties = ['dipole'])
--------------------------------------------------------------------------

    Molecular point group: c1
  Charge       = 0
  Multiplicity = 1
  Basis Set: AUG-CC-PVTZ
    Blend: AUG-CC-PVTZ
  Basis Set: (AUG-CC-PVTZ AUX)
    Blend: AUG-CC-PVTZ-JKFIT

    Orbital Energies [Eh]
    ---------------------

    Doubly Occupied:

       1A   -104.879537     2A   -104.878547     3A   -104.873484
       4A    -92.210646     5A    -20.567442     6A    -20.563091
       7A    -11.463665     8A    -11.300937     9A    -11.286832
      10A    -11.286319    11A    -11.281460    12A    -11.271166
      13A    -11.271068    14A    -10.603888    15A    -10.602903
      16A    -10.597566    17A     -9.179148    18A     -8.070676
      19A     -8.069691    20A     -8.068465    21A     -8.068423
      22A     -8.067480    23A     -8.067440    24A     -8.064372
      25A     -8.062062    26A     -8.062034    27A     -6.863866
      28A     -6.863104    29A     -6.862867    30A     -1.461751
      31A     -1.348466    32A     -1.257695    33A     -1.197259
      34A     -1.129225    35A     -1.125941    36A     -1.077252
      37A     -1.056645    38A     -0.958872    39A     -0.872024
      40A     -0.869049    41A     -0.803776    42A     -0.745173
      43A     -0.712872    44A     -0.687935    45A     -0.677902
      46A     -0.653840    47A     -0.652593    48A     -0.637817
      49A     -0.630212    50A     -0.626953    51A     -0.562083
      52A     -0.546562    53A     -0.543896    54A     -0.536633
      55A     -0.519620    56A     -0.517111    57A     -0.513019
      58A     -0.499082    59A     -0.490893    60A     -0.473558
      61A     -0.467197    62A     -0.458410    63A     -0.435810
      64A     -0.385409    65A     -0.372724

  @DF-RHF Final Energy: -2193.86671037401629

   => Energetics <=

    Nuclear Repulsion Energy =           1337.2062088664913517
    One-Electron Energy =               -5686.5189674483335693
    Two-Electron Energy =                2155.4460482078256973
    Total Energy =                      -2193.8667103740162929
  Basis Set: (AUG-CC-PVTZ AUX)
    Blend: AUG-CC-PVTZ-RI
    Molecular point group: c1

    Geometry (in Angstrom), charge = 0, multiplicity = 1:

       Center              X                  Y                   Z               Mass
    ------------   -----------------  -----------------  -----------------  -----------------
         CL           2.970455398648     0.003244262108     0.218919181772    34.968852682000
         CL           1.001439398648     1.453397262108    -1.342109818228    34.968852682000
         CL           1.001404398648    -1.446694737892    -1.342272818228    34.968852682000
         S            0.195719398648     0.003220262108     1.135532181772    31.972071174400
         O            0.573347498648     1.235357962108     1.828423581772    15.994914619570
         O            0.433886398648    -1.281816737892     1.793424181772    15.994914619570
         C           -1.438654601352     0.003255262108     0.457502181772    12.000000000000
         C            1.321254398648     0.003295262108    -0.393542818228    12.000000000000
         C           -2.071286601352    -1.220618737892     0.223886181772    12.000000000000
         C           -2.071276601352     1.227154262108     0.223982181772    12.000000000000
         C           -3.371435601352    -1.209019737892    -0.280607818228    12.000000000000
         C           -3.371425601352     1.215606262108    -0.280512818228    12.000000000000
         C           -4.016682601352     0.003306262108    -0.539181818228    12.000000000000
         H           -1.561253601352    -2.150652737892     0.455892181772     1.007825032230
         H           -1.561239601352     2.157166262108     0.456067181772     1.007825032230
         H           -3.883523601352    -2.149334737892    -0.466836818228     1.007825032230
         H           -3.883504601352     2.155939262108    -0.466667818228     1.007825032230
         H           -5.030558601352     0.003325262108    -0.931334818228     1.007825032230

  Basis Set: AUG-CC-PVTZ
    Blend: AUG-CC-PVTZ
  Basis Set: (AUG-CC-PVTZ AUX)
    Blend: AUG-CC-PVTZ-JKFIT
	 Reference Energy          =   -2193.8667103740162929 [Eh]
	 Singles Energy            =      -0.0000000000000000 [Eh]
	 Same-Spin Energy          =      -0.7056560313758634 [Eh]
	 Opposite-Spin Energy      =      -2.0126328714768813 [Eh]
	 Correlation Energy        =      -2.7182889028527448 [Eh]
	 Total Energy              =   -2196.5849992768689845 [Eh]

	 ================> DF-SCS-MP2 Energies <==================
	-----------------------------------------------------------
	 SCS Same-Spin Scale       =       0.3333333333333333 [-]
	 SCS Opposite-Spin Scale   =       1.2000000000000000 [-]
	 SCS Same-Spin Energy      =      -0.2352186771252878 [Eh]
	 SCS Opposite-Spin Energy  =      -2.4151594457722574 [Eh]
	 SCS Correlation Energy    =      -2.6503781228975454 [Eh]
	 SCS Total Energy          =   -2196.5170884969138569 [Eh]
	-----------------------------------------------------------

  Dipole Moment: [D]
     X:    -4.1496      Y:     0.1010      Z:    -3.0724     Total:     5.1642

*** Psi4 exiting successfully. Buy a developer a beer!
