                               Psi4 1.3.2 release

  ==> Input File <==

--------------------------------------------------------------------------
#psi4
#
memory 32 gb

molecule  {
0 1
 Cl        3.0582810    -0.0000320     0.2153210
 Cl        1.0892650     1.4501210    -1.3457080
 Cl        1.0892300    -1.4499710    -1.3458710
  S        0.2835450    -0.0000560     1.1319340
  O        0.5217130     1.2849120     1.7899600
  O        0.5217120    -1.2850930     1.7898260
  C       -1.3508290    -0.0000210     0.4539040
  C        1.4090800     0.0000190    -0.3971410
  C       -1.9834610    -1.2238950     0.2202880
  C       -1.9834510     1.2238780     0.2203840
  C       -3.2836100    -1.2122960    -0.2842060
  C       -3.2836000     1.2123300    -0.2841110
  C       -3.9288570     0.0000300    -0.5427800
  H       -1.4734280    -2.1539290     0.4522940
  H       -1.4734140     2.1538900     0.4524690
  H       -3.7956980    -2.1526110    -0.4704350
  H       -3.7956790     2.1526630    -0.4702660
  H       -4.9427330     0.0000490    -0.9349330
units angstrom
no_reorient  #important for SAPT in psi4, default
symmetry c1  #important for SAPT in psi4, default
}

set PROPERTIES_ORIGIN ["COM"]
properties('MP2/aug-cc-pvtz', properties = ['dipole'])
--------------------------------------------------------------------------

    Molecular point group: c1
  Charge       = 0
  Multiplicity = 1
  Basis Set: AUG-CC-PVTZ
    Blend: AUG-CC-PVTZ
  Basis Set: (AUG-CC-PVTZ AUX)
    Blend: AUG-CC-PVTZ-JKFIT

    Orbital Energies [Eh]
    ---------------------

    Doubly Occupied:

       1A   -104.880872     2A   -104.880872     3A   -104.876628
       4A    -92.211775     5A    -20.568953     6A    -20.568934
       7A    -11.466991     8A    -11.294943     9A    -11.282232
      10A    -11.282160    11A    -11.277953    12A    -11.267803
      13A    -11.267723    14A    -10.605182    15A    -10.605173
      16A    -10.600739    17A     -9.180107    18A     -8.071966
      19A     -8.071966    20A     -8.069740    21A     -8.069738
      22A     -8.069700    23A     -8.069699    24A     -8.067544
      25A     -8.065238    26A     -8.065208    27A     -6.864810
      28A     -6.864136    29A     -6.863821    30A     -1.463137
      31A     -1.354405    32A     -1.260114    33A     -1.193078
      34A     -1.130835    35A     -1.128654    36A     -1.072689
      37A     -1.052947    38A     -0.958298    39A     -0.871158
      40A     -0.865264    41A     -0.802543    42A     -0.745144
      43A     -0.713464    44A     -0.686576    45A     -0.677047
      46A     -0.654552    47A     -0.650503    48A     -0.639149
      49A     -0.631218    50A     -0.625321    51A     -0.558658
      52A     -0.547363    53A     -0.542036    54A     -0.533457
      55A     -0.522492    56A     -0.517572    57A     -0.516990
      58A     -0.498525    59A     -0.495115    60A     -0.476102
      61A     -0.470083    62A     -0.460658    63A     -0.437352
      64A     -0.381595    65A     -0.369335

  @DF-RHF Final Energy: -2193.86815690328831

   => Energetics <=

    Nuclear Repulsion Energy =           1337.4069693966337127
    One-Electron Energy =               -5686.8781890761238174
    Two-Electron Energy =                2155.6030627762015683
    Total Energy =                      -2193.8681569032883090
  Basis Set: (AUG-CC-PVTZ AUX)
    Blend: AUG-CC-PVTZ-RI
    Molecular point group: c1

    Geometry (in Angstrom), charge = 0, multiplicity = 1:

       Center              X                  Y                   Z               Mass
    ------------   -----------------  -----------------  -----------------  -----------------
         CL           2.979104436265    -0.000032167867     0.221081464433    34.968852682000
         CL           1.010088436265     1.450120832133    -1.339947535567    34.968852682000
         CL           1.010053436265    -1.449971167867    -1.340110535567    34.968852682000
         S            0.204368436265    -0.000056167867     1.137694464433    31.972071174400
         O            0.442536436265     1.284911832133     1.795720464433    15.994914619570
         O            0.442535436265    -1.285093167867     1.795586464433    15.994914619570
         C           -1.430005563735    -0.000021167867     0.459664464433    12.000000000000
         C            1.329903436265     0.000018832133    -0.391380535567    12.000000000000
         C           -2.062637563735    -1.223895167867     0.226048464433    12.000000000000
         C           -2.062627563735     1.223877832133     0.226144464433    12.000000000000
         C           -3.362786563735    -1.212296167867    -0.278445535567    12.000000000000
         C           -3.362776563735     1.212329832133    -0.278350535567    12.000000000000
         C           -4.008033563735     0.000029832133    -0.537019535567    12.000000000000
         H           -1.552604563735    -2.153929167867     0.458054464433     1.007825032230
         H           -1.552590563735     2.153889832133     0.458229464433     1.007825032230
         H           -3.874874563735    -2.152611167867    -0.464674535567     1.007825032230
         H           -3.874855563735     2.152662832133    -0.464505535567     1.007825032230
         H           -5.021909563735     0.000048832133    -0.929172535567     1.007825032230

  Basis Set: AUG-CC-PVTZ
    Blend: AUG-CC-PVTZ
  Basis Set: (AUG-CC-PVTZ AUX)
    Blend: AUG-CC-PVTZ-JKFIT
	 Reference Energy          =   -2193.8681569032883090 [Eh]
	 Singles Energy            =      -0.0000000000000000 [Eh]
	 Same-Spin Energy          =      -0.7058010251195289 [Eh]
	 Opposite-Spin Energy      =      -2.0129930103407170 [Eh]
	 Correlation Energy        =      -2.7187940354602458 [Eh]
	 Total Energy              =   -2196.5869509387484868 [Eh]

	 ================> DF-SCS-MP2 Energies <==================
	-----------------------------------------------------------
	 SCS Same-Spin Scale       =       0.3333333333333333 [-]
	 SCS Opposite-Spin Scale   =       1.2000000000000000 [-]
	 SCS Same-Spin Energy      =      -0.2352670083731763 [Eh]
	 SCS Opposite-Spin Energy  =      -2.4155916124088601 [Eh]
	 SCS Correlation Energy    =      -2.6508586207820364 [Eh]
	 SCS Total Energy          =   -2196.5190155240702552 [Eh]
	-----------------------------------------------------------

  Dipole Moment: [D]
     X:    -3.7058      Y:     0.0002      Z:    -3.0090     Total:     4.7736

*** Psi4 exiting successfully. Buy a developer a beer!
