                               Psi4 1.3.2 release

  ==> Input File <==

--------------------------------------------------------------------------
#psi4
#
memory 32 gb

molecule  {
0 1
 Cl        3.1132662    -0.0000226     0.0395774
 Cl        1.0892650     1.4501210    -1.3457080
 Cl        1.0892300    -1.4499710    -1.3458710
  S        0.2835450    -0.0000560     1.1319340
  O        0.5217130     1.2849120     1.7899600
  O        0.5217120    -1.2850930     1.7898260
  C       -1.3508290    -0.0000210     0.4539040
  C        1.4090800     0.0000190    -0.3971410
  C       -1.9834610    -1.2238950     0.2202880
  C       -1.9834510     1.2238780     0.2203840
  C       -3.2836100    -1.2122960    -0.2842060
  C       -3.2836000     1.2123300    -0.2841110
  C       -3.9288570     0.0000300    -0.5427800
  H       -1.4734280    -2.1539290     0.4522940
  H       -1.4734140     2.1538900     0.4524690
  H       -3.7956980    -2.1526110    -0.4704350
  H       -3.7956790     2.1526630    -0.4702660
  H       -4.9427330     0.0000490    -0.9349330
units angstrom
no_reorient  #important for SAPT in psi4, default
symmetry c1  #important for SAPT in psi4, default
}

set PROPERTIES_ORIGIN ["COM"]
properties('MP2/aug-cc-pvtz', properties = ['dipole'])
--------------------------------------------------------------------------

    Molecular point group: c1
  Charge       = 0
  Multiplicity = 1
  Basis Set: AUG-CC-PVTZ
    Blend: AUG-CC-PVTZ
  Basis Set: (AUG-CC-PVTZ AUX)
    Blend: AUG-CC-PVTZ-JKFIT

    Orbital Energies [Eh]
    ---------------------

    Doubly Occupied:

       1A   -104.878351     2A   -104.878351     3A   -104.876104
       4A    -92.214688     5A    -20.570186     6A    -20.570166
       7A    -11.466222     8A    -11.296525     9A    -11.283534
      10A    -11.283464    11A    -11.279150    12A    -11.268624
      13A    -11.268547    14A    -10.602879    15A    -10.602870
      16A    -10.600253    17A     -9.182741    18A     -8.069655
      19A     -8.069654    20A     -8.067430    21A     -8.067429
      22A     -8.067390    23A     -8.067389    24A     -8.067051
      25A     -8.064742    26A     -8.064714    27A     -6.867471
      28A     -6.866802    29A     -6.866457    30A     -1.464161
      31A     -1.355563    32A     -1.261423    33A     -1.194209
      34A     -1.129797    35A     -1.124756    36A     -1.073840
      37A     -1.053955    38A     -0.959943    39A     -0.872268
      40A     -0.866302    41A     -0.803320    42A     -0.745744
      43A     -0.714388    44A     -0.687732    45A     -0.677993
      46A     -0.654654    47A     -0.650707    48A     -0.637156
      49A     -0.631934    50A     -0.626241    51A     -0.559283
      52A     -0.550032    53A     -0.542817    54A     -0.534566
      55A     -0.525572    56A     -0.517116    57A     -0.514542
      58A     -0.500498    59A     -0.495653    60A     -0.471490
      61A     -0.468211    62A     -0.457613    63A     -0.440274
      64A     -0.382962    65A     -0.370154

  @DF-RHF Final Energy: -2193.86643346968594

   => Energetics <=

    Nuclear Repulsion Energy =           1335.1921873687999778
    One-Electron Energy =               -5682.4258248346077380
    Two-Electron Energy =                2153.3672039961220435
    Total Energy =                      -2193.8664334696859441
  Basis Set: (AUG-CC-PVTZ AUX)
    Blend: AUG-CC-PVTZ-RI
    Molecular point group: c1

    Geometry (in Angstrom), charge = 0, multiplicity = 1:

       Center              X                  Y                   Z               Mass
    ------------   -----------------  -----------------  -----------------  -----------------
         CL           3.026634371354    -0.000024042383     0.069166369093    34.968852682000
         CL           1.002633171354     1.450119557617    -1.316119030907    34.968852682000
         CL           1.002598171354    -1.449972442383    -1.316282030907    34.968852682000
         S            0.196913171354    -0.000057442383     1.161522969093    31.972071174400
         O            0.435081171354     1.284910557617     1.819548969093    15.994914619570
         O            0.435080171354    -1.285094442383     1.819414969093    15.994914619570
         C           -1.437460828646    -0.000022442383     0.483492969093    12.000000000000
         C            1.322448171354     0.000017557617    -0.367552030907    12.000000000000
         C           -2.070092828646    -1.223896442383     0.249876969093    12.000000000000
         C           -2.070082828646     1.223876557617     0.249972969093    12.000000000000
         C           -3.370241828646    -1.212297442383    -0.254617030907    12.000000000000
         C           -3.370231828646     1.212328557617    -0.254522030907    12.000000000000
         C           -4.015488828646     0.000028557617    -0.513191030907    12.000000000000
         H           -1.560059828646    -2.153930442383     0.481882969093     1.007825032230
         H           -1.560045828646     2.153888557617     0.482057969093     1.007825032230
         H           -3.882329828646    -2.152612442383    -0.440846030907     1.007825032230
         H           -3.882310828646     2.152661557617    -0.440677030907     1.007825032230
         H           -5.029364828646     0.000047557617    -0.905344030907     1.007825032230

  Basis Set: AUG-CC-PVTZ
    Blend: AUG-CC-PVTZ
  Basis Set: (AUG-CC-PVTZ AUX)
    Blend: AUG-CC-PVTZ-JKFIT
	 Reference Energy          =   -2193.8664334696859441 [Eh]
	 Singles Energy            =      -0.0000000000000000 [Eh]
	 Same-Spin Energy          =      -0.7054858319968134 [Eh]
	 Opposite-Spin Energy      =      -2.0126417434560238 [Eh]
	 Correlation Energy        =      -2.7181275754528373 [Eh]
	 Total Energy              =   -2196.5845610451387984 [Eh]

	 ================> DF-SCS-MP2 Energies <==================
	-----------------------------------------------------------
	 SCS Same-Spin Scale       =       0.3333333333333333 [-]
	 SCS Opposite-Spin Scale   =       1.2000000000000000 [-]
	 SCS Same-Spin Energy      =      -0.2351619439989378 [Eh]
	 SCS Opposite-Spin Energy  =      -2.4151700921472283 [Eh]
	 SCS Correlation Energy    =      -2.6503320361461662 [Eh]
	 SCS Total Energy          =   -2196.5167655058321543 [Eh]
	-----------------------------------------------------------

  Dipole Moment: [D]
     X:    -3.8340      Y:     0.0002      Z:    -2.9745     Total:     4.8526

*** Psi4 exiting successfully. Buy a developer a beer!
