                               Psi4 1.4a3.dev225

  ==> Input File <==

--------------------------------------------------------------------------
#psi4
#
memory 32 gb

molecule  {
0 1
 Cl        3.0582810    -0.0000320     0.2153210
 Cl        1.0892650     1.4501210    -1.3457080
 Cl        1.0892300    -1.4499710    -1.3458710
  S        0.2835450    -0.0000560     1.1319340
  O        0.5217130     1.2849120     1.7899600
  O        0.5217120    -1.2850930     1.7898260
  C       -1.3323556    -0.0000214     0.4615678
  C        1.4090800     0.0000190    -0.3971410
  C       -1.9834610    -1.2238950     0.2202880
  C       -1.9834510     1.2238780     0.2203840
  C       -3.2836100    -1.2122960    -0.2842060
  C       -3.2836000     1.2123300    -0.2841110
  C       -3.9288570     0.0000300    -0.5427800
  H       -1.4734280    -2.1539290     0.4522940
  H       -1.4734140     2.1538900     0.4524690
  H       -3.7956980    -2.1526110    -0.4704350
  H       -3.7956790     2.1526630    -0.4702660
  H       -4.9427330     0.0000490    -0.9349330
units angstrom
no_reorient  #important for SAPT in psi4, default
symmetry c1  #important for SAPT in psi4, default
}

set PROPERTIES_ORIGIN ["COM"]
properties('MP2/aug-cc-pvtz', properties = ['dipole'])
--------------------------------------------------------------------------

    Molecular point group: c1
  Charge       = 0
  Multiplicity = 1
  Basis Set: AUG-CC-PVTZ
    Blend: AUG-CC-PVTZ
  Basis Set: (AUG-CC-PVTZ AUX)
    Blend: AUG-CC-PVTZ-JKFIT

    Orbital Energies [Eh]
    ---------------------

    Doubly Occupied:

       1A   -104.880715     2A   -104.880715     3A   -104.876436
       4A    -92.211907     5A    -20.568628     6A    -20.568609
       7A    -11.466751     8A    -11.294580     9A    -11.284209
      10A    -11.284130    11A    -11.279304    12A    -11.267917
      13A    -11.267844    14A    -10.605025    15A    -10.605016
      16A    -10.600549    17A     -9.180332    18A     -8.071809
      19A     -8.071808    20A     -8.069583    21A     -8.069582
      22A     -8.069543    23A     -8.069542    24A     -8.067354
      25A     -8.065048    26A     -8.065019    27A     -6.865054
      28A     -6.864422    29A     -6.864056    30A     -1.463502
      31A     -1.354319    32A     -1.259969    33A     -1.191399
      34A     -1.130681    35A     -1.128509    36A     -1.074218
      37A     -1.052094    38A     -0.959382    39A     -0.872726
      40A     -0.864207    41A     -0.802304    42A     -0.744877
      43A     -0.714172    44A     -0.687810    45A     -0.677184
      46A     -0.654049    47A     -0.650308    48A     -0.639304
      49A     -0.630597    50A     -0.624294    51A     -0.558887
      52A     -0.547195    53A     -0.540793    54A     -0.531948
      55A     -0.522205    56A     -0.517421    57A     -0.517280
      58A     -0.500099    59A     -0.494942    60A     -0.475975
      61A     -0.469912    62A     -0.460491    63A     -0.438166
      64A     -0.381269    65A     -0.369276

  @DF-RHF Final Energy: -2193.86753183162909

   => Energetics <=

    Nuclear Repulsion Energy =           1337.6680398970891019
    One-Electron Energy =               -5687.3966472307020013
    Two-Electron Energy =                2155.8610755019835779
    Total Energy =                      -2193.8675318316290941
  Basis Set: (AUG-CC-PVTZ AUX)
    Blend: AUG-CC-PVTZ-RI
    Molecular point group: c1

    Geometry (in Angstrom), charge = 0, multiplicity = 1:

       Center              X                  Y                   Z               Mass
    ------------   -----------------  -----------------  -----------------  -----------------
         CL           2.978244900469    -0.000032149256     0.220724880890    34.968852682000
         CL           1.009228900469     1.450120850744    -1.340304119110    34.968852682000
         CL           1.009193900469    -1.449971149256    -1.340467119110    34.968852682000
         S            0.203508900469    -0.000056149256     1.137337880890    31.972071174400
         O            0.441676900469     1.284911850744     1.795363880890    15.994914619570
         O            0.441675900469    -1.285093149256     1.795229880890    15.994914619570
         C           -1.412391699531    -0.000021549256     0.466971680890    12.000000000000
         C            1.329043900469     0.000018850744    -0.391737119110    12.000000000000
         C           -2.063497099531    -1.223895149256     0.225691880890    12.000000000000
         C           -2.063487099531     1.223877850744     0.225787880890    12.000000000000
         C           -3.363646099531    -1.212296149256    -0.278802119110    12.000000000000
         C           -3.363636099531     1.212329850744    -0.278707119110    12.000000000000
         C           -4.008893099531     0.000029850744    -0.537376119110    12.000000000000
         H           -1.553464099531    -2.153929149256     0.457697880890     1.007825032230
         H           -1.553450099531     2.153889850744     0.457872880890     1.007825032230
         H           -3.875734099531    -2.152611149256    -0.465031119110     1.007825032230
         H           -3.875715099531     2.152662850744    -0.464862119110     1.007825032230
         H           -5.022769099531     0.000048850744    -0.929529119110     1.007825032230

  Basis Set: AUG-CC-PVTZ
    Blend: AUG-CC-PVTZ
  Basis Set: (AUG-CC-PVTZ AUX)
    Blend: AUG-CC-PVTZ-JKFIT
	 Reference Energy          =   -2193.8675318316290941 [Eh]
	 Singles Energy            =      -0.0000000000000000 [Eh]
	 Same-Spin Energy          =      -0.7058375793707754 [Eh]
	 Opposite-Spin Energy      =      -2.0130938642443876 [Eh]
	 Correlation Energy        =      -2.7189314436151628 [Eh]
	 Total Energy              =   -2196.5864632752441139 [Eh]

	 ================> DF-SCS-MP2 Energies <==================
	-----------------------------------------------------------
	 SCS Same-Spin Scale       =       0.3333333333333333 [-]
	 SCS Opposite-Spin Scale   =       1.2000000000000000 [-]
	 SCS Same-Spin Energy      =      -0.2352791931235918 [Eh]
	 SCS Opposite-Spin Energy  =      -2.4157126370932649 [Eh]
	 SCS Correlation Energy    =      -2.6509918302168565 [Eh]
	 SCS Total Energy          =   -2196.5185236618458475 [Eh]
	-----------------------------------------------------------

  Dipole Moment: [D]
     X:    -3.7532      Y:     0.0002      Z:    -3.0263     Total:     4.8213

*** Psi4 exiting successfully. Buy a developer a beer!
