                               Psi4 1.3.2 release

  ==> Input File <==

--------------------------------------------------------------------------
#psi4
#
memory 32 gb

molecule  {
0 1
 Cl        3.0582810    -0.0000320     0.2153210
 Cl        1.0892650     1.4501210    -1.3457080
 Cl        1.0892300    -1.4499710    -1.3458710
  S        0.2835450    -0.0000560     1.1319340
  O        0.5217130     1.2849120     1.7899600
  O        0.5217120    -1.2850930     1.7898260
  C       -1.3387468    -0.0000196     0.4254835
  C        1.4090800     0.0000190    -0.3971410
  C       -1.9834610    -1.2238950     0.2202880
  C       -1.9834510     1.2238780     0.2203840
  C       -3.2836100    -1.2122960    -0.2842060
  C       -3.2836000     1.2123300    -0.2841110
  C       -3.9288570     0.0000300    -0.5427800
  H       -1.4734280    -2.1539290     0.4522940
  H       -1.4734140     2.1538900     0.4524690
  H       -3.7956980    -2.1526110    -0.4704350
  H       -3.7956790     2.1526630    -0.4702660
  H       -4.9427330     0.0000490    -0.9349330
units angstrom
no_reorient  #important for SAPT in psi4, default
symmetry c1  #important for SAPT in psi4, default
}

set PROPERTIES_ORIGIN ["COM"]
properties('MP2/aug-cc-pvtz', properties = ['dipole'])
--------------------------------------------------------------------------

    Molecular point group: c1
  Charge       = 0
  Multiplicity = 1
  Basis Set: AUG-CC-PVTZ
    Blend: AUG-CC-PVTZ
  Basis Set: (AUG-CC-PVTZ AUX)
    Blend: AUG-CC-PVTZ-JKFIT

    Orbital Energies [Eh]
    ---------------------

    Doubly Occupied:

       1A   -104.880523     2A   -104.880523     3A   -104.876045
       4A    -92.212177     5A    -20.569803     6A    -20.569783
       7A    -11.466137     8A    -11.295194     9A    -11.282578
      10A    -11.282507    11A    -11.278063    12A    -11.267795
      13A    -11.267715    14A    -10.604839    15A    -10.604830
      16A    -10.600172    17A     -9.180487    18A     -8.071622
      19A     -8.071622    20A     -8.069398    21A     -8.069397
      22A     -8.069358    23A     -8.069358    24A     -8.066978
      25A     -8.064674    26A     -8.064646    27A     -6.865223
      28A     -6.864488    29A     -6.864211    30A     -1.463612
      31A     -1.354983    32A     -1.259757    33A     -1.193003
      34A     -1.130516    35A     -1.128244    36A     -1.072902
      37A     -1.052924    38A     -0.958629    39A     -0.870682
      40A     -0.865163    41A     -0.802447    42A     -0.745088
      43A     -0.713206    44A     -0.687238    45A     -0.677202
      46A     -0.654332    47A     -0.650448    48A     -0.638984
      49A     -0.631260    50A     -0.625361    51A     -0.558907
      52A     -0.547303    53A     -0.541905    54A     -0.533281
      55A     -0.522637    56A     -0.517742    57A     -0.516810
      58A     -0.499363    59A     -0.495505    60A     -0.475824
      61A     -0.469988    62A     -0.460337    63A     -0.437045
      64A     -0.381479    65A     -0.369263

  @DF-RHF Final Energy: -2193.86764169836579

   => Energetics <=

    Nuclear Repulsion Energy =           1337.6430764065783023
    One-Electron Energy =               -5687.3544104601269282
    Two-Electron Energy =                2155.8436923551830660
    Total Energy =                      -2193.8676416983657873
  Basis Set: (AUG-CC-PVTZ AUX)
    Blend: AUG-CC-PVTZ-RI
    Molecular point group: c1

    Geometry (in Angstrom), charge = 0, multiplicity = 1:

       Center              X                  Y                   Z               Mass
    ------------   -----------------  -----------------  -----------------  -----------------
         CL           2.978542272105    -0.000032233007     0.222403821826    34.968852682000
         CL           1.009526272105     1.450120766993    -1.338625178174    34.968852682000
         CL           1.009491272105    -1.449971233007    -1.338788178174    34.968852682000
         S            0.203806272105    -0.000056233007     1.139016821826    31.972071174400
         O            0.441974272105     1.284911766993     1.797042821826    15.994914619570
         O            0.441973272105    -1.285093233007     1.796908821826    15.994914619570
         C           -1.418485527895    -0.000019833007     0.432566321826    12.000000000000
         C            1.329341272105     0.000018766993    -0.390058178174    12.000000000000
         C           -2.063199727895    -1.223895233007     0.227370821826    12.000000000000
         C           -2.063189727895     1.223877766993     0.227466821826    12.000000000000
         C           -3.363348727895    -1.212296233007    -0.277123178174    12.000000000000
         C           -3.363338727895     1.212329766993    -0.277028178174    12.000000000000
         C           -4.008595727895     0.000029766993    -0.535697178174    12.000000000000
         H           -1.553166727895    -2.153929233007     0.459376821826     1.007825032230
         H           -1.553152727895     2.153889766993     0.459551821826     1.007825032230
         H           -3.875436727895    -2.152611233007    -0.463352178174     1.007825032230
         H           -3.875417727895     2.152662766993    -0.463183178174     1.007825032230
         H           -5.022471727895     0.000048766993    -0.927850178174     1.007825032230

  Basis Set: AUG-CC-PVTZ
    Blend: AUG-CC-PVTZ
  Basis Set: (AUG-CC-PVTZ AUX)
    Blend: AUG-CC-PVTZ-JKFIT
	 Reference Energy          =   -2193.8676416983657873 [Eh]
	 Singles Energy            =      -0.0000000000000000 [Eh]
	 Same-Spin Energy          =      -0.7059163628571898 [Eh]
	 Opposite-Spin Energy      =      -2.0132081290329467 [Eh]
	 Correlation Energy        =      -2.7191244918901365 [Eh]
	 Total Energy              =   -2196.5867661902557302 [Eh]

	 ================> DF-SCS-MP2 Energies <==================
	-----------------------------------------------------------
	 SCS Same-Spin Scale       =       0.3333333333333333 [-]
	 SCS Opposite-Spin Scale   =       1.2000000000000000 [-]
	 SCS Same-Spin Energy      =      -0.2353054542857299 [Eh]
	 SCS Opposite-Spin Energy  =      -2.4158497548395359 [Eh]
	 SCS Correlation Energy    =      -2.6511552091252657 [Eh]
	 SCS Total Energy          =   -2196.5187969074909233 [Eh]
	-----------------------------------------------------------

  Dipole Moment: [D]
     X:    -3.7200      Y:     0.0002      Z:    -2.9811     Total:     4.7671

*** Psi4 exiting successfully. Buy a developer a beer!
