                               Psi4 1.4a3.dev225

  ==> Input File <==

--------------------------------------------------------------------------
#psi4
#
memory 32 gb

molecule  {
0 1
 Cl        3.0582810    -0.0000320     0.2153210
 Cl        1.0892650     1.4501210    -1.3457080
 Cl        1.0892300    -1.4499710    -1.3458710
  S        0.2835450    -0.0000560     1.1319340
  O        0.5217130     1.2849120     1.7899600
  O        0.5217120    -1.2850930     1.7898260
  C       -1.3046455    -0.0000220     0.4730635
  C        1.4090800     0.0000190    -0.3971410
  C       -1.9834610    -1.2238950     0.2202880
  C       -1.9834510     1.2238780     0.2203840
  C       -3.2836100    -1.2122960    -0.2842060
  C       -3.2836000     1.2123300    -0.2841110
  C       -3.9288570     0.0000300    -0.5427800
  H       -1.4734280    -2.1539290     0.4522940
  H       -1.4734140     2.1538900     0.4524690
  H       -3.7956980    -2.1526110    -0.4704350
  H       -3.7956790     2.1526630    -0.4702660
  H       -4.9427330     0.0000490    -0.9349330
units angstrom
no_reorient  #important for SAPT in psi4, default
symmetry c1  #important for SAPT in psi4, default
}

set PROPERTIES_ORIGIN ["COM"]
properties('MP2/aug-cc-pvtz', properties = ['dipole'])
--------------------------------------------------------------------------

    Molecular point group: c1
  Charge       = 0
  Multiplicity = 1
  Basis Set: AUG-CC-PVTZ
    Blend: AUG-CC-PVTZ
  Basis Set: (AUG-CC-PVTZ AUX)
    Blend: AUG-CC-PVTZ-JKFIT

    Orbital Energies [Eh]
    ---------------------

    Doubly Occupied:

       1A   -104.880390     2A   -104.880390     3A   -104.876013
       4A    -92.211696     5A    -20.567935     6A    -20.567915
       7A    -11.466214     8A    -11.294075     9A    -11.287421
      10A    -11.287321    11A    -11.281543    12A    -11.268246
      13A    -11.268182    14A    -10.604701    15A    -10.604692
      16A    -10.600129    17A     -9.180328    18A     -8.071484
      19A     -8.071484    20A     -8.069261    21A     -8.069259
      22A     -8.069220    23A     -8.069219    24A     -8.066935
      25A     -8.064630    26A     -8.064601    27A     -6.865074
      28A     -6.864505    29A     -6.864059    30A     -1.463921
      31A     -1.354005    32A     -1.259636    33A     -1.189173
      34A     -1.130360    35A     -1.128188    36A     -1.076787
      37A     -1.051113    38A     -0.960988    39A     -0.875021
      40A     -0.862742    41A     -0.801905    42A     -0.744519
      43A     -0.715267    44A     -0.689566    45A     -0.677469
      46A     -0.653374    47A     -0.650007    48A     -0.639409
      49A     -0.629890    50A     -0.622564    51A     -0.559414
      52A     -0.546898    53A     -0.539094    54A     -0.529818
      55A     -0.521603    56A     -0.518135    57A     -0.516480
      58A     -0.502010    59A     -0.494522    60A     -0.475696
      61A     -0.469546    62A     -0.460140    63A     -0.439052
      64A     -0.380865    65A     -0.369370

  @DF-RHF Final Energy: -2193.86498774164011

   => Energetics <=

    Nuclear Repulsion Energy =           1338.0776188396314410
    One-Electron Energy =               -5688.2142708443443553
    Two-Electron Energy =                2156.2716642630730348
    Total Energy =                      -2193.8649877416401068
  Basis Set: (AUG-CC-PVTZ AUX)
    Blend: AUG-CC-PVTZ-RI
    Molecular point group: c1

    Geometry (in Angstrom), charge = 0, multiplicity = 1:

       Center              X                  Y                   Z               Mass
    ------------   -----------------  -----------------  -----------------  -----------------
         CL           2.976955596776    -0.000032121339     0.220190005575    34.968852682000
         CL           1.007939596776     1.450120878661    -1.340838994425    34.968852682000
         CL           1.007904596776    -1.449971121339    -1.341001994425    34.968852682000
         S            0.202219596776    -0.000056121339     1.136803005575    31.972071174400
         O            0.440387596776     1.284911878661     1.794829005575    15.994914619570
         O            0.440386596776    -1.285093121339     1.794695005575    15.994914619570
         C           -1.385970903224    -0.000022121339     0.477932505575    12.000000000000
         C            1.327754596776     0.000018878661    -0.392271994425    12.000000000000
         C           -2.064786403224    -1.223895121339     0.225157005575    12.000000000000
         C           -2.064776403224     1.223877878661     0.225253005575    12.000000000000
         C           -3.364935403224    -1.212296121339    -0.279336994425    12.000000000000
         C           -3.364925403224     1.212329878661    -0.279241994425    12.000000000000
         C           -4.010182403224     0.000029878661    -0.537910994425    12.000000000000
         H           -1.554753403224    -2.153929121339     0.457163005575     1.007825032230
         H           -1.554739403224     2.153889878661     0.457338005575     1.007825032230
         H           -3.877023403224    -2.152611121339    -0.465565994425     1.007825032230
         H           -3.877004403224     2.152662878661    -0.465396994425     1.007825032230
         H           -5.024058403224     0.000048878661    -0.930063994425     1.007825032230

  Basis Set: AUG-CC-PVTZ
    Blend: AUG-CC-PVTZ
  Basis Set: (AUG-CC-PVTZ AUX)
    Blend: AUG-CC-PVTZ-JKFIT
	 Reference Energy          =   -2193.8649877416401068 [Eh]
	 Singles Energy            =      -0.0000000000000000 [Eh]
	 Same-Spin Energy          =      -0.7059531898754635 [Eh]
	 Opposite-Spin Energy      =      -2.0133526705134392 [Eh]
	 Correlation Energy        =      -2.7193058603889027 [Eh]
	 Total Energy              =   -2196.5842936020289926 [Eh]

	 ================> DF-SCS-MP2 Energies <==================
	-----------------------------------------------------------
	 SCS Same-Spin Scale       =       0.3333333333333333 [-]
	 SCS Opposite-Spin Scale   =       1.2000000000000000 [-]
	 SCS Same-Spin Energy      =      -0.2353177299584878 [Eh]
	 SCS Opposite-Spin Energy  =      -2.4160232046161272 [Eh]
	 SCS Correlation Energy    =      -2.6513409345746148 [Eh]
	 SCS Total Energy          =   -2196.5163286762149255 [Eh]
	-----------------------------------------------------------

  Dipole Moment: [D]
     X:    -3.8365      Y:     0.0002      Z:    -3.0549     Total:     4.9042

*** Psi4 exiting successfully. Buy a developer a beer!
