                               Psi4 1.3.2 release

  ==> Input File <==

--------------------------------------------------------------------------
#psi4
#
memory 32 gb

molecule  {
0 1
 Cl        3.0582810    -0.0000320     0.2153210
 Cl        1.0892650     1.4501210    -1.3457080
 Cl        1.0892300    -1.4499710    -1.3458710
  S        0.2835450    -0.0000560     1.1319340
  O        0.5217130     1.2849120     1.7899600
  O        0.5217120    -1.2850930     1.7898260
  C       -1.3261705    -0.0000182     0.3972782
  C        1.4090800     0.0000190    -0.3971410
  C       -1.9834610    -1.2238950     0.2202880
  C       -1.9834510     1.2238780     0.2203840
  C       -3.2836100    -1.2122960    -0.2842060
  C       -3.2836000     1.2123300    -0.2841110
  C       -3.9288570     0.0000300    -0.5427800
  H       -1.4734280    -2.1539290     0.4522940
  H       -1.4734140     2.1538900     0.4524690
  H       -3.7956980    -2.1526110    -0.4704350
  H       -3.7956790     2.1526630    -0.4702660
  H       -4.9427330     0.0000490    -0.9349330
units angstrom
no_reorient  #important for SAPT in psi4, default
symmetry c1  #important for SAPT in psi4, default
}

set PROPERTIES_ORIGIN ["COM"]
properties('MP2/aug-cc-pvtz', properties = ['dipole'])
--------------------------------------------------------------------------

    Molecular point group: c1
  Charge       = 0
  Multiplicity = 1
  Basis Set: AUG-CC-PVTZ
    Blend: AUG-CC-PVTZ
  Basis Set: (AUG-CC-PVTZ AUX)
    Blend: AUG-CC-PVTZ-JKFIT

    Orbital Energies [Eh]
    ---------------------

    Doubly Occupied:

       1A   -104.880152     2A   -104.880152     3A   -104.875429
       4A    -92.212544     5A    -20.570611     6A    -20.570591
       7A    -11.465246     8A    -11.295566     9A    -11.283118
      10A    -11.283047    11A    -11.278296    12A    -11.267790
      13A    -11.267712    14A    -10.604474    15A    -10.604465
      16A    -10.599572    17A     -9.180830    18A     -8.071257
      19A     -8.071257    20A     -8.069035    21A     -8.069034
      22A     -8.068995    23A     -8.068995    24A     -8.066379
      25A     -8.064079    26A     -8.064052    27A     -6.865600
      28A     -6.864803    29A     -6.864565    30A     -1.464050
      31A     -1.355524    32A     -1.259376    33A     -1.192801
      34A     -1.130177    35A     -1.127808    36A     -1.073071
      37A     -1.052855    38A     -0.958916    39A     -0.870216
      40A     -0.864916    41A     -0.802275    42A     -0.744993
      43A     -0.712937    44A     -0.687911    45A     -0.677276
      46A     -0.654045    47A     -0.650416    48A     -0.638781
      49A     -0.631232    50A     -0.625377    51A     -0.559189
      52A     -0.547245    53A     -0.541623    54A     -0.533039
      55A     -0.522770    56A     -0.517852    57A     -0.516619
      58A     -0.500149    59A     -0.495863    60A     -0.475514
      61A     -0.469860    62A     -0.459988    63A     -0.436682
      64A     -0.381332    65A     -0.369141

  @DF-RHF Final Energy: -2193.86653336262043

   => Energetics <=

    Nuclear Repulsion Energy =           1337.8597636365057042
    One-Electron Energy =               -5687.7936588146521899
    Two-Electron Energy =                2156.0673618155260556
    Total Energy =                      -2193.8665333626204301
  Basis Set: (AUG-CC-PVTZ AUX)
    Blend: AUG-CC-PVTZ-RI
    Molecular point group: c1

    Geometry (in Angstrom), charge = 0, multiplicity = 1:

       Center              X                  Y                   Z               Mass
    ------------   -----------------  -----------------  -----------------  -----------------
         CL           2.977957118315    -0.000032298146     0.223716166331    34.968852682000
         CL           1.008941118315     1.450120701854    -1.337312833669    34.968852682000
         CL           1.008906118315    -1.449971298146    -1.337475833669    34.968852682000
         S            0.203221118315    -0.000056298146     1.140329166331    31.972071174400
         O            0.441389118315     1.284911701854     1.798355166331    15.994914619570
         O            0.441388118315    -1.285093298146     1.798221166331    15.994914619570
         C           -1.406494381685    -0.000018498146     0.405673366331    12.000000000000
         C            1.328756118315     0.000018701854    -0.388745833669    12.000000000000
         C           -2.063784881685    -1.223895298146     0.228683166331    12.000000000000
         C           -2.063774881685     1.223877701854     0.228779166331    12.000000000000
         C           -3.363933881685    -1.212296298146    -0.275810833669    12.000000000000
         C           -3.363923881685     1.212329701854    -0.275715833669    12.000000000000
         C           -4.009180881685     0.000029701854    -0.534384833669    12.000000000000
         H           -1.553751881685    -2.153929298146     0.460689166331     1.007825032230
         H           -1.553737881685     2.153889701854     0.460864166331     1.007825032230
         H           -3.876021881685    -2.152611298146    -0.462039833669     1.007825032230
         H           -3.876002881685     2.152662701854    -0.461870833669     1.007825032230
         H           -5.023056881685     0.000048701854    -0.926537833669     1.007825032230

  Basis Set: AUG-CC-PVTZ
    Blend: AUG-CC-PVTZ
  Basis Set: (AUG-CC-PVTZ AUX)
    Blend: AUG-CC-PVTZ-JKFIT
	 Reference Energy          =   -2193.8665333626204301 [Eh]
	 Singles Energy            =      -0.0000000000000000 [Eh]
	 Same-Spin Energy          =      -0.7060630773949430 [Eh]
	 Opposite-Spin Energy      =      -2.0135185784631293 [Eh]
	 Correlation Energy        =      -2.7195816558580725 [Eh]
	 Total Energy              =   -2196.5861150184787220 [Eh]

	 ================> DF-SCS-MP2 Energies <==================
	-----------------------------------------------------------
	 SCS Same-Spin Scale       =       0.3333333333333333 [-]
	 SCS Opposite-Spin Scale   =       1.2000000000000000 [-]
	 SCS Same-Spin Energy      =      -0.2353543591316477 [Eh]
	 SCS Opposite-Spin Energy  =      -2.4162222941557552 [Eh]
	 SCS Correlation Energy    =      -2.6515766532874028 [Eh]
	 SCS Total Energy          =   -2196.5181100159079506 [Eh]
	-----------------------------------------------------------

  Dipole Moment: [D]
     X:    -3.7382      Y:     0.0002      Z:    -2.9542     Total:     4.7646

*** Psi4 exiting successfully. Buy a developer a beer!
