                               Psi4 1.3.2 release

  ==> Input File <==

--------------------------------------------------------------------------
#psi4
#
memory 32 gb

molecule  {
0 1
 Cl        3.0582810    -0.0000320     0.2153210
 Cl        1.0892650     1.4501210    -1.3457080
 Cl        1.0892300    -1.4499710    -1.3458710
  S        0.2835450    -0.0000560     1.1319340
  O        0.4906233     1.3305976     1.7040744
  O        0.5217120    -1.2850930     1.7898260
  C       -1.3508290    -0.0000210     0.4539040
  C        1.4090800     0.0000190    -0.3971410
  C       -1.9834610    -1.2238950     0.2202880
  C       -1.9834510     1.2238780     0.2203840
  C       -3.2836100    -1.2122960    -0.2842060
  C       -3.2836000     1.2123300    -0.2841110
  C       -3.9288570     0.0000300    -0.5427800
  H       -1.4734280    -2.1539290     0.4522940
  H       -1.4734140     2.1538900     0.4524690
  H       -3.7956980    -2.1526110    -0.4704350
  H       -3.7956790     2.1526630    -0.4702660
  H       -4.9427330     0.0000490    -0.9349330
units angstrom
no_reorient  #important for SAPT in psi4, default
symmetry c1  #important for SAPT in psi4, default
}

set PROPERTIES_ORIGIN ["COM"]
properties('MP2/aug-cc-pvtz', properties = ['dipole'])
--------------------------------------------------------------------------

    Molecular point group: c1
  Charge       = 0
  Multiplicity = 1
  Basis Set: AUG-CC-PVTZ
    Blend: AUG-CC-PVTZ
  Basis Set: (AUG-CC-PVTZ AUX)
    Blend: AUG-CC-PVTZ-JKFIT

    Orbital Energies [Eh]
    ---------------------

    Doubly Occupied:

       1A   -104.879539     2A   -104.879186     3A   -104.876204
       4A    -92.213198     5A    -20.575103     6A    -20.569861
       7A    -11.465340     8A    -11.292815     9A    -11.280817
      10A    -11.280410    11A    -11.276845    12A    -11.266585
      13A    -11.266452    14A    -10.603885    15A    -10.603480
      16A    -10.600347    17A     -9.181368    18A     -8.070673
      19A     -8.070269    20A     -8.068453    21A     -8.068417
      22A     -8.068041    23A     -8.068000    24A     -8.067152
      25A     -8.064855    26A     -8.064824    27A     -6.866087
      28A     -6.865486    29A     -6.865034    30A     -1.465008
      31A     -1.360317    32A     -1.258746    33A     -1.191544
      34A     -1.129410    35A     -1.127954    36A     -1.070757
      37A     -1.051615    38A     -0.956648    39A     -0.870395
      40A     -0.863915    41A     -0.802115    42A     -0.745499
      43A     -0.713836    44A     -0.686223    45A     -0.677608
      46A     -0.654303    47A     -0.649604    48A     -0.638251
      49A     -0.632731    50A     -0.624389    51A     -0.557687
      52A     -0.547091    53A     -0.540648    54A     -0.532739
      55A     -0.525107    56A     -0.519495    57A     -0.515680
      58A     -0.498597    59A     -0.497048    60A     -0.475452
      61A     -0.469630    62A     -0.459719    63A     -0.436349
      64A     -0.380343    65A     -0.368085

  @DF-RHF Final Energy: -2193.86577686844839

   => Energetics <=

    Nuclear Repulsion Energy =           1338.6487943450190414
    One-Electron Energy =               -5689.4026046402996144
    Two-Electron Energy =                2156.8880334268319530
    Total Energy =                      -2193.8657768684483926
  Basis Set: (AUG-CC-PVTZ AUX)
    Blend: AUG-CC-PVTZ-RI
    Molecular point group: c1

    Geometry (in Angstrom), charge = 0, multiplicity = 1:

       Center              X                  Y                   Z               Mass
    ------------   -----------------  -----------------  -----------------  -----------------
         CL           2.981032557532    -0.002865497780     0.226407918273    34.968852682000
         CL           1.012016557532     1.447287502220    -1.334621081727    34.968852682000
         CL           1.011981557532    -1.452804497780    -1.334784081727    34.968852682000
         S            0.206296557532    -0.002889497780     1.143020918273    31.972071174400
         O            0.413374857532     1.327764102220     1.715161318273    15.994914619570
         O            0.444463557532    -1.287926497780     1.800912918273    15.994914619570
         C           -1.428077442468    -0.002854497780     0.464990918273    12.000000000000
         C            1.331831557532    -0.002814497780    -0.386054081727    12.000000000000
         C           -2.060709442468    -1.226728497780     0.231374918273    12.000000000000
         C           -2.060699442468     1.221044502220     0.231470918273    12.000000000000
         C           -3.360858442468    -1.215129497780    -0.273119081727    12.000000000000
         C           -3.360848442468     1.209496502220    -0.273024081727    12.000000000000
         C           -4.006105442468    -0.002803497780    -0.531693081727    12.000000000000
         H           -1.550676442468    -2.156762497780     0.463380918273     1.007825032230
         H           -1.550662442468     2.151056502220     0.463555918273     1.007825032230
         H           -3.872946442468    -2.155444497780    -0.459348081727     1.007825032230
         H           -3.872927442468     2.149829502220    -0.459179081727     1.007825032230
         H           -5.019981442468    -0.002784497780    -0.923846081727     1.007825032230

  Basis Set: AUG-CC-PVTZ
    Blend: AUG-CC-PVTZ
  Basis Set: (AUG-CC-PVTZ AUX)
    Blend: AUG-CC-PVTZ-JKFIT
	 Reference Energy          =   -2193.8657768684483926 [Eh]
	 Singles Energy            =      -0.0000000000000000 [Eh]
	 Same-Spin Energy          =      -0.7062367652869004 [Eh]
	 Opposite-Spin Energy      =      -2.0137147842773682 [Eh]
	 Correlation Energy        =      -2.7199515495642688 [Eh]
	 Total Energy              =   -2196.5857284180128772 [Eh]

	 ================> DF-SCS-MP2 Energies <==================
	-----------------------------------------------------------
	 SCS Same-Spin Scale       =       0.3333333333333333 [-]
	 SCS Opposite-Spin Scale   =       1.2000000000000000 [-]
	 SCS Same-Spin Energy      =      -0.2354122550956335 [Eh]
	 SCS Opposite-Spin Energy  =      -2.4164577411328416 [Eh]
	 SCS Correlation Energy    =      -2.6518699962284753 [Eh]
	 SCS Total Energy          =   -2196.5176468646768626 [Eh]
	-----------------------------------------------------------

  Dipole Moment: [D]
     X:    -3.6224      Y:    -0.0701      Z:    -2.7874     Total:     4.5712

*** Psi4 exiting successfully. Buy a developer a beer!
