                               Psi4 1.3.2 release

  ==> Input File <==

--------------------------------------------------------------------------
#psi4
#
memory 32 gb

molecule  {
0 1
 Cl        3.0582810    -0.0000320     0.2153210
 Cl        1.0892650     1.4501210    -1.3457080
 Cl        1.0892300    -1.4499710    -1.3458710
  S        0.2835450    -0.0000560     1.1319340
  O        0.5048293     1.2785357     1.8080269
  O        0.5217120    -1.2850930     1.7898260
  C       -1.3508290    -0.0000210     0.4539040
  C        1.4090800     0.0000190    -0.3971410
  C       -1.9834610    -1.2238950     0.2202880
  C       -1.9834510     1.2238780     0.2203840
  C       -3.2836100    -1.2122960    -0.2842060
  C       -3.2836000     1.2123300    -0.2841110
  C       -3.9288570     0.0000300    -0.5427800
  H       -1.4734280    -2.1539290     0.4522940
  H       -1.4734140     2.1538900     0.4524690
  H       -3.7956980    -2.1526110    -0.4704350
  H       -3.7956790     2.1526630    -0.4702660
  H       -4.9427330     0.0000490    -0.9349330
units angstrom
no_reorient  #important for SAPT in psi4, default
symmetry c1  #important for SAPT in psi4, default
}

set PROPERTIES_ORIGIN ["COM"]
properties('MP2/aug-cc-pvtz', properties = ['dipole'])
--------------------------------------------------------------------------

    Molecular point group: c1
  Charge       = 0
  Multiplicity = 1
  Basis Set: AUG-CC-PVTZ
    Blend: AUG-CC-PVTZ
  Basis Set: (AUG-CC-PVTZ AUX)
    Blend: AUG-CC-PVTZ-JKFIT

    Orbital Energies [Eh]
    ---------------------

    Doubly Occupied:

       1A   -104.881682     2A   -104.881611     3A   -104.877312
       4A    -92.211511     5A    -20.568846     6A    -20.568109
       7A    -11.468098     8A    -11.294435     9A    -11.281838
      10A    -11.281763    11A    -11.277591    12A    -11.267514
      13A    -11.267431    14A    -10.605967    15A    -10.605912
      16A    -10.601419    17A     -9.179880    18A     -8.072754
      19A     -8.072701    20A     -8.070523    21A     -8.070482
      22A     -8.070471    23A     -8.070433    24A     -8.068225
      25A     -8.065917    26A     -8.065887    27A     -6.864574
      28A     -6.863898    29A     -6.863598    30A     -1.462891
      31A     -1.353617    32A     -1.260950    33A     -1.192711
      34A     -1.131558    35A     -1.129335    36A     -1.072359
      37A     -1.052618    38A     -0.958711    39A     -0.871179
      40A     -0.864930    41A     -0.802451    42A     -0.745040
      43A     -0.713499    44A     -0.686367    45A     -0.676789
      46A     -0.654731    47A     -0.650370    48A     -0.639603
      49A     -0.631065    50A     -0.625022    51A     -0.558337
      52A     -0.547861    53A     -0.541791    54A     -0.533162
      55A     -0.522538    56A     -0.517577    57A     -0.517172
      58A     -0.498480    59A     -0.494846    60A     -0.476737
      61A     -0.470582    62A     -0.461316    63A     -0.437877
      64A     -0.381194    65A     -0.369037

  @DF-RHF Final Energy: -2193.86817156557572

   => Energetics <=

    Nuclear Repulsion Energy =           1337.1293310772316545
    One-Electron Energy =               -5686.3056368953530182
    Two-Electron Energy =                2155.3081342525456421
    Total Energy =                      -2193.8681715655757216
  Basis Set: (AUG-CC-PVTZ AUX)
    Blend: AUG-CC-PVTZ-RI
    Molecular point group: c1

    Geometry (in Angstrom), charge = 0, multiplicity = 1:

       Center              X                  Y                   Z               Mass
    ------------   -----------------  -----------------  -----------------  -----------------
         CL           2.980151529709     0.000363277558     0.219960991282    34.968852682000
         CL           1.011135529709     1.450516277558    -1.341068008718    34.968852682000
         CL           1.011100529709    -1.449575722442    -1.341231008718    34.968852682000
         S            0.205415529709     0.000339277558     1.136573991282    31.972071174400
         O            0.426699829709     1.278930977558     1.812666891282    15.994914619570
         O            0.443582529709    -1.284697722442     1.794465991282    15.994914619570
         C           -1.428958470291     0.000374277558     0.458543991282    12.000000000000
         C            1.330950529709     0.000414277558    -0.392501008718    12.000000000000
         C           -2.061590470291    -1.223499722442     0.224927991282    12.000000000000
         C           -2.061580470291     1.224273277558     0.225023991282    12.000000000000
         C           -3.361739470291    -1.211900722442    -0.279566008718    12.000000000000
         C           -3.361729470291     1.212725277558    -0.279471008718    12.000000000000
         C           -4.006986470291     0.000425277558    -0.538140008718    12.000000000000
         H           -1.551557470291    -2.153533722442     0.456933991282     1.007825032230
         H           -1.551543470291     2.154285277558     0.457108991282     1.007825032230
         H           -3.873827470291    -2.152215722442    -0.465795008718     1.007825032230
         H           -3.873808470291     2.153058277558    -0.465626008718     1.007825032230
         H           -5.020862470291     0.000444277558    -0.930293008718     1.007825032230

  Basis Set: AUG-CC-PVTZ
    Blend: AUG-CC-PVTZ
  Basis Set: (AUG-CC-PVTZ AUX)
    Blend: AUG-CC-PVTZ-JKFIT
	 Reference Energy          =   -2193.8681715655757216 [Eh]
	 Singles Energy            =      -0.0000000000000000 [Eh]
	 Same-Spin Energy          =      -0.7057557269259775 [Eh]
	 Opposite-Spin Energy      =      -2.0129516118244970 [Eh]
	 Correlation Energy        =      -2.7187073387504745 [Eh]
	 Total Energy              =   -2196.5868789043261131 [Eh]

	 ================> DF-SCS-MP2 Energies <==================
	-----------------------------------------------------------
	 SCS Same-Spin Scale       =       0.3333333333333333 [-]
	 SCS Opposite-Spin Scale   =       1.2000000000000000 [-]
	 SCS Same-Spin Energy      =      -0.2352519089753258 [Eh]
	 SCS Opposite-Spin Energy  =      -2.4155419341893962 [Eh]
	 SCS Correlation Energy    =      -2.6507938431647222 [Eh]
	 SCS Total Energy          =   -2196.5189654087403142 [Eh]
	-----------------------------------------------------------

  Dipole Moment: [D]
     X:    -3.6457      Y:     0.0074      Z:    -3.0596     Total:     4.7595

*** Psi4 exiting successfully. Buy a developer a beer!
