                               Psi4 1.3.2 release

  ==> Input File <==

--------------------------------------------------------------------------
#psi4
#
memory 32 gb

molecule  {
0 1
 Cl        3.0582810    -0.0000320     0.2153210
 Cl        1.0892650     1.4501210    -1.3457080
 Cl        1.0892300    -1.4499710    -1.3458710
  S        0.2835450    -0.0000560     1.1319340
  O        0.5217130     1.2849120     1.7899600
  O        0.5217120    -1.2850930     1.7898260
  C       -1.2584620    -0.0000230     0.4922230
  C        1.4090800     0.0000190    -0.3971410
  C       -1.9834610    -1.2238950     0.2202880
  C       -1.9834510     1.2238780     0.2203840
  C       -3.2836100    -1.2122960    -0.2842060
  C       -3.2836000     1.2123300    -0.2841110
  C       -3.9288570     0.0000300    -0.5427800
  H       -1.4734280    -2.1539290     0.4522940
  H       -1.4734140     2.1538900     0.4524690
  H       -3.7956980    -2.1526110    -0.4704350
  H       -3.7956790     2.1526630    -0.4702660
  H       -4.9427330     0.0000490    -0.9349330
units angstrom
no_reorient  #important for SAPT in psi4, default
symmetry c1  #important for SAPT in psi4, default
}

set PROPERTIES_ORIGIN ["COM"]
properties('MP2/aug-cc-pvtz', properties = ['dipole'])
--------------------------------------------------------------------------

    Molecular point group: c1
  Charge       = 0
  Multiplicity = 1
  Basis Set: AUG-CC-PVTZ
    Blend: AUG-CC-PVTZ
  Basis Set: (AUG-CC-PVTZ AUX)
    Blend: AUG-CC-PVTZ-JKFIT

    Orbital Energies [Eh]
    ---------------------

    Doubly Occupied:

       1A   -104.879610     2A   -104.879610     3A   -104.874941
       4A    -92.210235     5A    -20.566230     6A    -20.566210
       7A    -11.464843     8A    -11.293914     9A    -11.293394
      10A    -11.292527    11A    -11.285842    12A    -11.269210
      13A    -11.269156    14A    -10.603924    15A    -10.603915
      16A    -10.599069    17A     -9.179400    18A     -8.070707
      19A     -8.070707    20A     -8.068488    21A     -8.068486
      22A     -8.068447    23A     -8.068446    24A     -8.065875
      25A     -8.063571    26A     -8.063545    27A     -6.864194
      28A     -6.863700    29A     -6.863120    30A     -1.464295
      31A     -1.352993    32A     -1.258771    33A     -1.186253
      34A     -1.129584    35A     -1.127380    36A     -1.081825
      37A     -1.050240    38A     -0.963628    39A     -0.878557
      40A     -0.860658    41A     -0.801136    42A     -0.744005
      43A     -0.717278    44A     -0.692111    45A     -0.678096
      46A     -0.652368    47A     -0.649462    48A     -0.639245
      49A     -0.629007    50A     -0.619687    51A     -0.560893
      52A     -0.546149    53A     -0.536823    54A     -0.526861
      55A     -0.520327    56A     -0.519377    57A     -0.513775
      58A     -0.503925    59A     -0.493342    60A     -0.475011
      61A     -0.468638    62A     -0.459281    63A     -0.439734
      64A     -0.380412    65A     -0.370005

  @DF-RHF Final Energy: -2193.85621384733849

   => Energetics <=

    Nuclear Repulsion Energy =           1338.8118257908283795
    One-Electron Energy =               -5689.6911834560905845
    Two-Electron Energy =                2157.0231438179239376
    Total Energy =                      -2193.8562138473384948
  Basis Set: (AUG-CC-PVTZ AUX)
    Blend: AUG-CC-PVTZ-RI
    Molecular point group: c1

    Geometry (in Angstrom), charge = 0, multiplicity = 1:

       Center              X                  Y                   Z               Mass
    ------------   -----------------  -----------------  -----------------  -----------------
         CL           2.974806757288    -0.000032074811     0.219298546717    34.968852682000
         CL           1.005790757288     1.450120925189    -1.341730453283    34.968852682000
         CL           1.005755757288    -1.449971074811    -1.341893453283    34.968852682000
         S            0.200070757288    -0.000056074811     1.135911546717    31.972071174400
         O            0.438238757288     1.284911925189     1.793937546717    15.994914619570
         O            0.438237757288    -1.285093074811     1.793803546717    15.994914619570
         C           -1.341936242712    -0.000023074811     0.496200546717    12.000000000000
         C            1.325605757288     0.000018925189    -0.393163453283    12.000000000000
         C           -2.066935242712    -1.223895074811     0.224265546717    12.000000000000
         C           -2.066925242712     1.223877925189     0.224361546717    12.000000000000
         C           -3.367084242712    -1.212296074811    -0.280228453283    12.000000000000
         C           -3.367074242712     1.212329925189    -0.280133453283    12.000000000000
         C           -4.012331242712     0.000029925189    -0.538802453283    12.000000000000
         H           -1.556902242712    -2.153929074811     0.456271546717     1.007825032230
         H           -1.556888242712     2.153889925189     0.456446546717     1.007825032230
         H           -3.879172242712    -2.152611074811    -0.466457453283     1.007825032230
         H           -3.879153242712     2.152662925189    -0.466288453283     1.007825032230
         H           -5.026207242712     0.000048925189    -0.930955453283     1.007825032230

  Basis Set: AUG-CC-PVTZ
    Blend: AUG-CC-PVTZ
  Basis Set: (AUG-CC-PVTZ AUX)
    Blend: AUG-CC-PVTZ-JKFIT
	 Reference Energy          =   -2193.8562138473384948 [Eh]
	 Singles Energy            =      -0.0000000000000000 [Eh]
	 Same-Spin Energy          =      -0.7063047706309923 [Eh]
	 Opposite-Spin Energy      =      -2.0140722569577605 [Eh]
	 Correlation Energy        =      -2.7203770275887527 [Eh]
	 Total Energy              =   -2196.5765908749272057 [Eh]

	 ================> DF-SCS-MP2 Energies <==================
	-----------------------------------------------------------
	 SCS Same-Spin Scale       =       0.3333333333333333 [-]
	 SCS Opposite-Spin Scale   =       1.2000000000000000 [-]
	 SCS Same-Spin Energy      =      -0.2354349235436641 [Eh]
	 SCS Opposite-Spin Energy  =      -2.4168867083493124 [Eh]
	 SCS Correlation Energy    =      -2.6523216318929763 [Eh]
	 SCS Total Energy          =   -2196.5085354792313410 [Eh]
	-----------------------------------------------------------

  Dipole Moment: [D]
     X:    -4.0056      Y:     0.0002      Z:    -3.1088     Total:     5.0705

*** Psi4 exiting successfully. Buy a developer a beer!
