                               Psi4 1.3.2 release

  ==> Input File <==

--------------------------------------------------------------------------
#psi4
#
memory 32 gb

molecule  {
0 1
 Cl        3.0582810    -0.0000320     0.2153210
 Cl        1.0892650     1.4501210    -1.3457080
 Cl        1.0892300    -1.4499710    -1.3458710
  S        0.2835450    -0.0000560     1.1319340
  O        0.4981742     1.2923617     1.7834367
  O        0.5217120    -1.2850930     1.7898260
  C       -1.3508290    -0.0000210     0.4539040
  C        1.4090800     0.0000190    -0.3971410
  C       -1.9834610    -1.2238950     0.2202880
  C       -1.9834510     1.2238780     0.2203840
  C       -3.2836100    -1.2122960    -0.2842060
  C       -3.2836000     1.2123300    -0.2841110
  C       -3.9288570     0.0000300    -0.5427800
  H       -1.4734280    -2.1539290     0.4522940
  H       -1.4734140     2.1538900     0.4524690
  H       -3.7956980    -2.1526110    -0.4704350
  H       -3.7956790     2.1526630    -0.4702660
  H       -4.9427330     0.0000490    -0.9349330
units angstrom
no_reorient  #important for SAPT in psi4, default
symmetry c1  #important for SAPT in psi4, default
}

set PROPERTIES_ORIGIN ["COM"]
properties('MP2/aug-cc-pvtz', properties = ['dipole'])
--------------------------------------------------------------------------

    Molecular point group: c1
  Charge       = 0
  Multiplicity = 1
  Basis Set: AUG-CC-PVTZ
    Blend: AUG-CC-PVTZ
  Basis Set: (AUG-CC-PVTZ AUX)
    Blend: AUG-CC-PVTZ-JKFIT

    Orbital Energies [Eh]
    ---------------------

    Doubly Occupied:

       1A   -104.881258     2A   -104.881104     3A   -104.877134
       4A    -92.211941     5A    -20.569900     6A    -20.569141
       7A    -11.467555     8A    -11.293909     9A    -11.281473
      10A    -11.281358    11A    -11.277328    12A    -11.267208
      13A    -11.267127    14A    -10.605555    15A    -10.605402
      16A    -10.601251    17A     -9.180256    18A     -8.072343
      19A     -8.072190    20A     -8.070113    21A     -8.070074
      22A     -8.069961    23A     -8.069922    24A     -8.068056
      25A     -8.065751    26A     -8.065720    27A     -6.864956
      28A     -6.864301    29A     -6.863963    30A     -1.463406
      31A     -1.355353    32A     -1.260516    33A     -1.192336
      34A     -1.131112    35A     -1.129093    36A     -1.071874
      37A     -1.052292    38A     -0.958229    39A     -0.870971
      40A     -0.864600    41A     -0.802340    42A     -0.745139
      43A     -0.713600    44A     -0.686292    45A     -0.676960
      46A     -0.654623    47A     -0.650141    48A     -0.639330
      49A     -0.631552    50A     -0.624813    51A     -0.558088
      52A     -0.547738    53A     -0.541439    54A     -0.532960
      55A     -0.522975    56A     -0.518134    57A     -0.517080
      58A     -0.498330    59A     -0.495730    60A     -0.476510
      61A     -0.470516    62A     -0.461023    63A     -0.437573
      64A     -0.380897    65A     -0.368731

  @DF-RHF Final Energy: -2193.86785514543044

   => Energetics <=

    Nuclear Repulsion Energy =           1337.4737458032125232
    One-Electron Energy =               -5687.0061080896975909
    Two-Electron Energy =                2155.6645071410548553
    Total Energy =                      -2193.8678551454304397
  Basis Set: (AUG-CC-PVTZ AUX)
    Blend: AUG-CC-PVTZ-RI
    Molecular point group: c1

    Geometry (in Angstrom), charge = 0, multiplicity = 1:

       Center              X                  Y                   Z               Mass
    ------------   -----------------  -----------------  -----------------  -----------------
         CL           2.980564265755    -0.000494183422     0.221486026505    34.968852682000
         CL           1.011548265755     1.449658816578    -1.339542973495    34.968852682000
         CL           1.011513265755    -1.450433183422    -1.339705973495    34.968852682000
         S            0.205828265755    -0.000518183422     1.138099026505    31.972071174400
         O            0.420457465755     1.291899516578     1.789601726505    15.994914619570
         O            0.443995265755    -1.285555183422     1.795991026505    15.994914619570
         C           -1.428545734245    -0.000483183422     0.460069026505    12.000000000000
         C            1.331363265755    -0.000443183422    -0.390975973495    12.000000000000
         C           -2.061177734245    -1.224357183422     0.226453026505    12.000000000000
         C           -2.061167734245     1.223415816578     0.226549026505    12.000000000000
         C           -3.361326734245    -1.212758183422    -0.278040973495    12.000000000000
         C           -3.361316734245     1.211867816578    -0.277945973495    12.000000000000
         C           -4.006573734245    -0.000432183422    -0.536614973495    12.000000000000
         H           -1.551144734245    -2.154391183422     0.458459026505     1.007825032230
         H           -1.551130734245     2.153427816578     0.458634026505     1.007825032230
         H           -3.873414734245    -2.153073183422    -0.464269973495     1.007825032230
         H           -3.873395734245     2.152200816578    -0.464100973495     1.007825032230
         H           -5.020449734245    -0.000413183422    -0.928767973495     1.007825032230

  Basis Set: AUG-CC-PVTZ
    Blend: AUG-CC-PVTZ
  Basis Set: (AUG-CC-PVTZ AUX)
    Blend: AUG-CC-PVTZ-JKFIT
	 Reference Energy          =   -2193.8678551454304397 [Eh]
	 Singles Energy            =      -0.0000000000000000 [Eh]
	 Same-Spin Energy          =      -0.7058590978542554 [Eh]
	 Opposite-Spin Energy      =      -2.0131141808659496 [Eh]
	 Correlation Energy        =      -2.7189732787202052 [Eh]
	 Total Energy              =   -2196.5868284241505535 [Eh]

	 ================> DF-SCS-MP2 Energies <==================
	-----------------------------------------------------------
	 SCS Same-Spin Scale       =       0.3333333333333333 [-]
	 SCS Opposite-Spin Scale   =       1.2000000000000000 [-]
	 SCS Same-Spin Energy      =      -0.2352863659514184 [Eh]
	 SCS Opposite-Spin Energy  =      -2.4157370170391395 [Eh]
	 SCS Correlation Energy    =      -2.6510233829905578 [Eh]
	 SCS Total Energy          =   -2196.5188785284208279 [Eh]
	-----------------------------------------------------------

  Dipole Moment: [D]
     X:    -3.6289      Y:    -0.0140      Z:    -2.9960     Total:     4.7059

*** Psi4 exiting successfully. Buy a developer a beer!
