                               Psi4 1.3.2 release

  ==> Input File <==

--------------------------------------------------------------------------
#psi4
#
memory 32 gb

molecule  {
0 1
 Cl        3.0582810    -0.0000320     0.2153210
 Cl        1.0892650     1.4501210    -1.3457080
 Cl        1.0892300    -1.4499710    -1.3458710
  S        0.2835450    -0.0000560     1.1319340
  O        0.5217130     1.2849120     1.7899600
  O        0.5217120    -1.2850930     1.7898260
  C       -1.4127492    -0.0000296     0.6284569
  C        1.4090800     0.0000190    -0.3971410
  C       -1.9834610    -1.2238950     0.2202880
  C       -1.9834510     1.2238780     0.2203840
  C       -3.2836100    -1.2122960    -0.2842060
  C       -3.2836000     1.2123300    -0.2841110
  C       -3.9288570     0.0000300    -0.5427800
  H       -1.4734280    -2.1539290     0.4522940
  H       -1.4734140     2.1538900     0.4524690
  H       -3.7956980    -2.1526110    -0.4704350
  H       -3.7956790     2.1526630    -0.4702660
  H       -4.9427330     0.0000490    -0.9349330
units angstrom
no_reorient  #important for SAPT in psi4, default
symmetry c1  #important for SAPT in psi4, default
}

set PROPERTIES_ORIGIN ["COM"]
properties('MP2/aug-cc-pvtz', properties = ['dipole'])
--------------------------------------------------------------------------

    Molecular point group: c1
  Charge       = 0
  Multiplicity = 1
  Basis Set: AUG-CC-PVTZ
    Blend: AUG-CC-PVTZ
  Basis Set: (AUG-CC-PVTZ AUX)
    Blend: AUG-CC-PVTZ-JKFIT

    Orbital Energies [Eh]
    ---------------------

    Doubly Occupied:

       1A   -104.882548     2A   -104.882548     3A   -104.879433
       4A    -92.208703     5A    -20.563098     6A    -20.563079
       7A    -11.471252     8A    -11.296058     9A    -11.284207
      10A    -11.284139    11A    -11.279872    12A    -11.267921
      13A    -11.267851    14A    -10.606823    15A    -10.606814
      16A    -10.603450    17A     -9.177137    18A     -8.073607
      19A     -8.073607    20A     -8.071373    21A     -8.071371
      22A     -8.071331    23A     -8.071331    24A     -8.070253
      25A     -8.067931    26A     -8.067892    27A     -6.861692
      28A     -6.861275    29A     -6.860781    30A     -1.459582
      31A     -1.350245    32A     -1.261779    33A     -1.190925
      34A     -1.132343    35A     -1.130586    36A     -1.070432
      37A     -1.052155    38A     -0.955489    39A     -0.874210
      40A     -0.862845    41A     -0.801532    42A     -0.744627
      43A     -0.715048    44A     -0.682734    45A     -0.674437
      46A     -0.654603    47A     -0.651250    48A     -0.639360
      49A     -0.629428    50A     -0.624600    51A     -0.558131
      52A     -0.547052    53A     -0.540236    54A     -0.533213
      55A     -0.521472    56A     -0.517781    57A     -0.515139
      58A     -0.492800    59A     -0.492235    60A     -0.476927
      61A     -0.469995    62A     -0.461994    63A     -0.437998
      64A     -0.381776    65A     -0.368711

  @DF-RHF Final Energy: -2193.85898487113082

   => Energetics <=

    Nuclear Repulsion Energy =           1335.5763283291666994
    One-Electron Energy =               -5683.2285324647036759
    Two-Electron Energy =                2153.7932192644057068
    Total Energy =                      -2193.8589848711308150
  Basis Set: (AUG-CC-PVTZ AUX)
    Blend: AUG-CC-PVTZ-RI
    Molecular point group: c1

    Geometry (in Angstrom), charge = 0, multiplicity = 1:

       Center              X                  Y                   Z               Mass
    ------------   -----------------  -----------------  -----------------  -----------------
         CL           2.981985477565    -0.000031767724     0.212959815699    34.968852682000
         CL           1.012969477565     1.450121232276    -1.348069184301    34.968852682000
         CL           1.012934477565    -1.449970767724    -1.348232184301    34.968852682000
         S            0.207249477565    -0.000055767724     1.129572815699    31.972071174400
         O            0.445417477565     1.284912232276     1.787598815699    15.994914619570
         O            0.445416477565    -1.285092767724     1.787464815699    15.994914619570
         C           -1.489044722435    -0.000029367724     0.626095715699    12.000000000000
         C            1.332784477565     0.000019232276    -0.399502184301    12.000000000000
         C           -2.059756522435    -1.223894767724     0.217926815699    12.000000000000
         C           -2.059746522435     1.223878232276     0.218022815699    12.000000000000
         C           -3.359905522435    -1.212295767724    -0.286567184301    12.000000000000
         C           -3.359895522435     1.212330232276    -0.286472184301    12.000000000000
         C           -4.005152522435     0.000030232276    -0.545141184301    12.000000000000
         H           -1.549723522435    -2.153928767724     0.449932815699     1.007825032230
         H           -1.549709522435     2.153890232276     0.450107815699     1.007825032230
         H           -3.871993522435    -2.152610767724    -0.472796184301     1.007825032230
         H           -3.871974522435     2.152663232276    -0.472627184301     1.007825032230
         H           -5.019028522435     0.000049232276    -0.937294184301     1.007825032230

  Basis Set: AUG-CC-PVTZ
    Blend: AUG-CC-PVTZ
  Basis Set: (AUG-CC-PVTZ AUX)
    Blend: AUG-CC-PVTZ-JKFIT
	 Reference Energy          =   -2193.8589848711308150 [Eh]
	 Singles Energy            =      -0.0000000000000000 [Eh]
	 Same-Spin Energy          =      -0.7057252110412684 [Eh]
	 Opposite-Spin Energy      =      -2.0135186105146325 [Eh]
	 Correlation Energy        =      -2.7192438215559012 [Eh]
	 Total Energy              =   -2196.5782286926869347 [Eh]

	 ================> DF-SCS-MP2 Energies <==================
	-----------------------------------------------------------
	 SCS Same-Spin Scale       =       0.3333333333333333 [-]
	 SCS Opposite-Spin Scale   =       1.2000000000000000 [-]
	 SCS Same-Spin Energy      =      -0.2352417370137561 [Eh]
	 SCS Opposite-Spin Energy  =      -2.4162223326175591 [Eh]
	 SCS Correlation Energy    =      -2.6514640696313152 [Eh]
	 SCS Total Energy          =   -2196.5104489407622168 [Eh]
	-----------------------------------------------------------

  Dipole Moment: [D]
     X:    -3.7042      Y:     0.0002      Z:    -3.1953     Total:     4.8919

*** Psi4 exiting successfully. Buy a developer a beer!
