                               Psi4 1.3.2 release

  ==> Input File <==

--------------------------------------------------------------------------
#psi4
#
memory 32 gb

molecule  {
0 1
 Cl        3.0582810    -0.0000320     0.2153210
 Cl        1.0892650     1.4501210    -1.3457080
 Cl        1.0892300    -1.4499710    -1.3458710
  S        0.2835450    -0.0000560     1.1319340
  O        0.5217130     1.2849120     1.7899600
  O        0.5217120    -1.2850930     1.7898260
  C       -1.4431960    -0.0000190     0.4155850
  C        1.4090800     0.0000190    -0.3971410
  C       -1.9834610    -1.2238950     0.2202880
  C       -1.9834510     1.2238780     0.2203840
  C       -3.2836100    -1.2122960    -0.2842060
  C       -3.2836000     1.2123300    -0.2841110
  C       -3.9288570     0.0000300    -0.5427800
  H       -1.4734280    -2.1539290     0.4522940
  H       -1.4734140     2.1538900     0.4524690
  H       -3.7956980    -2.1526110    -0.4704350
  H       -3.7956790     2.1526630    -0.4702660
  H       -4.9427330     0.0000490    -0.9349330
units angstrom
no_reorient  #important for SAPT in psi4, default
symmetry c1  #important for SAPT in psi4, default
}

set PROPERTIES_ORIGIN ["COM"]
properties('MP2/aug-cc-pvtz', properties = ['dipole'])
--------------------------------------------------------------------------

    Molecular point group: c1
  Charge       = 0
  Multiplicity = 1
  Basis Set: AUG-CC-PVTZ
    Blend: AUG-CC-PVTZ
  Basis Set: (AUG-CC-PVTZ AUX)
    Blend: AUG-CC-PVTZ-JKFIT

    Orbital Energies [Eh]
    ---------------------

    Doubly Occupied:

       1A   -104.880944     2A   -104.880944     3A   -104.876506
       4A    -92.207896     5A    -20.568925     6A    -20.568905
       7A    -11.466790     8A    -11.297568     9A    -11.274518
      10A    -11.274455    11A    -11.272912    12A    -11.268543
      13A    -11.268372    14A    -10.605260    15A    -10.605251
      16A    -10.600622    17A     -9.176250    18A     -8.072044
      19A     -8.072044    20A     -8.069819    21A     -8.069817
      22A     -8.069780    23A     -8.069779    24A     -8.067426
      25A     -8.065122    26A     -8.065091    27A     -6.860823
      28A     -6.859964    29A     -6.859872    30A     -1.460205
      31A     -1.353372    32A     -1.259921    33A     -1.203775
      34A     -1.130888    35A     -1.128507    36A     -1.067067
      37A     -1.059743    38A     -0.952609    39A     -0.871397
      40A     -0.863447    41A     -0.803405    42A     -0.746918
      43A     -0.709809    44A     -0.680158    45A     -0.677808
      46A     -0.657865    47A     -0.651533    48A     -0.637382
      49A     -0.636116    50A     -0.627617    51A     -0.558746
      52A     -0.551540    53A     -0.545781    54A     -0.541086
      55A     -0.522562    56A     -0.517243    57A     -0.515218
      58A     -0.494778    59A     -0.488290    60A     -0.475957
      61A     -0.470051    62A     -0.460698    63A     -0.430076
      64A     -0.383959    65A     -0.371112

  @DF-RHF Final Energy: -2193.85948519305248

   => Energetics <=

    Nuclear Repulsion Energy =           1336.2294351323903356
    One-Electron Energy =               -5684.5720689331074027
    Two-Electron Energy =                2154.4831486076650435
    Total Energy =                      -2193.8594851930524783
  Basis Set: (AUG-CC-PVTZ AUX)
    Blend: AUG-CC-PVTZ-RI
    Molecular point group: c1

    Geometry (in Angstrom), charge = 0, multiplicity = 1:

       Center              X                  Y                   Z               Mass
    ------------   -----------------  -----------------  -----------------  -----------------
         CL           2.983402115241    -0.000032260924     0.222864382149    34.968852682000
         CL           1.014386115241     1.450120739076    -1.338164617851    34.968852682000
         CL           1.014351115241    -1.449971260924    -1.338327617851    34.968852682000
         S            0.208666115241    -0.000056260924     1.139477382149    31.972071174400
         O            0.446834115241     1.284911739076     1.797503382149    15.994914619570
         O            0.446833115241    -1.285093260924     1.797369382149    15.994914619570
         C           -1.518074884759    -0.000019260924     0.423128382149    12.000000000000
         C            1.334201115241     0.000018739076    -0.389597617851    12.000000000000
         C           -2.058339884759    -1.223895260924     0.227831382149    12.000000000000
         C           -2.058329884759     1.223877739076     0.227927382149    12.000000000000
         C           -3.358488884759    -1.212296260924    -0.276662617851    12.000000000000
         C           -3.358478884759     1.212329739076    -0.276567617851    12.000000000000
         C           -4.003735884759     0.000029739076    -0.535236617851    12.000000000000
         H           -1.548306884759    -2.153929260924     0.459837382149     1.007825032230
         H           -1.548292884759     2.153889739076     0.460012382149     1.007825032230
         H           -3.870576884759    -2.152611260924    -0.462891617851     1.007825032230
         H           -3.870557884759     2.152662739076    -0.462722617851     1.007825032230
         H           -5.017611884759     0.000048739076    -0.927389617851     1.007825032230

  Basis Set: AUG-CC-PVTZ
    Blend: AUG-CC-PVTZ
  Basis Set: (AUG-CC-PVTZ AUX)
    Blend: AUG-CC-PVTZ-JKFIT
	 Reference Energy          =   -2193.8594851930524783 [Eh]
	 Singles Energy            =      -0.0000000000000000 [Eh]
	 Same-Spin Energy          =      -0.7060950618823171 [Eh]
	 Opposite-Spin Energy      =      -2.0132907135154468 [Eh]
	 Correlation Energy        =      -2.7193857753977637 [Eh]
	 Total Energy              =   -2196.5788709684502464 [Eh]

	 ================> DF-SCS-MP2 Energies <==================
	-----------------------------------------------------------
	 SCS Same-Spin Scale       =       0.3333333333333333 [-]
	 SCS Opposite-Spin Scale   =       1.2000000000000000 [-]
	 SCS Same-Spin Energy      =      -0.2353650206274390 [Eh]
	 SCS Opposite-Spin Energy  =      -2.4159488562185358 [Eh]
	 SCS Correlation Energy    =      -2.6513138768459750 [Eh]
	 SCS Total Energy          =   -2196.5107990698984395 [Eh]
	-----------------------------------------------------------

  Dipole Moment: [D]
     X:    -3.5777      Y:     0.0002      Z:    -2.9451     Total:     4.6340

*** Psi4 exiting successfully. Buy a developer a beer!
