                               Psi4 1.3.2 release

  ==> Input File <==

--------------------------------------------------------------------------
#psi4
#
memory 32 gb

molecule  {
0 1
 Cl        3.0582810    -0.0000320     0.2153210
 Cl        1.0892650     1.4501210    -1.3457080
 Cl        1.0892300    -1.4499710    -1.3458710
  S        0.2835450    -0.0000560     1.1319340
  O        0.5217130     1.2849120     1.7899600
  O        0.5217120    -1.2850930     1.7898260
  C       -1.2995508    -0.0000155     0.3415475
  C        1.4090800     0.0000190    -0.3971410
  C       -1.9834610    -1.2238950     0.2202880
  C       -1.9834510     1.2238780     0.2203840
  C       -3.2836100    -1.2122960    -0.2842060
  C       -3.2836000     1.2123300    -0.2841110
  C       -3.9288570     0.0000300    -0.5427800
  H       -1.4734280    -2.1539290     0.4522940
  H       -1.4734140     2.1538900     0.4524690
  H       -3.7956980    -2.1526110    -0.4704350
  H       -3.7956790     2.1526630    -0.4702660
  H       -4.9427330     0.0000490    -0.9349330
units angstrom
no_reorient  #important for SAPT in psi4, default
symmetry c1  #important for SAPT in psi4, default
}

set PROPERTIES_ORIGIN ["COM"]
properties('MP2/aug-cc-pvtz', properties = ['dipole'])
--------------------------------------------------------------------------

    Molecular point group: c1
  Charge       = 0
  Multiplicity = 1
  Basis Set: AUG-CC-PVTZ
    Blend: AUG-CC-PVTZ
  Basis Set: (AUG-CC-PVTZ AUX)
    Blend: AUG-CC-PVTZ-JKFIT

    Orbital Energies [Eh]
    ---------------------

    Doubly Occupied:

       1A   -104.879341     2A   -104.879340     3A   -104.874098
       4A    -92.213165     5A    -20.572092     6A    -20.572072
       7A    -11.463350     8A    -11.296663     9A    -11.284771
      10A    -11.284701    11A    -11.279141    12A    -11.267801
      13A    -11.267727    14A    -10.603674    15A    -10.603665
      16A    -10.598276    17A     -9.181401    18A     -8.070455
      19A     -8.070455    20A     -8.068239    21A     -8.068237
      22A     -8.068199    23A     -8.068199    24A     -8.065082
      25A     -8.062789    26A     -8.062766    27A     -6.866236
      28A     -6.865316    29A     -6.865154    30A     -1.464809
      31A     -1.356488    32A     -1.258545    33A     -1.192039
      34A     -1.129433    35A     -1.126861    36A     -1.073279
      37A     -1.052602    38A     -0.959359    39A     -0.869313
      40A     -0.864012    41A     -0.801707    42A     -0.744694
      43A     -0.712352    44A     -0.689302    45A     -0.677207
      46A     -0.653267    47A     -0.650427    48A     -0.638256
      49A     -0.630984    50A     -0.625312    51A     -0.559856
      52A     -0.547162    53A     -0.540596    54A     -0.532354
      55A     -0.522985    56A     -0.517899    57A     -0.516212
      58A     -0.501535    59A     -0.496473    60A     -0.474811
      61A     -0.469505    62A     -0.459202    63A     -0.435784
      64A     -0.380954    65A     -0.368770

  @DF-RHF Final Energy: -2193.86248864324534

   => Energetics <=

    Nuclear Repulsion Energy =           1338.2367990793256922
    One-Electron Energy =               -5688.5650771832961254
    Two-Electron Energy =                2156.4657894607253183
    Total Energy =                      -2193.8624886432453422
  Basis Set: (AUG-CC-PVTZ AUX)
    Blend: AUG-CC-PVTZ-RI
    Molecular point group: c1

    Geometry (in Angstrom), charge = 0, multiplicity = 1:

       Center              X                  Y                   Z               Mass
    ------------   -----------------  -----------------  -----------------  -----------------
         CL           2.976718549075    -0.000032423773     0.226309220752    34.968852682000
         CL           1.007702549075     1.450120576227    -1.334719779248    34.968852682000
         CL           1.007667549075    -1.449971423773    -1.334882779248    34.968852682000
         S            0.201982549075    -0.000056423773     1.142922220752    31.972071174400
         O            0.440150549075     1.284911576227     1.800948220752    15.994914619570
         O            0.440149549075    -1.285093423773     1.800814220752    15.994914619570
         C           -1.381113250925    -0.000015923773     0.352535720752    12.000000000000
         C            1.327517549075     0.000018576227    -0.386152779248    12.000000000000
         C           -2.065023450925    -1.223895423773     0.231276220752    12.000000000000
         C           -2.065013450925     1.223877576227     0.231372220752    12.000000000000
         C           -3.365172450925    -1.212296423773    -0.273217779248    12.000000000000
         C           -3.365162450925     1.212329576227    -0.273122779248    12.000000000000
         C           -4.010419450925     0.000029576227    -0.531791779248    12.000000000000
         H           -1.554990450925    -2.153929423773     0.463282220752     1.007825032230
         H           -1.554976450925     2.153889576227     0.463457220752     1.007825032230
         H           -3.877260450925    -2.152611423773    -0.459446779248     1.007825032230
         H           -3.877241450925     2.152662576227    -0.459277779248     1.007825032230
         H           -5.024295450925     0.000048576227    -0.923944779248     1.007825032230

  Basis Set: AUG-CC-PVTZ
    Blend: AUG-CC-PVTZ
  Basis Set: (AUG-CC-PVTZ AUX)
    Blend: AUG-CC-PVTZ-JKFIT
	 Reference Energy          =   -2193.8624886432453422 [Eh]
	 Singles Energy            =      -0.0000000000000000 [Eh]
	 Same-Spin Energy          =      -0.7064511732316058 [Eh]
	 Opposite-Spin Energy      =      -2.0144169867412649 [Eh]
	 Correlation Energy        =      -2.7208681599728708 [Eh]
	 Total Energy              =   -2196.5833568032180665 [Eh]

	 ================> DF-SCS-MP2 Energies <==================
	-----------------------------------------------------------
	 SCS Same-Spin Scale       =       0.3333333333333333 [-]
	 SCS Opposite-Spin Scale   =       1.2000000000000000 [-]
	 SCS Same-Spin Energy      =      -0.2354837244105353 [Eh]
	 SCS Opposite-Spin Energy  =      -2.4173003840895180 [Eh]
	 SCS Correlation Energy    =      -2.6527841085000534 [Eh]
	 SCS Total Energy          =   -2196.5152727517452149 [Eh]
	-----------------------------------------------------------

  Dipole Moment: [D]
     X:    -3.7866      Y:     0.0002      Z:    -2.9040     Total:     4.7720

*** Psi4 exiting successfully. Buy a developer a beer!
