                               Psi4 1.3.2 release

  ==> Input File <==

--------------------------------------------------------------------------
#psi4
#
memory 32 gb

molecule  {
0 1
 Cl        3.0582810    -0.0000320     0.2153210
 Cl        1.0892650     1.4501210    -1.3457080
 Cl        1.0892300    -1.4499710    -1.3458710
  S        0.2835450    -0.0000560     1.1319340
  O        0.5451793     1.2770709     1.7962829
  O        0.5217120    -1.2850930     1.7898260
  C       -1.3508290    -0.0000210     0.4539040
  C        1.4090800     0.0000190    -0.3971410
  C       -1.9834610    -1.2238950     0.2202880
  C       -1.9834510     1.2238780     0.2203840
  C       -3.2836100    -1.2122960    -0.2842060
  C       -3.2836000     1.2123300    -0.2841110
  C       -3.9288570     0.0000300    -0.5427800
  H       -1.4734280    -2.1539290     0.4522940
  H       -1.4734140     2.1538900     0.4524690
  H       -3.7956980    -2.1526110    -0.4704350
  H       -3.7956790     2.1526630    -0.4702660
  H       -4.9427330     0.0000490    -0.9349330
units angstrom
no_reorient  #important for SAPT in psi4, default
symmetry c1  #important for SAPT in psi4, default
}

set PROPERTIES_ORIGIN ["COM"]
properties('MP2/aug-cc-pvtz', properties = ['dipole'])
--------------------------------------------------------------------------

    Molecular point group: c1
  Charge       = 0
  Multiplicity = 1
  Basis Set: AUG-CC-PVTZ
    Blend: AUG-CC-PVTZ
  Basis Set: (AUG-CC-PVTZ AUX)
    Blend: AUG-CC-PVTZ-JKFIT

    Orbital Energies [Eh]
    ---------------------

    Doubly Occupied:

       1A   -104.880643     2A   -104.880486     3A   -104.876116
       4A    -92.211602     5A    -20.568730     6A    -20.567982
       7A    -11.466430     8A    -11.295968     9A    -11.283019
      10A    -11.282906    11A    -11.278566    12A    -11.268388
      13A    -11.268307    14A    -10.604956    15A    -10.604800
      16A    -10.600221    17A     -9.179955    18A     -8.071744
      19A     -8.071588    20A     -8.069520    21A     -8.069480
      22A     -8.069364    23A     -8.069324    24A     -8.067027
      25A     -8.064720    26A     -8.064691    27A     -6.864661
      28A     -6.863969    29A     -6.863676    30A     -1.462879
      31A     -1.353446    32A     -1.259712    33A     -1.193807
      34A     -1.130560    35A     -1.128211    36A     -1.073488
      37A     -1.053592    38A     -0.958375    39A     -0.871332
      40A     -0.865920    41A     -0.802747    42A     -0.745148
      43A     -0.713340    44A     -0.686844    45A     -0.677151
      46A     -0.654463    47A     -0.650868    48A     -0.638953
      49A     -0.630896    50A     -0.625796    51A     -0.559234
      52A     -0.546995    53A     -0.542611    54A     -0.533973
      55A     -0.522001    56A     -0.517233    57A     -0.516647
      58A     -0.498694    59A     -0.494469    60A     -0.475690
      61A     -0.469638    62A     -0.460290    63A     -0.437119
      64A     -0.382275    65A     -0.369927

  @DF-RHF Final Energy: -2193.86829951701066

   => Energetics <=

    Nuclear Repulsion Energy =           1337.3497867660719294
    One-Electron Energy =               -5686.7698490389375365
    Two-Electron Energy =                2155.5517627558551794
    Total Energy =                      -2193.8682995170106551
  Basis Set: (AUG-CC-PVTZ AUX)
    Blend: AUG-CC-PVTZ-RI
    Molecular point group: c1

    Geometry (in Angstrom), charge = 0, multiplicity = 1:

       Center              X                  Y                   Z               Mass
    ------------   -----------------  -----------------  -----------------  -----------------
         CL           2.977649103080     0.000454121536     0.220689330769    34.968852682000
         CL           1.008633103080     1.450607121536    -1.340339669231    34.968852682000
         CL           1.008598103080    -1.449484878464    -1.340502669231    34.968852682000
         S            0.202913103080     0.000430121536     1.137302330769    31.972071174400
         O            0.464547403080     1.277557021536     1.801651230769    15.994914619570
         O            0.441080103080    -1.284606878464     1.795194330769    15.994914619570
         C           -1.431460896920     0.000465121536     0.459272330769    12.000000000000
         C            1.328448103080     0.000505121536    -0.391772669231    12.000000000000
         C           -2.064092896920    -1.223408878464     0.225656330769    12.000000000000
         C           -2.064082896920     1.224364121536     0.225752330769    12.000000000000
         C           -3.364241896920    -1.211809878464    -0.278837669231    12.000000000000
         C           -3.364231896920     1.212816121536    -0.278742669231    12.000000000000
         C           -4.009488896920     0.000516121536    -0.537411669231    12.000000000000
         H           -1.554059896920    -2.153442878464     0.457662330769     1.007825032230
         H           -1.554045896920     2.154376121536     0.457837330769     1.007825032230
         H           -3.876329896920    -2.152124878464    -0.465066669231     1.007825032230
         H           -3.876310896920     2.153149121536    -0.464897669231     1.007825032230
         H           -5.023364896920     0.000535121536    -0.929564669231     1.007825032230

  Basis Set: AUG-CC-PVTZ
    Blend: AUG-CC-PVTZ
  Basis Set: (AUG-CC-PVTZ AUX)
    Blend: AUG-CC-PVTZ-JKFIT
	 Reference Energy          =   -2193.8682995170106551 [Eh]
	 Singles Energy            =      -0.0000000000000000 [Eh]
	 Same-Spin Energy          =      -0.7057527979223374 [Eh]
	 Opposite-Spin Energy      =      -2.0128895804083369 [Eh]
	 Correlation Energy        =      -2.7186423783306743 [Eh]
	 Total Energy              =   -2196.5869418953411696 [Eh]

	 ================> DF-SCS-MP2 Energies <==================
	-----------------------------------------------------------
	 SCS Same-Spin Scale       =       0.3333333333333333 [-]
	 SCS Opposite-Spin Scale   =       1.2000000000000000 [-]
	 SCS Same-Spin Energy      =      -0.2352509326407791 [Eh]
	 SCS Opposite-Spin Energy  =      -2.4154674964900043 [Eh]
	 SCS Correlation Energy    =      -2.6507184291307833 [Eh]
	 SCS Total Energy          =   -2196.5190179461415028 [Eh]
	-----------------------------------------------------------

  Dipole Moment: [D]
     X:    -3.7819      Y:     0.0151      Z:    -3.0214     Total:     4.8406

*** Psi4 exiting successfully. Buy a developer a beer!
