                               Psi4 1.3.2 release

  ==> Input File <==

--------------------------------------------------------------------------
#psi4
#
memory 32 gb

molecule  {
0 1
 Cl        3.0582810    -0.0000320     0.2153210
 Cl        1.0892650     1.4501210    -1.3457080
 Cl        1.0892300    -1.4499710    -1.3458710
  S        0.2835450    -0.0000560     1.1319340
  O        0.5368320     1.2597065     1.8317262
  O        0.5217120    -1.2850930     1.7898260
  C       -1.3508290    -0.0000210     0.4539040
  C        1.4090800     0.0000190    -0.3971410
  C       -1.9834610    -1.2238950     0.2202880
  C       -1.9834510     1.2238780     0.2203840
  C       -3.2836100    -1.2122960    -0.2842060
  C       -3.2836000     1.2123300    -0.2841110
  C       -3.9288570     0.0000300    -0.5427800
  H       -1.4734280    -2.1539290     0.4522940
  H       -1.4734140     2.1538900     0.4524690
  H       -3.7956980    -2.1526110    -0.4704350
  H       -3.7956790     2.1526630    -0.4702660
  H       -4.9427330     0.0000490    -0.9349330
units angstrom
no_reorient  #important for SAPT in psi4, default
symmetry c1  #important for SAPT in psi4, default
}

set PROPERTIES_ORIGIN ["COM"]
properties('MP2/aug-cc-pvtz', properties = ['dipole'])
--------------------------------------------------------------------------

    Molecular point group: c1
  Charge       = 0
  Multiplicity = 1
  Basis Set: AUG-CC-PVTZ
    Blend: AUG-CC-PVTZ
  Basis Set: (AUG-CC-PVTZ AUX)
    Blend: AUG-CC-PVTZ-JKFIT

    Orbital Energies [Eh]
    ---------------------

    Doubly Occupied:

       1A   -104.881675     2A   -104.881515     3A   -104.876836
       4A    -92.211005     5A    -20.568372     6A    -20.565743
       7A    -11.467808     8A    -11.295983     9A    -11.283056
      10A    -11.282847    11A    -11.278486    12A    -11.268406
      13A    -11.268311    14A    -10.605988    15A    -10.605801
      16A    -10.600931    17A     -9.179436    18A     -8.072776
      19A     -8.072589    20A     -8.070550    21A     -8.070511
      22A     -8.070359    23A     -8.070317    24A     -8.067737
      25A     -8.065426    26A     -8.065397    27A     -6.864129
      28A     -6.863420    29A     -6.863169    30A     -1.462246
      31A     -1.351275    32A     -1.260770    33A     -1.193812
      34A     -1.131535    35A     -1.128977    36A     -1.073615
      37A     -1.053587    38A     -0.959119    39A     -0.871531
      40A     -0.865915    41A     -0.802762    42A     -0.744987
      43A     -0.713291    44A     -0.686717    45A     -0.676804
      46A     -0.654706    47A     -0.650924    48A     -0.639577
      49A     -0.630346    50A     -0.625689    51A     -0.559187
      52A     -0.547493    53A     -0.542713    54A     -0.533922
      55A     -0.521844    56A     -0.517564    57A     -0.515840
      58A     -0.498793    59A     -0.493410    60A     -0.476411
      61A     -0.470031    62A     -0.461072    63A     -0.437825
      64A     -0.382196    65A     -0.369933

  @DF-RHF Final Energy: -2193.86839183440679

   => Energetics <=

    Nuclear Repulsion Energy =           1336.8381437410575927
    One-Electron Energy =               -5685.7230734674958512
    Two-Electron Energy =                2155.0165378920319199
    Total Energy =                      -2193.8683918344067934
  Basis Set: (AUG-CC-PVTZ AUX)
    Blend: AUG-CC-PVTZ-RI
    Molecular point group: c1

    Geometry (in Angstrom), charge = 0, multiplicity = 1:

       Center              X                  Y                   Z               Mass
    ------------   -----------------  -----------------  -----------------  -----------------
         CL           2.978166786000     0.001531027037     0.218491207901    34.968852682000
         CL           1.009150786000     1.451684027037    -1.342537792099    34.968852682000
         CL           1.009115786000    -1.448407972963    -1.342700792099    34.968852682000
         S            0.203430786000     0.001507027037     1.135104207901    31.972071174400
         O            0.456717786000     1.261269527037     1.834896407901    15.994914619570
         O            0.441597786000    -1.283529972963     1.792996207901    15.994914619570
         C           -1.430943214000     0.001542027037     0.457074207901    12.000000000000
         C            1.328965786000     0.001582027037    -0.393970792099    12.000000000000
         C           -2.063575214000    -1.222331972963     0.223458207901    12.000000000000
         C           -2.063565214000     1.225441027037     0.223554207901    12.000000000000
         C           -3.363724214000    -1.210732972963    -0.281035792099    12.000000000000
         C           -3.363714214000     1.213893027037    -0.280940792099    12.000000000000
         C           -4.008971214000     0.001593027037    -0.539609792099    12.000000000000
         H           -1.553542214000    -2.152365972963     0.455464207901     1.007825032230
         H           -1.553528214000     2.155453027037     0.455639207901     1.007825032230
         H           -3.875812214000    -2.151047972963    -0.467264792099     1.007825032230
         H           -3.875793214000     2.154226027037    -0.467095792099     1.007825032230
         H           -5.022847214000     0.001612027037    -0.931762792099     1.007825032230

  Basis Set: AUG-CC-PVTZ
    Blend: AUG-CC-PVTZ
  Basis Set: (AUG-CC-PVTZ AUX)
    Blend: AUG-CC-PVTZ-JKFIT
	 Reference Energy          =   -2193.8683918344067934 [Eh]
	 Singles Energy            =      -0.0000000000000000 [Eh]
	 Same-Spin Energy          =      -0.7056383617458354 [Eh]
	 Opposite-Spin Energy      =      -2.0127379307741209 [Eh]
	 Correlation Energy        =      -2.7183762925199564 [Eh]
	 Total Energy              =   -2196.5867681269269269 [Eh]

	 ================> DF-SCS-MP2 Energies <==================
	-----------------------------------------------------------
	 SCS Same-Spin Scale       =       0.3333333333333333 [-]
	 SCS Opposite-Spin Scale   =       1.2000000000000000 [-]
	 SCS Same-Spin Energy      =      -0.2352127872486118 [Eh]
	 SCS Opposite-Spin Energy  =      -2.4152855169289449 [Eh]
	 SCS Correlation Energy    =      -2.6504983041775567 [Eh]
	 SCS Total Energy          =   -2196.5188901385845384 [Eh]
	-----------------------------------------------------------

  Dipole Moment: [D]
     X:    -3.7462      Y:     0.0400      Z:    -3.1165     Total:     4.8732

*** Psi4 exiting successfully. Buy a developer a beer!
