                               Psi4 1.3.2 release

  ==> Input File <==

--------------------------------------------------------------------------
#psi4
#
memory 32 gb

molecule  {
0 1
 Cl        3.0687188    -0.0000305     0.1864452
 Cl        1.0892650     1.4501210    -1.3457080
 Cl        1.0892300    -1.4499710    -1.3458710
  S        0.2835450    -0.0000560     1.1319340
  O        0.5217130     1.2849120     1.7899600
  O        0.5217120    -1.2850930     1.7898260
  C       -1.3508290    -0.0000210     0.4539040
  C        1.4090800     0.0000190    -0.3971410
  C       -1.9834610    -1.2238950     0.2202880
  C       -1.9834510     1.2238780     0.2203840
  C       -3.2836100    -1.2122960    -0.2842060
  C       -3.2836000     1.2123300    -0.2841110
  C       -3.9288570     0.0000300    -0.5427800
  H       -1.4734280    -2.1539290     0.4522940
  H       -1.4734140     2.1538900     0.4524690
  H       -3.7956980    -2.1526110    -0.4704350
  H       -3.7956790     2.1526630    -0.4702660
  H       -4.9427330     0.0000490    -0.9349330
units angstrom
no_reorient  #important for SAPT in psi4, default
symmetry c1  #important for SAPT in psi4, default
}

set PROPERTIES_ORIGIN ["COM"]
properties('MP2/aug-cc-pvtz', properties = ['dipole'])
--------------------------------------------------------------------------

    Molecular point group: c1
  Charge       = 0
  Multiplicity = 1
  Basis Set: AUG-CC-PVTZ
    Blend: AUG-CC-PVTZ
  Basis Set: (AUG-CC-PVTZ AUX)
    Blend: AUG-CC-PVTZ-JKFIT

    Orbital Energies [Eh]
    ---------------------

    Doubly Occupied:

       1A   -104.880460     2A   -104.880460     3A   -104.876575
       4A    -92.212259     5A    -20.569166     6A    -20.569146
       7A    -11.466877     8A    -11.295213     9A    -11.282457
      10A    -11.282386    11A    -11.278160    12A    -11.267946
      13A    -11.267866    14A    -10.604805    15A    -10.604796
      16A    -10.600684    17A     -9.180544    18A     -8.071588
      19A     -8.071588    20A     -8.069362    21A     -8.069361
      22A     -8.069322    23A     -8.069321    24A     -8.067489
      25A     -8.065183    26A     -8.065154    27A     -6.865251
      28A     -6.864581    29A     -6.864260    30A     -1.463298
      31A     -1.354597    32A     -1.260296    33A     -1.193272
      34A     -1.130660    35A     -1.128013    36A     -1.072890
      37A     -1.053122    38A     -0.958582    39A     -0.871354
      40A     -0.865444    41A     -0.802677    42A     -0.745230
      43A     -0.713594    44A     -0.686781    45A     -0.677208
      46A     -0.654565    47A     -0.650533    48A     -0.638864
      49A     -0.631340    50A     -0.625481    51A     -0.558756
      52A     -0.547799    53A     -0.542161    54A     -0.533641
      55A     -0.522982    56A     -0.517446    57A     -0.516610
      58A     -0.498825    59A     -0.495215    60A     -0.475461
      61A     -0.469801    62A     -0.460211    63A     -0.437847
      64A     -0.381839    65A     -0.369478

  @DF-RHF Final Energy: -2193.86818305264524

   => Energetics <=

    Nuclear Repulsion Energy =           1336.9756293303730672
    One-Electron Energy =               -5686.0113521351349846
    Two-Electron Energy =                2155.1675397521162267
    Total Energy =                      -2193.8681830526452359
  Basis Set: (AUG-CC-PVTZ AUX)
    Blend: AUG-CC-PVTZ-RI
    Molecular point group: c1

    Geometry (in Angstrom), charge = 0, multiplicity = 1:

       Center              X                  Y                   Z               Mass
    ------------   -----------------  -----------------  -----------------  -----------------
         CL           2.988127008820    -0.000030871247     0.196120840490    34.968852682000
         CL           1.008673208820     1.450120628753    -1.336032359510    34.968852682000
         CL           1.008638208820    -1.449971371247    -1.336195359510    34.968852682000
         S            0.202953208820    -0.000056371247     1.141609640490    31.972071174400
         O            0.441121208820     1.284911628753     1.799635640490    15.994914619570
         O            0.441120208820    -1.285093371247     1.799501640490    15.994914619570
         C           -1.431420791180    -0.000021371247     0.463579640490    12.000000000000
         C            1.328488208820     0.000018628753    -0.387465359510    12.000000000000
         C           -2.064052791180    -1.223895371247     0.229963640490    12.000000000000
         C           -2.064042791180     1.223877628753     0.230059640490    12.000000000000
         C           -3.364201791180    -1.212296371247    -0.274530359510    12.000000000000
         C           -3.364191791180     1.212329628753    -0.274435359510    12.000000000000
         C           -4.009448791180     0.000029628753    -0.533104359510    12.000000000000
         H           -1.554019791180    -2.153929371247     0.461969640490     1.007825032230
         H           -1.554005791180     2.153889628753     0.462144640490     1.007825032230
         H           -3.876289791180    -2.152611371247    -0.460759359510     1.007825032230
         H           -3.876270791180     2.152662628753    -0.460590359510     1.007825032230
         H           -5.023324791180     0.000048628753    -0.925257359510     1.007825032230

  Basis Set: AUG-CC-PVTZ
    Blend: AUG-CC-PVTZ
  Basis Set: (AUG-CC-PVTZ AUX)
    Blend: AUG-CC-PVTZ-JKFIT
	 Reference Energy          =   -2193.8681830526452359 [Eh]
	 Singles Energy            =      -0.0000000000000000 [Eh]
	 Same-Spin Energy          =      -0.7057251046934814 [Eh]
	 Opposite-Spin Energy      =      -2.0128986024186584 [Eh]
	 Correlation Energy        =      -2.7186237071121395 [Eh]
	 Total Energy              =   -2196.5868067597575646 [Eh]

	 ================> DF-SCS-MP2 Energies <==================
	-----------------------------------------------------------
	 SCS Same-Spin Scale       =       0.3333333333333333 [-]
	 SCS Opposite-Spin Scale   =       1.2000000000000000 [-]
	 SCS Same-Spin Energy      =      -0.2352417015644938 [Eh]
	 SCS Opposite-Spin Energy  =      -2.4154783229023900 [Eh]
	 SCS Correlation Energy    =      -2.6507200244668838 [Eh]
	 SCS Total Energy          =   -2196.5189030771120997 [Eh]
	-----------------------------------------------------------

  Dipole Moment: [D]
     X:    -3.7277      Y:     0.0002      Z:    -3.0039     Total:     4.7874

*** Psi4 exiting successfully. Buy a developer a beer!
