                               Psi4 1.3.2 release

  ==> Input File <==

--------------------------------------------------------------------------
#psi4
#
memory 32 gb

molecule  {
0 1
 Cl        3.0582810    -0.0000320     0.2153210
 Cl        1.0892650     1.4501210    -1.3457080
 Cl        1.0892300    -1.4499710    -1.3458710
  S        0.2835450    -0.0000560     1.1319340
  O        0.5552575     1.2964886     1.7532305
  O        0.5217120    -1.2850930     1.7898260
  C       -1.3508290    -0.0000210     0.4539040
  C        1.4090800     0.0000190    -0.3971410
  C       -1.9834610    -1.2238950     0.2202880
  C       -1.9834510     1.2238780     0.2203840
  C       -3.2836100    -1.2122960    -0.2842060
  C       -3.2836000     1.2123300    -0.2841110
  C       -3.9288570     0.0000300    -0.5427800
  H       -1.4734280    -2.1539290     0.4522940
  H       -1.4734140     2.1538900     0.4524690
  H       -3.7956980    -2.1526110    -0.4704350
  H       -3.7956790     2.1526630    -0.4702660
  H       -4.9427330     0.0000490    -0.9349330
units angstrom
no_reorient  #important for SAPT in psi4, default
symmetry c1  #important for SAPT in psi4, default
}

set PROPERTIES_ORIGIN ["COM"]
properties('MP2/aug-cc-pvtz', properties = ['dipole'])
--------------------------------------------------------------------------

    Molecular point group: c1
  Charge       = 0
  Multiplicity = 1
  Basis Set: AUG-CC-PVTZ
    Blend: AUG-CC-PVTZ
  Basis Set: (AUG-CC-PVTZ AUX)
    Blend: AUG-CC-PVTZ-JKFIT

    Orbital Energies [Eh]
    ---------------------

    Doubly Occupied:

       1A   -104.879362     2A   -104.879209     3A   -104.875231
       4A    -92.212292     5A    -20.570604     6A    -20.569107
       7A    -11.464739     8A    -11.295976     9A    -11.283025
      10A    -11.282947    11A    -11.278669    12A    -11.268387
      13A    -11.268300    14A    -10.603677    15A    -10.603558
      16A    -10.599350    17A     -9.180561    18A     -8.070465
      19A     -8.070346    20A     -8.068244    21A     -8.068202
      22A     -8.068129    23A     -8.068092    24A     -8.066155
      25A     -8.063854    26A     -8.063823    27A     -6.865283
      28A     -6.864609    29A     -6.864265    30A     -1.463664
      31A     -1.355964    32A     -1.258396    33A     -1.193812
      34A     -1.129356    35A     -1.127267    36A     -1.073347
      37A     -1.053607    38A     -0.957475    39A     -0.871087
      40A     -0.865933    41A     -0.802746    42A     -0.745349
      43A     -0.713377    44A     -0.687009    45A     -0.677574
      46A     -0.654217    47A     -0.650832    48A     -0.638152
      49A     -0.631458    50A     -0.625908    51A     -0.559317
      52A     -0.546421    53A     -0.542479    54A     -0.534048
      55A     -0.522668    56A     -0.518036    57A     -0.515942
      58A     -0.498563    59A     -0.495537    60A     -0.474794
      61A     -0.468978    62A     -0.459301    63A     -0.436210
      64A     -0.382372    65A     -0.369928

  @DF-RHF Final Energy: -2193.86769656407341

   => Energetics <=

    Nuclear Repulsion Energy =           1337.9927822478528014
    One-Electron Energy =               -5688.0857798873057618
    Two-Electron Energy =                2156.2253010753793205
    Total Energy =                      -2193.8676965640734124
  Basis Set: (AUG-CC-PVTZ AUX)
    Blend: AUG-CC-PVTZ-RI
    Molecular point group: c1

    Geometry (in Angstrom), charge = 0, multiplicity = 1:

       Center              X                  Y                   Z               Mass
    ------------   -----------------  -----------------  -----------------  -----------------
         CL           2.977024073191    -0.000750125540     0.223359354863    34.968852682000
         CL           1.008008073191     1.449402874460    -1.337669645137    34.968852682000
         CL           1.007973073191    -1.450689125540    -1.337832645137    34.968852682000
         S            0.202288073191    -0.000774125540     1.139972354863    31.972071174400
         O            0.474000573191     1.295770474460     1.761268854863    15.994914619570
         O            0.440455073191    -1.285811125540     1.797864354863    15.994914619570
         C           -1.432085926809    -0.000739125540     0.461942354863    12.000000000000
         C            1.327823073191    -0.000699125540    -0.389102645137    12.000000000000
         C           -2.064717926809    -1.224613125540     0.228326354863    12.000000000000
         C           -2.064707926809     1.223159874460     0.228422354863    12.000000000000
         C           -3.364866926809    -1.213014125540    -0.276167645137    12.000000000000
         C           -3.364856926809     1.211611874460    -0.276072645137    12.000000000000
         C           -4.010113926809    -0.000688125540    -0.534741645137    12.000000000000
         H           -1.554684926809    -2.154647125540     0.460332354863     1.007825032230
         H           -1.554670926809     2.153171874460     0.460507354863     1.007825032230
         H           -3.876954926809    -2.153329125540    -0.462396645137     1.007825032230
         H           -3.876935926809     2.151944874460    -0.462227645137     1.007825032230
         H           -5.023989926809    -0.000669125540    -0.926894645137     1.007825032230

  Basis Set: AUG-CC-PVTZ
    Blend: AUG-CC-PVTZ
  Basis Set: (AUG-CC-PVTZ AUX)
    Blend: AUG-CC-PVTZ-JKFIT
	 Reference Energy          =   -2193.8676965640734124 [Eh]
	 Singles Energy            =      -0.0000000000000000 [Eh]
	 Same-Spin Energy          =      -0.7059182426611168 [Eh]
	 Opposite-Spin Energy      =      -2.0131258867584187 [Eh]
	 Correlation Energy        =      -2.7190441294195358 [Eh]
	 Total Energy              =   -2196.5867406934930841 [Eh]

	 ================> DF-SCS-MP2 Energies <==================
	-----------------------------------------------------------
	 SCS Same-Spin Scale       =       0.3333333333333333 [-]
	 SCS Opposite-Spin Scale   =       1.2000000000000000 [-]
	 SCS Same-Spin Energy      =      -0.2353060808870389 [Eh]
	 SCS Opposite-Spin Energy  =      -2.4157510641101023 [Eh]
	 SCS Correlation Energy    =      -2.6510571449971412 [Eh]
	 SCS Total Energy          =   -2196.5187537090705518 [Eh]
	-----------------------------------------------------------

  Dipole Moment: [D]
     X:    -3.8262      Y:    -0.0118      Z:    -2.9050     Total:     4.8040

*** Psi4 exiting successfully. Buy a developer a beer!
