                               Psi4 1.3.2 release

  ==> Input File <==

--------------------------------------------------------------------------
#psi4
#
memory 32 gb

molecule  {
0 1
 Cl        3.0582810    -0.0000320     0.2153210
 Cl        1.0892650     1.4501210    -1.3457080
 Cl        1.0892300    -1.4499710    -1.3458710
  S        0.2835450    -0.0000560     1.1319340
  O        0.5217130     1.2849120     1.7899600
  O        0.5217120    -1.2850930     1.7898260
  C       -1.3734963    -0.0000238     0.5113559
  C        1.4090800     0.0000190    -0.3971410
  C       -1.9834610    -1.2238950     0.2202880
  C       -1.9834510     1.2238780     0.2203840
  C       -3.2836100    -1.2122960    -0.2842060
  C       -3.2836000     1.2123300    -0.2841110
  C       -3.9288570     0.0000300    -0.5427800
  H       -1.4734280    -2.1539290     0.4522940
  H       -1.4734140     2.1538900     0.4524690
  H       -3.7956980    -2.1526110    -0.4704350
  H       -3.7956790     2.1526630    -0.4702660
  H       -4.9427330     0.0000490    -0.9349330
units angstrom
no_reorient  #important for SAPT in psi4, default
symmetry c1  #important for SAPT in psi4, default
}

set PROPERTIES_ORIGIN ["COM"]
properties('MP2/aug-cc-pvtz', properties = ['dipole'])
--------------------------------------------------------------------------

    Molecular point group: c1
  Charge       = 0
  Multiplicity = 1
  Basis Set: AUG-CC-PVTZ
    Blend: AUG-CC-PVTZ
  Basis Set: (AUG-CC-PVTZ AUX)
    Blend: AUG-CC-PVTZ-JKFIT

    Orbital Energies [Eh]
    ---------------------

    Doubly Occupied:

       1A   -104.881510     2A   -104.881510     3A   -104.877697
       4A    -92.210872     5A    -20.567139     6A    -20.567119
       7A    -11.468580     8A    -11.294816     9A    -11.282121
      10A    -11.282049    11A    -11.278094    12A    -11.267825
      13A    -11.267745    14A    -10.605807    15A    -10.605798
      16A    -10.601776    17A     -9.179247    18A     -8.072591
      19A     -8.072591    20A     -8.070362    21A     -8.070361
      22A     -8.070321    23A     -8.070321    24A     -8.068581
      25A     -8.066269    26A     -8.066235    27A     -6.863888
      28A     -6.863326    29A     -6.862939    30A     -1.462082
      31A     -1.353146    32A     -1.260761    33A     -1.192845
      34A     -1.131413    35A     -1.129400    36A     -1.072128
      37A     -1.052850    38A     -0.957510    39A     -0.872135
      40A     -0.865018    41A     -0.802507    42A     -0.745132
      43A     -0.713967    44A     -0.685279    45A     -0.676490
      46A     -0.654796    47A     -0.650679    48A     -0.639365
      49A     -0.630912    50A     -0.625173    51A     -0.558280
      52A     -0.547427    53A     -0.541883    54A     -0.533617
      55A     -0.522177    56A     -0.517315    57A     -0.517045
      58A     -0.496721    59A     -0.494248    60A     -0.476556
      61A     -0.470178    62A     -0.461217    63A     -0.437797
      64A     -0.381739    65A     -0.369323

  @DF-RHF Final Energy: -2193.86743740195152

   => Energetics <=

    Nuclear Repulsion Energy =           1336.8754616741252903
    One-Electron Energy =               -5685.8125930775213419
    Two-Electron Energy =                2155.0696940014445318
    Total Energy =                      -2193.8674374019515199
  Basis Set: (AUG-CC-PVTZ AUX)
    Blend: AUG-CC-PVTZ-RI
    Molecular point group: c1

    Geometry (in Angstrom), charge = 0, multiplicity = 1:

       Center              X                  Y                   Z               Mass
    ------------   -----------------  -----------------  -----------------  -----------------
         CL           2.980159107074    -0.000032037588     0.218408325511    34.968852682000
         CL           1.011143107074     1.450120962412    -1.342620674489    34.968852682000
         CL           1.011108107074    -1.449971037588    -1.342783674489    34.968852682000
         S            0.205423107074    -0.000056037588     1.135021325511    31.972071174400
         O            0.443591107074     1.284911962412     1.793047325511    15.994914619570
         O            0.443590107074    -1.285093037588     1.792913325511    15.994914619570
         C           -1.451618192926    -0.000023837588     0.514443225511    12.000000000000
         C            1.330958107074     0.000018962412    -0.394053674489    12.000000000000
         C           -2.061582892926    -1.223895037588     0.223375325511    12.000000000000
         C           -2.061572892926     1.223877962412     0.223471325511    12.000000000000
         C           -3.361731892926    -1.212296037588    -0.281118674489    12.000000000000
         C           -3.361721892926     1.212329962412    -0.281023674489    12.000000000000
         C           -4.006978892926     0.000029962412    -0.539692674489    12.000000000000
         H           -1.551549892926    -2.153929037588     0.455381325511     1.007825032230
         H           -1.551535892926     2.153889962412     0.455556325511     1.007825032230
         H           -3.873819892926    -2.152611037588    -0.467347674489     1.007825032230
         H           -3.873800892926     2.152662962412    -0.467178674489     1.007825032230
         H           -5.020854892926     0.000048962412    -0.931845674489     1.007825032230

  Basis Set: AUG-CC-PVTZ
    Blend: AUG-CC-PVTZ
  Basis Set: (AUG-CC-PVTZ AUX)
    Blend: AUG-CC-PVTZ-JKFIT
	 Reference Energy          =   -2193.8674374019515199 [Eh]
	 Singles Energy            =      -0.0000000000000000 [Eh]
	 Same-Spin Energy          =      -0.7056606986643699 [Eh]
	 Opposite-Spin Energy      =      -2.0128308906714545 [Eh]
	 Correlation Energy        =      -2.7184915893358244 [Eh]
	 Total Energy              =   -2196.5859289912873464 [Eh]

	 ================> DF-SCS-MP2 Energies <==================
	-----------------------------------------------------------
	 SCS Same-Spin Scale       =       0.3333333333333333 [-]
	 SCS Opposite-Spin Scale   =       1.2000000000000000 [-]
	 SCS Same-Spin Energy      =      -0.2352202328881233 [Eh]
	 SCS Opposite-Spin Energy  =      -2.4153970688057451 [Eh]
	 SCS Correlation Energy    =      -2.6506173016938686 [Eh]
	 SCS Total Energy          =   -2196.5180547036452481 [Eh]
	-----------------------------------------------------------

  Dipole Moment: [D]
     X:    -3.6894      Y:     0.0002      Z:    -3.0679     Total:     4.7983

*** Psi4 exiting successfully. Buy a developer a beer!
