                               Psi4 1.3.2 release

  ==> Input File <==

--------------------------------------------------------------------------
#psi4
#
memory 32 gb

molecule  {
0 1
 Cl        3.0582810    -0.0000320     0.2153210
 Cl        1.0892650     1.4501210    -1.3457080
 Cl        1.0892300    -1.4499710    -1.3458710
  S        0.2761371     0.1848568     1.1245042
  O        0.5217130     1.2849120     1.7899600
  O        0.5217120    -1.2850930     1.7898260
  C       -1.3508290    -0.0000210     0.4539040
  C        1.4090800     0.0000190    -0.3971410
  C       -1.9834610    -1.2238950     0.2202880
  C       -1.9834510     1.2238780     0.2203840
  C       -3.2836100    -1.2122960    -0.2842060
  C       -3.2836000     1.2123300    -0.2841110
  C       -3.9288570     0.0000300    -0.5427800
  H       -1.4734280    -2.1539290     0.4522940
  H       -1.4734140     2.1538900     0.4524690
  H       -3.7956980    -2.1526110    -0.4704350
  H       -3.7956790     2.1526630    -0.4702660
  H       -4.9427330     0.0000490    -0.9349330
units angstrom
no_reorient  #important for SAPT in psi4, default
symmetry c1  #important for SAPT in psi4, default
}

set PROPERTIES_ORIGIN ["COM"]
properties('MP2/aug-cc-pvtz', properties = ['dipole'])
--------------------------------------------------------------------------

    Molecular point group: c1
  Charge       = 0
  Multiplicity = 1
  Basis Set: AUG-CC-PVTZ
    Blend: AUG-CC-PVTZ
  Basis Set: (AUG-CC-PVTZ AUX)
    Blend: AUG-CC-PVTZ-JKFIT

    Orbital Energies [Eh]
    ---------------------

    Doubly Occupied:

       1A   -104.880957     2A   -104.880055     3A   -104.876195
       4A    -92.200437     5A    -20.601589     6A    -20.531986
       7A    -11.466818     8A    -11.296032     9A    -11.282859
      10A    -11.282220    11A    -11.278153    12A    -11.268195
      13A    -11.268101    14A    -10.604876    15A    -10.604820
      16A    -10.600265    17A     -9.174997    18A     -8.071647
      19A     -8.071613    20A     -8.069464    21A     -8.069435
      22A     -8.069358    23A     -8.069302    24A     -8.067069
      25A     -8.064776    26A     -8.064729    27A     -6.860307
      28A     -6.858457    29A     -6.857471    30A     -1.548853
      31A     -1.289716    32A     -1.252987    33A     -1.193007
      34A     -1.131341    35A     -1.127566    36A     -1.073928
      37A     -1.052834    38A     -0.957544    39A     -0.874315
      40A     -0.863934    41A     -0.804638    42A     -0.753203
      43A     -0.728770    44A     -0.700851    45A     -0.689097
      46A     -0.656381    47A     -0.653448    48A     -0.642469
      49A     -0.637997    50A     -0.624749    51A     -0.579783
      52A     -0.561187    53A     -0.543358    54A     -0.534597
      55A     -0.518946    56A     -0.516956    57A     -0.501401
      58A     -0.486809    59A     -0.477929    60A     -0.467414
      61A     -0.461945    62A     -0.448587    63A     -0.425805
      64A     -0.381237    65A     -0.369442

  @DF-RHF Final Energy: -2193.80618891794893

   => Energetics <=

    Nuclear Repulsion Energy =           1338.0357495901184848
    One-Electron Energy =               -5688.0334719612601475
    Two-Electron Energy =                2156.1915334531922781
    Total Energy =                      -2193.8061889179489299
  Basis Set: (AUG-CC-PVTZ AUX)
    Blend: AUG-CC-PVTZ-RI
    Molecular point group: c1

    Geometry (in Angstrom), charge = 0, multiplicity = 1:

       Center              X                  Y                   Z               Mass
    ------------   -----------------  -----------------  -----------------  -----------------
         CL           2.980022772603    -0.022955282883     0.222002515652    34.968852682000
         CL           1.011006772603     1.427197717117    -1.339026484348    34.968852682000
         CL           1.010971772603    -1.472894282883    -1.339189484348    34.968852682000
         S            0.197878872603     0.161933517117     1.131185715652    31.972071174400
         O            0.443454772603     1.261988717117     1.796641515652    15.994914619570
         O            0.443453772603    -1.308016282883     1.796507515652    15.994914619570
         C           -1.429087227397    -0.022944282883     0.460585515652    12.000000000000
         C            1.330821772603    -0.022904282883    -0.390459484348    12.000000000000
         C           -2.061719227397    -1.246818282883     0.226969515652    12.000000000000
         C           -2.061709227397     1.200954717117     0.227065515652    12.000000000000
         C           -3.361868227397    -1.235219282883    -0.277524484348    12.000000000000
         C           -3.361858227397     1.189406717117    -0.277429484348    12.000000000000
         C           -4.007115227397    -0.022893282883    -0.536098484348    12.000000000000
         H           -1.551686227397    -2.176852282883     0.458975515652     1.007825032230
         H           -1.551672227397     2.130966717117     0.459150515652     1.007825032230
         H           -3.873956227397    -2.175534282883    -0.463753484348     1.007825032230
         H           -3.873937227397     2.129739717117    -0.463584484348     1.007825032230
         H           -5.020991227397    -0.022874282883    -0.928251484348     1.007825032230

  Basis Set: AUG-CC-PVTZ
    Blend: AUG-CC-PVTZ
  Basis Set: (AUG-CC-PVTZ AUX)
    Blend: AUG-CC-PVTZ-JKFIT
	 Reference Energy          =   -2193.8061889179489299 [Eh]
	 Singles Energy            =      -0.0000000000000000 [Eh]
	 Same-Spin Energy          =      -0.7045845949627856 [Eh]
	 Opposite-Spin Energy      =      -2.0118903251649836 [Eh]
	 Correlation Energy        =      -2.7164749201277694 [Eh]
	 Total Energy              =   -2196.5226638380768236 [Eh]

	 ================> DF-SCS-MP2 Energies <==================
	-----------------------------------------------------------
	 SCS Same-Spin Scale       =       0.3333333333333333 [-]
	 SCS Opposite-Spin Scale   =       1.2000000000000000 [-]
	 SCS Same-Spin Energy      =      -0.2348615316542619 [Eh]
	 SCS Opposite-Spin Energy  =      -2.4142683901979800 [Eh]
	 SCS Correlation Energy    =      -2.6491299218522419 [Eh]
	 SCS Total Energy          =   -2196.4553188398012935 [Eh]
	-----------------------------------------------------------

  Dipole Moment: [D]
     X:    -3.7890      Y:     1.2209      Z:    -3.1524     Total:     5.0779

*** Psi4 exiting successfully. Buy a developer a beer!
