                               Psi4 1.4a3.dev225

  ==> Input File <==

--------------------------------------------------------------------------
#psi4
#
memory 32 gb

molecule  {
0 1
 Cl        3.0582810    -0.0000320     0.2153210
 Cl        1.0892650     1.4501210    -1.3457080
 Cl        1.0892300    -1.4499710    -1.3458710
  S        0.2835450    -0.0000560     1.1319340
  O        0.5217130     1.2849120     1.7899600
  O        0.5217120    -1.2850930     1.7898260
  C       -1.3693024    -0.0000206     0.4462402
  C        1.4090800     0.0000190    -0.3971410
  C       -1.9834610    -1.2238950     0.2202880
  C       -1.9834510     1.2238780     0.2203840
  C       -3.2836100    -1.2122960    -0.2842060
  C       -3.2836000     1.2123300    -0.2841110
  C       -3.9288570     0.0000300    -0.5427800
  H       -1.4734280    -2.1539290     0.4522940
  H       -1.4734140     2.1538900     0.4524690
  H       -3.7956980    -2.1526110    -0.4704350
  H       -3.7956790     2.1526630    -0.4702660
  H       -4.9427330     0.0000490    -0.9349330
units angstrom
no_reorient  #important for SAPT in psi4, default
symmetry c1  #important for SAPT in psi4, default
}

set PROPERTIES_ORIGIN ["COM"]
properties('MP2/aug-cc-pvtz', properties = ['dipole'])
--------------------------------------------------------------------------

    Molecular point group: c1
  Charge       = 0
  Multiplicity = 1
  Basis Set: AUG-CC-PVTZ
    Blend: AUG-CC-PVTZ
  Basis Set: (AUG-CC-PVTZ AUX)
    Blend: AUG-CC-PVTZ-JKFIT

    Orbital Energies [Eh]
    ---------------------

    Doubly Occupied:

       1A   -104.880982     2A   -104.880982     3A   -104.876747
       4A    -92.211427     5A    -20.569169     6A    -20.569149
       7A    -11.467138     8A    -11.295342     9A    -11.280393
      10A    -11.280325    11A    -11.276715    12A    -11.267775
      13A    -11.267685    14A    -10.605292    15A    -10.605283
      16A    -10.600857    17A     -9.179700    18A     -8.072076
      19A     -8.072076    20A     -8.069849    21A     -8.069848
      22A     -8.069810    23A     -8.069809    24A     -8.067663
      25A     -8.065357    26A     -8.065326    27A     -6.864382
      28A     -6.863667    29A     -6.863401    30A     -1.462701
      31A     -1.354395    32A     -1.260198    33A     -1.194912
      34A     -1.130941    35A     -1.128741    36A     -1.071301
      37A     -1.053964    38A     -0.957200    39A     -0.869578
      40A     -0.866383    41A     -0.802760    42A     -0.745436
      43A     -0.712761    44A     -0.685309    45A     -0.676969
      46A     -0.655110    47A     -0.650698    48A     -0.638928
      49A     -0.631998    50A     -0.626167    51A     -0.558517
      52A     -0.547558    53A     -0.543315    54A     -0.534997
      55A     -0.522681    56A     -0.517720    57A     -0.516596
      58A     -0.496742    59A     -0.495205    60A     -0.476182
      61A     -0.470195    62A     -0.460772    63A     -0.436342
      64A     -0.381969    65A     -0.369491

  @DF-RHF Final Energy: -2193.86795833288443

   => Energetics <=

    Nuclear Repulsion Energy =           1337.1549828871145564
    One-Electron Energy =               -5686.3799753913972381
    Two-Electron Energy =                2155.3570341713980270
    Total Energy =                      -2193.8679583328844274
  Basis Set: (AUG-CC-PVTZ AUX)
    Blend: AUG-CC-PVTZ-RI
    Molecular point group: c1

    Geometry (in Angstrom), charge = 0, multiplicity = 1:

       Center              X                  Y                   Z               Mass
    ------------   -----------------  -----------------  -----------------  -----------------
         CL           2.979963972060    -0.000032186479     0.221438047976    34.968852682000
         CL           1.010947972060     1.450120813521    -1.339590952024    34.968852682000
         CL           1.010912972060    -1.449971186479    -1.339753952024    34.968852682000
         S            0.205227972060    -0.000056186479     1.138051047976    31.972071174400
         O            0.443395972060     1.284911813521     1.796077047976    15.994914619570
         O            0.443394972060    -1.285093186479     1.795943047976    15.994914619570
         C           -1.447619427940    -0.000020786479     0.452357247976    12.000000000000
         C            1.330762972060     0.000018813521    -0.391023952024    12.000000000000
         C           -2.061778027940    -1.223895186479     0.226405047976    12.000000000000
         C           -2.061768027940     1.223877813521     0.226501047976    12.000000000000
         C           -3.361927027940    -1.212296186479    -0.278088952024    12.000000000000
         C           -3.361917027940     1.212329813521    -0.277993952024    12.000000000000
         C           -4.007174027940     0.000029813521    -0.536662952024    12.000000000000
         H           -1.551745027940    -2.153929186479     0.458411047976     1.007825032230
         H           -1.551731027940     2.153889813521     0.458586047976     1.007825032230
         H           -3.874015027940    -2.152611186479    -0.464317952024     1.007825032230
         H           -3.873996027940     2.152662813521    -0.464148952024     1.007825032230
         H           -5.021050027940     0.000048813521    -0.928815952024     1.007825032230

  Basis Set: AUG-CC-PVTZ
    Blend: AUG-CC-PVTZ
  Basis Set: (AUG-CC-PVTZ AUX)
    Blend: AUG-CC-PVTZ-JKFIT
	 Reference Energy          =   -2193.8679583328844274 [Eh]
	 Singles Energy            =      -0.0000000000000000 [Eh]
	 Same-Spin Energy          =      -0.7057968701389468 [Eh]
	 Opposite-Spin Energy      =      -2.0129482896428810 [Eh]
	 Correlation Energy        =      -2.7187451597818280 [Eh]
	 Total Energy              =   -2196.5867034926664019 [Eh]

	 ================> DF-SCS-MP2 Energies <==================
	-----------------------------------------------------------
	 SCS Same-Spin Scale       =       0.3333333333333333 [-]
	 SCS Opposite-Spin Scale   =       1.2000000000000000 [-]
	 SCS Same-Spin Energy      =      -0.2352656233796489 [Eh]
	 SCS Opposite-Spin Energy  =      -2.4155379475714569 [Eh]
	 SCS Correlation Energy    =      -2.6508035709511057 [Eh]
	 SCS Total Energy          =   -2196.5187619038356388 [Eh]
	-----------------------------------------------------------

  Dipole Moment: [D]
     X:    -3.6654      Y:     0.0002      Z:    -2.9932     Total:     4.7322

*** Psi4 exiting successfully. Buy a developer a beer!
