                               Psi4 1.3.2 release

  ==> Input File <==

--------------------------------------------------------------------------
#psi4
#
memory 32 gb

molecule  {
0 1
 Cl        3.0582810    -0.0000320     0.2153210
 Cl        1.0892650     1.4501210    -1.3457080
 Cl        1.0892300    -1.4499710    -1.3458710
  S        0.2835450    -0.0000560     1.1319340
  O        0.5217130     1.2849120     1.7899600
  O        0.5217120    -1.2850930     1.7898260
  C       -1.3624133    -0.0000224     0.4825310
  C        1.4090800     0.0000190    -0.3971410
  C       -1.9834610    -1.2238950     0.2202880
  C       -1.9834510     1.2238780     0.2203840
  C       -3.2836100    -1.2122960    -0.2842060
  C       -3.2836000     1.2123300    -0.2841110
  C       -3.9288570     0.0000300    -0.5427800
  H       -1.4734280    -2.1539290     0.4522940
  H       -1.4734140     2.1538900     0.4524690
  H       -3.7956980    -2.1526110    -0.4704350
  H       -3.7956790     2.1526630    -0.4702660
  H       -4.9427330     0.0000490    -0.9349330
units angstrom
no_reorient  #important for SAPT in psi4, default
symmetry c1  #important for SAPT in psi4, default
}

set PROPERTIES_ORIGIN ["COM"]
properties('MP2/aug-cc-pvtz', properties = ['dipole'])
--------------------------------------------------------------------------

    Molecular point group: c1
  Charge       = 0
  Multiplicity = 1
  Basis Set: AUG-CC-PVTZ
    Blend: AUG-CC-PVTZ
  Basis Set: (AUG-CC-PVTZ AUX)
    Blend: AUG-CC-PVTZ-JKFIT

    Orbital Energies [Eh]
    ---------------------

    Doubly Occupied:

       1A   -104.881201     2A   -104.881201     3A   -104.877178
       4A    -92.211339     5A    -20.568065     6A    -20.568045
       7A    -11.467806     8A    -11.294817     9A    -11.282079
      10A    -11.282008    11A    -11.277963    12A    -11.267813
      13A    -11.267732    14A    -10.605505    15A    -10.605496
      16A    -10.601273    17A     -9.179693    18A     -8.072289
      19A     -8.072288    20A     -8.070061    21A     -8.070059
      22A     -8.070021    23A     -8.070020    24A     -8.068079
      25A     -8.065769    26A     -8.065738    27A     -6.864364
      28A     -6.863749    29A     -6.863397    30A     -1.462627
      31A     -1.353792    32A     -1.260449    33A     -1.193025
      34A     -1.131133    35A     -1.129039    36A     -1.072431
      37A     -1.052923    38A     -0.957924    39A     -0.871642
      40A     -0.865216    41A     -0.802563    42A     -0.745158
      43A     -0.713716    44A     -0.685924    45A     -0.676810
      46A     -0.654706    47A     -0.650580    48A     -0.639276
      49A     -0.631102    50A     -0.625257    51A     -0.558448
      52A     -0.547409    53A     -0.542024    54A     -0.533568
      55A     -0.522338    56A     -0.517341    57A     -0.517159
      58A     -0.497642    59A     -0.494695    60A     -0.476348
      61A     -0.470146    62A     -0.460951    63A     -0.437602
      64A     -0.381681    65A     -0.369355

  @DF-RHF Final Energy: -2193.86808751746275

   => Energetics <=

    Nuclear Repulsion Energy =           1337.1511477198976081
    One-Electron Energy =               -5686.3643788382723869
    Two-Electron Energy =                2155.3451436009122517
    Total Energy =                      -2193.8680875174627545
  Basis Set: (AUG-CC-PVTZ AUX)
    Blend: AUG-CC-PVTZ-RI
    Molecular point group: c1

    Geometry (in Angstrom), charge = 0, multiplicity = 1:

       Center              X                  Y                   Z               Mass
    ------------   -----------------  -----------------  -----------------  -----------------
         CL           2.979643433987    -0.000032102728     0.219749498947    34.968852682000
         CL           1.010627433987     1.450120897272    -1.341279501053    34.968852682000
         CL           1.010592433987    -1.449971102728    -1.341442501053    34.968852682000
         S            0.204907433987    -0.000056102728     1.136362498947    31.972071174400
         O            0.443075433987     1.284911897272     1.794388498947    15.994914619570
         O            0.443074433987    -1.285093102728     1.794254498947    15.994914619570
         C           -1.441050866013    -0.000022502728     0.486959498947    12.000000000000
         C            1.330442433987     0.000018897272    -0.392712501053    12.000000000000
         C           -2.062098566013    -1.223895102728     0.224716498947    12.000000000000
         C           -2.062088566013     1.223877897272     0.224812498947    12.000000000000
         C           -3.362247566013    -1.212296102728    -0.279777501053    12.000000000000
         C           -3.362237566013     1.212329897272    -0.279682501053    12.000000000000
         C           -4.007494566013     0.000029897272    -0.538351501053    12.000000000000
         H           -1.552065566013    -2.153929102728     0.456722498947     1.007825032230
         H           -1.552051566013     2.153889897272     0.456897498947     1.007825032230
         H           -3.874335566013    -2.152611102728    -0.466006501053     1.007825032230
         H           -3.874316566013     2.152662897272    -0.465837501053     1.007825032230
         H           -5.021370566013     0.000048897272    -0.930504501053     1.007825032230

  Basis Set: AUG-CC-PVTZ
    Blend: AUG-CC-PVTZ
  Basis Set: (AUG-CC-PVTZ AUX)
    Blend: AUG-CC-PVTZ-JKFIT
	 Reference Energy          =   -2193.8680875174627545 [Eh]
	 Singles Energy            =      -0.0000000000000000 [Eh]
	 Same-Spin Energy          =      -0.7057161793031721 [Eh]
	 Opposite-Spin Energy      =      -2.0128691589855214 [Eh]
	 Correlation Energy        =      -2.7185853382886935 [Eh]
	 Total Energy              =   -2196.5866728557516581 [Eh]

	 ================> DF-SCS-MP2 Energies <==================
	-----------------------------------------------------------
	 SCS Same-Spin Scale       =       0.3333333333333333 [-]
	 SCS Opposite-Spin Scale   =       1.2000000000000000 [-]
	 SCS Same-Spin Energy      =      -0.2352387264343907 [Eh]
	 SCS Opposite-Spin Energy  =      -2.4154429907826258 [Eh]
	 SCS Correlation Energy    =      -2.6506817172170165 [Eh]
	 SCS Total Energy          =   -2196.5187692346798940 [Eh]
	-----------------------------------------------------------

  Dipole Moment: [D]
     X:    -3.6956      Y:     0.0002      Z:    -3.0380     Total:     4.7840

*** Psi4 exiting successfully. Buy a developer a beer!
