                               Psi4 1.3.2 release

  ==> Input File <==

--------------------------------------------------------------------------
#psi4
#
memory 32 gb

molecule  {
0 1
 Cl        3.0582810    -0.0000320     0.2153210
 Cl        1.0892650     1.4501210    -1.3457080
 Cl        1.0892300    -1.4499710    -1.3458710
  S        0.2830381    -0.0309296     1.1324511
  O        0.5217130     1.2849120     1.7899600
  O        0.5217120    -1.2850930     1.7898260
  C       -1.3508290    -0.0000210     0.4539040
  C        1.4090800     0.0000190    -0.3971410
  C       -1.9834610    -1.2238950     0.2202880
  C       -1.9834510     1.2238780     0.2203840
  C       -3.2836100    -1.2122960    -0.2842060
  C       -3.2836000     1.2123300    -0.2841110
  C       -3.9288570     0.0000300    -0.5427800
  H       -1.4734280    -2.1539290     0.4522940
  H       -1.4734140     2.1538900     0.4524690
  H       -3.7956980    -2.1526110    -0.4704350
  H       -3.7956790     2.1526630    -0.4702660
  H       -4.9427330     0.0000490    -0.9349330
units angstrom
no_reorient  #important for SAPT in psi4, default
symmetry c1  #important for SAPT in psi4, default
}

set PROPERTIES_ORIGIN ["COM"]
properties('MP2/aug-cc-pvtz', properties = ['dipole'])
--------------------------------------------------------------------------

    Molecular point group: c1
  Charge       = 0
  Multiplicity = 1
  Basis Set: AUG-CC-PVTZ
    Blend: AUG-CC-PVTZ
  Basis Set: (AUG-CC-PVTZ AUX)
    Blend: AUG-CC-PVTZ-JKFIT

    Orbital Energies [Eh]
    ---------------------

    Doubly Occupied:

       1A   -104.880863     2A   -104.880724     3A   -104.876549
       4A    -92.211444     5A    -20.574996     6A    -20.562919
       7A    -11.466894     8A    -11.294975     9A    -11.282283
      10A    -11.282147    11A    -11.277966    12A    -11.267821
      13A    -11.267741    14A    -10.605113    15A    -10.605089
      16A    -10.600659    17A     -9.179953    18A     -8.071898
      19A     -8.071880    20A     -8.069678    21A     -8.069648
      22A     -8.069641    23A     -8.069605    24A     -8.067465
      25A     -8.065160    26A     -8.065129    27A     -6.864631
      28A     -6.864040    29A     -6.863603    30A     -1.467365
      31A     -1.351124    32A     -1.259906    33A     -1.193090
      34A     -1.130784    35A     -1.128545    36A     -1.072725
      37A     -1.052952    38A     -0.958121    39A     -0.871193
      40A     -0.865214    41A     -0.802603    42A     -0.745359
      43A     -0.713876    44A     -0.687262    45A     -0.677259
      46A     -0.654520    47A     -0.650588    48A     -0.639298
      49A     -0.631431    50A     -0.625274    51A     -0.559061
      52A     -0.549120    53A     -0.542445    54A     -0.533200
      55A     -0.521922    56A     -0.517234    57A     -0.516734
      58A     -0.499659    59A     -0.492445    60A     -0.475937
      61A     -0.469797    62A     -0.460548    63A     -0.436892
      64A     -0.381595    65A     -0.369345

  @DF-RHF Final Energy: -2193.86651560733935

   => Energetics <=

    Nuclear Repulsion Energy =           1337.4012767740539402
    One-Electron Energy =               -5686.8657115613104907
    Two-Electron Energy =                2155.5979191799169712
    Total Energy =                      -2193.8665156073393518
  Basis Set: (AUG-CC-PVTZ AUX)
    Blend: AUG-CC-PVTZ-RI
    Molecular point group: c1

    Geometry (in Angstrom), charge = 0, multiplicity = 1:

       Center              X                  Y                   Z               Mass
    ------------   -----------------  -----------------  -----------------  -----------------
         CL           2.979167275219     0.003795144702     0.221017361014    34.968852682000
         CL           1.010151275219     1.453948144702    -1.340011638986    34.968852682000
         CL           1.010116275219    -1.446143855298    -1.340174638986    34.968852682000
         S            0.203924375219    -0.027102455298     1.138147461014    31.972071174400
         O            0.442599275219     1.288739144702     1.795656361014    15.994914619570
         O            0.442598275219    -1.281265855298     1.795522361014    15.994914619570
         C           -1.429942724781     0.003806144702     0.459600361014    12.000000000000
         C            1.329966275219     0.003846144702    -0.391444638986    12.000000000000
         C           -2.062574724781    -1.220067855298     0.225984361014    12.000000000000
         C           -2.062564724781     1.227705144702     0.226080361014    12.000000000000
         C           -3.362723724781    -1.208468855298    -0.278509638986    12.000000000000
         C           -3.362713724781     1.216157144702    -0.278414638986    12.000000000000
         C           -4.007970724781     0.003857144702    -0.537083638986    12.000000000000
         H           -1.552541724781    -2.150101855298     0.457990361014     1.007825032230
         H           -1.552527724781     2.157717144702     0.458165361014     1.007825032230
         H           -3.874811724781    -2.148783855298    -0.464738638986     1.007825032230
         H           -3.874792724781     2.156490144702    -0.464569638986     1.007825032230
         H           -5.021846724781     0.003876144702    -0.929236638986     1.007825032230

  Basis Set: AUG-CC-PVTZ
    Blend: AUG-CC-PVTZ
  Basis Set: (AUG-CC-PVTZ AUX)
    Blend: AUG-CC-PVTZ-JKFIT
	 Reference Energy          =   -2193.8665156073393518 [Eh]
	 Singles Energy            =      -0.0000000000000000 [Eh]
	 Same-Spin Energy          =      -0.7057549047982524 [Eh]
	 Opposite-Spin Energy      =      -2.0129386582900417 [Eh]
	 Correlation Energy        =      -2.7186935630882942 [Eh]
	 Total Energy              =   -2196.5852091704277882 [Eh]

	 ================> DF-SCS-MP2 Energies <==================
	-----------------------------------------------------------
	 SCS Same-Spin Scale       =       0.3333333333333333 [-]
	 SCS Opposite-Spin Scale   =       1.2000000000000000 [-]
	 SCS Same-Spin Energy      =      -0.2352516349327508 [Eh]
	 SCS Opposite-Spin Energy  =      -2.4155263899480501 [Eh]
	 SCS Correlation Energy    =      -2.6507780248808008 [Eh]
	 SCS Total Energy          =   -2196.5172936322201167 [Eh]
	-----------------------------------------------------------

  Dipole Moment: [D]
     X:    -3.7114      Y:    -0.2011      Z:    -3.0072     Total:     4.7810

*** Psi4 exiting successfully. Buy a developer a beer!
