                               Psi4 1.3.2 release

  ==> Input File <==

--------------------------------------------------------------------------
#psi4
#
memory 32 gb

molecule  {
0 1
 Cl        3.0582810    -0.0000320     0.2153210
 Cl        1.0892650     1.4501210    -1.3457080
 Cl        1.0892300    -1.4499710    -1.3458710
  S        0.2805950     0.1233445     1.1278028
  O        0.5217130     1.2849120     1.7899600
  O        0.5217120    -1.2850930     1.7898260
  C       -1.3508290    -0.0000210     0.4539040
  C        1.4090800     0.0000190    -0.3971410
  C       -1.9834610    -1.2238950     0.2202880
  C       -1.9834510     1.2238780     0.2203840
  C       -3.2836100    -1.2122960    -0.2842060
  C       -3.2836000     1.2123300    -0.2841110
  C       -3.9288570     0.0000300    -0.5427800
  H       -1.4734280    -2.1539290     0.4522940
  H       -1.4734140     2.1538900     0.4524690
  H       -3.7956980    -2.1526110    -0.4704350
  H       -3.7956790     2.1526630    -0.4702660
  H       -4.9427330     0.0000490    -0.9349330
units angstrom
no_reorient  #important for SAPT in psi4, default
symmetry c1  #important for SAPT in psi4, default
}

set PROPERTIES_ORIGIN ["COM"]
properties('MP2/aug-cc-pvtz', properties = ['dipole'])
--------------------------------------------------------------------------

    Molecular point group: c1
  Charge       = 0
  Multiplicity = 1
  Basis Set: AUG-CC-PVTZ
    Blend: AUG-CC-PVTZ
  Basis Set: (AUG-CC-PVTZ AUX)
    Blend: AUG-CC-PVTZ-JKFIT

    Orbital Energies [Eh]
    ---------------------

    Doubly Occupied:

       1A   -104.881069     2A   -104.880488     3A   -104.876508
       4A    -92.206531     5A    -20.591598     6A    -20.544153
       7A    -11.467008     8A    -11.295410     9A    -11.282559
      10A    -11.282111    11A    -11.278031    12A    -11.267963
      13A    -11.267881    14A    -10.605131    15A    -10.605069
      16A    -10.600600    17A     -9.177671    18A     -8.071909
      19A     -8.071862    20A     -8.069710    21A     -8.069678
      22A     -8.069614    23A     -8.069564    24A     -8.067405
      25A     -8.065105    26A     -8.065065    27A     -6.862415
      28A     -6.861749    29A     -6.860755    30A     -1.510193
      31A     -1.315414    32A     -1.258055    33A     -1.193085
      34A     -1.131189    35A     -1.128194    36A     -1.073243
      37A     -1.052879    38A     -0.958137    39A     -0.872750
      40A     -0.864520    41A     -0.803451    42A     -0.748527
      43A     -0.720172    44A     -0.694591    45A     -0.681201
      46A     -0.654982    47A     -0.651984    48A     -0.641108
      49A     -0.634538    50A     -0.624789    51A     -0.567225
      52A     -0.560486    53A     -0.543145    54A     -0.533661
      55A     -0.519501    56A     -0.516727    57A     -0.510046
      58A     -0.493731    59A     -0.480343    60A     -0.472916
      61A     -0.464603    62A     -0.458395    63A     -0.432313
      64A     -0.381448    65A     -0.369375

  @DF-RHF Final Energy: -2193.84108043447713

   => Energetics <=

    Nuclear Repulsion Energy =           1337.7180897576381540
    One-Electron Energy =               -5687.4552838914078166
    Two-Electron Energy =                2155.8961136992925276
    Total Energy =                      -2193.8410804344771350
  Basis Set: (AUG-CC-PVTZ AUX)
    Blend: AUG-CC-PVTZ-RI
    Molecular point group: c1

    Geometry (in Angstrom), charge = 0, multiplicity = 1:

       Center              X                  Y                   Z               Mass
    ------------   -----------------  -----------------  -----------------  -----------------
         CL           2.979470139392    -0.015329777630     0.221593597572    34.968852682000
         CL           1.010454139392     1.434823222370    -1.339435402428    34.968852682000
         CL           1.010419139392    -1.465268777630    -1.339598402428    34.968852682000
         S            0.201784139392     0.108046722370     1.134075397572    31.972071174400
         O            0.442902139392     1.269614222370     1.796232597572    15.994914619570
         O            0.442901139392    -1.300390777630     1.796098597572    15.994914619570
         C           -1.429639860608    -0.015318777630     0.460176597572    12.000000000000
         C            1.330269139392    -0.015278777630    -0.390868402428    12.000000000000
         C           -2.062271860608    -1.239192777630     0.226560597572    12.000000000000
         C           -2.062261860608     1.208580222370     0.226656597572    12.000000000000
         C           -3.362420860608    -1.227593777630    -0.277933402428    12.000000000000
         C           -3.362410860608     1.197032222370    -0.277838402428    12.000000000000
         C           -4.007667860608    -0.015267777630    -0.536507402428    12.000000000000
         H           -1.552238860608    -2.169226777630     0.458566597572     1.007825032230
         H           -1.552224860608     2.138592222370     0.458741597572     1.007825032230
         H           -3.874508860608    -2.167908777630    -0.464162402428     1.007825032230
         H           -3.874489860608     2.137365222370    -0.463993402428     1.007825032230
         H           -5.021543860608    -0.015248777630    -0.928660402428     1.007825032230

  Basis Set: AUG-CC-PVTZ
    Blend: AUG-CC-PVTZ
  Basis Set: (AUG-CC-PVTZ AUX)
    Blend: AUG-CC-PVTZ-JKFIT
	 Reference Energy          =   -2193.8410804344771350 [Eh]
	 Singles Energy            =      -0.0000000000000000 [Eh]
	 Same-Spin Energy          =      -0.7052237589044499 [Eh]
	 Opposite-Spin Energy      =      -2.0124451186771544 [Eh]
	 Correlation Energy        =      -2.7176688775816045 [Eh]
	 Total Energy              =   -2196.5587493120588078 [Eh]

	 ================> DF-SCS-MP2 Energies <==================
	-----------------------------------------------------------
	 SCS Same-Spin Scale       =       0.3333333333333333 [-]
	 SCS Opposite-Spin Scale   =       1.2000000000000000 [-]
	 SCS Same-Spin Energy      =      -0.2350745863014833 [Eh]
	 SCS Opposite-Spin Energy  =      -2.4149341424125850 [Eh]
	 SCS Correlation Energy    =      -2.6500087287140683 [Eh]
	 SCS Total Energy          =   -2196.4910891631911909 [Eh]
	-----------------------------------------------------------

  Dipole Moment: [D]
     X:    -3.7395      Y:     0.8096      Z:    -3.0802     Total:     4.9119

*** Psi4 exiting successfully. Buy a developer a beer!
