                               Psi4 1.3.2 release

  ==> Input File <==

--------------------------------------------------------------------------
#psi4
#
memory 32 gb

molecule  {
0 1
 Cl        3.0582810    -0.0000320     0.2153210
 Cl        1.0892650     1.4501210    -1.3457080
 Cl        1.0892300    -1.4499710    -1.3458710
  S        0.2835450    -0.0000560     1.1319340
  O        0.5884710     1.3064856     1.7157440
  O        0.5217120    -1.2850930     1.7898260
  C       -1.3508290    -0.0000210     0.4539040
  C        1.4090800     0.0000190    -0.3971410
  C       -1.9834610    -1.2238950     0.2202880
  C       -1.9834510     1.2238780     0.2203840
  C       -3.2836100    -1.2122960    -0.2842060
  C       -3.2836000     1.2123300    -0.2841110
  C       -3.9288570     0.0000300    -0.5427800
  H       -1.4734280    -2.1539290     0.4522940
  H       -1.4734140     2.1538900     0.4524690
  H       -3.7956980    -2.1526110    -0.4704350
  H       -3.7956790     2.1526630    -0.4702660
  H       -4.9427330     0.0000490    -0.9349330
units angstrom
no_reorient  #important for SAPT in psi4, default
symmetry c1  #important for SAPT in psi4, default
}

set PROPERTIES_ORIGIN ["COM"]
properties('MP2/aug-cc-pvtz', properties = ['dipole'])
--------------------------------------------------------------------------

    Molecular point group: c1
  Charge       = 0
  Multiplicity = 1
  Basis Set: AUG-CC-PVTZ
    Blend: AUG-CC-PVTZ
  Basis Set: (AUG-CC-PVTZ AUX)
    Blend: AUG-CC-PVTZ-JKFIT

    Orbital Energies [Eh]
    ---------------------

    Doubly Occupied:

       1A   -104.877812     2A   -104.877487     3A   -104.873799
       4A    -92.212797     5A    -20.572253     6A    -20.569227
       7A    -11.462441     8A    -11.297029     9A    -11.283818
      10A    -11.283728    11A    -11.279375    12A    -11.268977
      13A    -11.268874    14A    -10.602137    15A    -10.601881
      16A    -10.597926    17A     -9.181015    18A     -8.068925
      19A     -8.068670    20A     -8.066710    21A     -8.066666
      22A     -8.066463    23A     -8.066428    24A     -8.064732
      25A     -8.062435    26A     -8.062404    27A     -6.865756
      28A     -6.865078    29A     -6.864704    30A     -1.464238
      31A     -1.357501    32A     -1.256617    33A     -1.194545
      34A     -1.127836    35A     -1.125850    36A     -1.074003
      37A     -1.054265    38A     -0.956661    39A     -0.870980
      40A     -0.866600    41A     -0.802977    42A     -0.745553
      43A     -0.713269    44A     -0.687465    45A     -0.678114
      46A     -0.653917    47A     -0.651226    48A     -0.637066
      49A     -0.631613    50A     -0.626480    51A     -0.559994
      52A     -0.545674    53A     -0.542757    54A     -0.534636
      55A     -0.523151    56A     -0.518268    57A     -0.514917
      58A     -0.498570    59A     -0.495715    60A     -0.473435
      61A     -0.467746    62A     -0.457892    63A     -0.434943
      64A     -0.383116    65A     -0.370519

  @DF-RHF Final Energy: -2193.86664166211767

   => Energetics <=

    Nuclear Repulsion Energy =           1338.6200844041288747
    One-Electron Energy =               -5689.3781368345244118
    Two-Electron Energy =                2156.8914107682780923
    Total Energy =                      -2193.8666416621176722
  Basis Set: (AUG-CC-PVTZ AUX)
    Blend: AUG-CC-PVTZ-RI
    Molecular point group: c1

    Geometry (in Angstrom), charge = 0, multiplicity = 1:

       Center              X                  Y                   Z               Mass
    ------------   -----------------  -----------------  -----------------  -----------------
         CL           2.974964238078    -0.001370119568     0.225684192925    34.968852682000
         CL           1.005948238078     1.448782880432    -1.335344807075    34.968852682000
         CL           1.005913238078    -1.451309119568    -1.335507807075    34.968852682000
         S            0.200228238078    -0.001394119568     1.142297192925    31.972071174400
         O            0.505154238078     1.305147480432     1.726107192925    15.994914619570
         O            0.438395238078    -1.286431119568     1.800189192925    15.994914619570
         C           -1.434145761922    -0.001359119568     0.464267192925    12.000000000000
         C            1.325763238078    -0.001319119568    -0.386777807075    12.000000000000
         C           -2.066777761922    -1.225233119568     0.230651192925    12.000000000000
         C           -2.066767761922     1.222539880432     0.230747192925    12.000000000000
         C           -3.366926761922    -1.213634119568    -0.273842807075    12.000000000000
         C           -3.366916761922     1.210991880432    -0.273747807075    12.000000000000
         C           -4.012173761922    -0.001308119568    -0.532416807075    12.000000000000
         H           -1.556744761922    -2.155267119568     0.462657192925     1.007825032230
         H           -1.556730761922     2.152551880432     0.462832192925     1.007825032230
         H           -3.879014761922    -2.153949119568    -0.460071807075     1.007825032230
         H           -3.878995761922     2.151324880432    -0.459902807075     1.007825032230
         H           -5.026049761922    -0.001289119568    -0.924569807075     1.007825032230

  Basis Set: AUG-CC-PVTZ
    Blend: AUG-CC-PVTZ
  Basis Set: (AUG-CC-PVTZ AUX)
    Blend: AUG-CC-PVTZ-JKFIT
	 Reference Energy          =   -2193.8666416621176722 [Eh]
	 Singles Energy            =      -0.0000000000000000 [Eh]
	 Same-Spin Energy          =      -0.7060721343322907 [Eh]
	 Opposite-Spin Energy      =      -2.0133273756790353 [Eh]
	 Correlation Energy        =      -2.7193995100113257 [Eh]
	 Total Energy              =   -2196.5860411721291712 [Eh]

	 ================> DF-SCS-MP2 Energies <==================
	-----------------------------------------------------------
	 SCS Same-Spin Scale       =       0.3333333333333333 [-]
	 SCS Opposite-Spin Scale   =       1.2000000000000000 [-]
	 SCS Same-Spin Energy      =      -0.2353573781107635 [Eh]
	 SCS Opposite-Spin Energy  =      -2.4159928508148423 [Eh]
	 SCS Correlation Energy    =      -2.6513502289256059 [Eh]
	 SCS Total Energy          =   -2196.5179918910434935 [Eh]
	-----------------------------------------------------------

  Dipole Moment: [D]
     X:    -3.9467      Y:    -0.0204      Z:    -2.7971     Total:     4.8374

*** Psi4 exiting successfully. Buy a developer a beer!
