                               Psi4 1.3.2 release

  ==> Input File <==

--------------------------------------------------------------------------
#psi4
#
memory 32 gb

molecule  {
0 1
 Cl        3.0582810    -0.0000320     0.2153210
 Cl        1.0892650     1.4501210    -1.3457080
 Cl        1.0892300    -1.4499710    -1.3458710
  S        0.2835450    -0.0000560     1.1319340
  O        0.4537946     1.2570781     1.8609702
  O        0.5217120    -1.2850930     1.7898260
  C       -1.3508290    -0.0000210     0.4539040
  C        1.4090800     0.0000190    -0.3971410
  C       -1.9834610    -1.2238950     0.2202880
  C       -1.9834510     1.2238780     0.2203840
  C       -3.2836100    -1.2122960    -0.2842060
  C       -3.2836000     1.2123300    -0.2841110
  C       -3.9288570     0.0000300    -0.5427800
  H       -1.4734280    -2.1539290     0.4522940
  H       -1.4734140     2.1538900     0.4524690
  H       -3.7956980    -2.1526110    -0.4704350
  H       -3.7956790     2.1526630    -0.4702660
  H       -4.9427330     0.0000490    -0.9349330
units angstrom
no_reorient  #important for SAPT in psi4, default
symmetry c1  #important for SAPT in psi4, default
}

set PROPERTIES_ORIGIN ["COM"]
properties('MP2/aug-cc-pvtz', properties = ['dipole'])
--------------------------------------------------------------------------

    Molecular point group: c1
  Charge       = 0
  Multiplicity = 1
  Basis Set: AUG-CC-PVTZ
    Blend: AUG-CC-PVTZ
  Basis Set: (AUG-CC-PVTZ AUX)
    Blend: AUG-CC-PVTZ-JKFIT

    Orbital Energies [Eh]
    ---------------------

    Doubly Occupied:

       1A   -104.884028     2A   -104.883764     3A   -104.879307
       4A    -92.210699     5A    -20.568495     6A    -20.565589
       7A    -11.471341     8A    -11.292946     9A    -11.280670
      10A    -11.280546    11A    -11.276488    12A    -11.266662
      13A    -11.266548    14A    -10.608250    15A    -10.608054
      16A    -10.603405    17A     -9.179194    18A     -8.075037
      19A     -8.074842    20A     -8.072792    21A     -8.072748
      22A     -8.072605    23A     -8.072569    24A     -8.070210
      25A     -8.067896    26A     -8.067866    27A     -6.863865
      28A     -6.863173    29A     -6.862919    30A     -1.462218
      31A     -1.351205    32A     -1.263366    33A     -1.191608
      34A     -1.133662    35A     -1.131328    36A     -1.071371
      37A     -1.051627    38A     -0.959952    39A     -0.871189
      40A     -0.863928    41A     -0.802215    42A     -0.744721
      43A     -0.713573    44A     -0.685772    45A     -0.676042
      46A     -0.655304    47A     -0.650134    48A     -0.640737
      49A     -0.630472    50A     -0.624113    51A     -0.557406
      52A     -0.549377    53A     -0.541034    54A     -0.532288
      55A     -0.523089    56A     -0.519219    57A     -0.515735
      58A     -0.498226    59A     -0.493923    60A     -0.478560
      61A     -0.471839    62A     -0.463208    63A     -0.439282
      64A     -0.379943    65A     -0.368142

  @DF-RHF Final Energy: -2193.86738442538626

   => Energetics <=

    Nuclear Repulsion Energy =           1336.3561770129140314
    One-Electron Energy =               -5684.7104877308220239
    Two-Electron Energy =                2154.4869262925221847
    Total Energy =                      -2193.8673844253862626
  Basis Set: (AUG-CC-PVTZ AUX)
    Blend: AUG-CC-PVTZ-RI
    Molecular point group: c1

    Geometry (in Angstrom), charge = 0, multiplicity = 1:

       Center              X                  Y                   Z               Mass
    ------------   -----------------  -----------------  -----------------  -----------------
         CL           2.983316600149     0.001694035169     0.216677553272    34.968852682000
         CL           1.014300600149     1.451847035169    -1.344351446728    34.968852682000
         CL           1.014265600149    -1.448244964831    -1.344514446728    34.968852682000
         S            0.208580600149     0.001670035169     1.133290553272    31.972071174400
         O            0.378830200149     1.258804135169     1.862326753272    15.994914619570
         O            0.446747600149    -1.283366964831     1.791182553272    15.994914619570
         C           -1.425793399851     0.001705035169     0.455260553272    12.000000000000
         C            1.334115600149     0.001745035169    -0.395784446728    12.000000000000
         C           -2.058425399851    -1.222168964831     0.221644553272    12.000000000000
         C           -2.058415399851     1.225604035169     0.221740553272    12.000000000000
         C           -3.358574399851    -1.210569964831    -0.282849446728    12.000000000000
         C           -3.358564399851     1.214056035169    -0.282754446728    12.000000000000
         C           -4.003821399851     0.001756035169    -0.541423446728    12.000000000000
         H           -1.548392399851    -2.152202964831     0.453650553272     1.007825032230
         H           -1.548378399851     2.155616035169     0.453825553272     1.007825032230
         H           -3.870662399851    -2.150884964831    -0.469078446728     1.007825032230
         H           -3.870643399851     2.154389035169    -0.468909446728     1.007825032230
         H           -5.017697399851     0.001775035169    -0.933576446728     1.007825032230

  Basis Set: AUG-CC-PVTZ
    Blend: AUG-CC-PVTZ
  Basis Set: (AUG-CC-PVTZ AUX)
    Blend: AUG-CC-PVTZ-JKFIT
	 Reference Energy          =   -2193.8673844253862626 [Eh]
	 Singles Energy            =      -0.0000000000000000 [Eh]
	 Same-Spin Energy          =      -0.7056711440823322 [Eh]
	 Opposite-Spin Energy      =      -2.0129242340170532 [Eh]
	 Correlation Energy        =      -2.7185953780993852 [Eh]
	 Total Energy              =   -2196.5859798034857704 [Eh]

	 ================> DF-SCS-MP2 Energies <==================
	-----------------------------------------------------------
	 SCS Same-Spin Scale       =       0.3333333333333333 [-]
	 SCS Opposite-Spin Scale   =       1.2000000000000000 [-]
	 SCS Same-Spin Energy      =      -0.2352237146941107 [Eh]
	 SCS Opposite-Spin Energy  =      -2.4155090808204638 [Eh]
	 SCS Correlation Energy    =      -2.6507327955145747 [Eh]
	 SCS Total Energy          =   -2196.5181172209008764 [Eh]
	-----------------------------------------------------------

  Dipole Moment: [D]
     X:    -3.4660      Y:     0.0340      Z:    -3.2054     Total:     4.7211

*** Psi4 exiting successfully. Buy a developer a beer!
