                               Psi4 1.3.2 release

  ==> Input File <==

--------------------------------------------------------------------------
#psi4
#
memory 32 gb

molecule  {
0 1
 Cl        3.0582810    -0.0000320     0.2153210
 Cl        1.0892650     1.4501210    -1.3457080
 Cl        1.0892300    -1.4499710    -1.3458710
  S        0.2835450    -0.0000560     1.1319340
  O        0.4195036     1.2408548     1.8951644
  O        0.5217120    -1.2850930     1.7898260
  C       -1.3508290    -0.0000210     0.4539040
  C        1.4090800     0.0000190    -0.3971410
  C       -1.9834610    -1.2238950     0.2202880
  C       -1.9834510     1.2238780     0.2203840
  C       -3.2836100    -1.2122960    -0.2842060
  C       -3.2836000     1.2123300    -0.2841110
  C       -3.9288570     0.0000300    -0.5427800
  H       -1.4734280    -2.1539290     0.4522940
  H       -1.4734140     2.1538900     0.4524690
  H       -3.7956980    -2.1526110    -0.4704350
  H       -3.7956790     2.1526630    -0.4702660
  H       -4.9427330     0.0000490    -0.9349330
units angstrom
no_reorient  #important for SAPT in psi4, default
symmetry c1  #important for SAPT in psi4, default
}

set PROPERTIES_ORIGIN ["COM"]
properties('MP2/aug-cc-pvtz', properties = ['dipole'])
--------------------------------------------------------------------------

    Molecular point group: c1
  Charge       = 0
  Multiplicity = 1
  Basis Set: AUG-CC-PVTZ
    Blend: AUG-CC-PVTZ
  Basis Set: (AUG-CC-PVTZ AUX)
    Blend: AUG-CC-PVTZ-JKFIT

    Orbital Energies [Eh]
    ---------------------

    Doubly Occupied:

       1A   -104.885522     2A   -104.885144     3A   -104.880587
       4A    -92.210141     5A    -20.568216     6A    -20.563896
       7A    -11.473433     8A    -11.291983     9A    -11.279901
      10A    -11.279720    11A    -11.275738    12A    -11.266103
      13A    -11.265954    14A    -10.609705    15A    -10.609427
      16A    -10.604680    17A     -9.178734    18A     -8.076491
      19A     -8.076214    20A     -8.074237    21A     -8.074191
      22A     -8.073973    23A     -8.073938    24A     -8.071484
      25A     -8.069167    26A     -8.069137    27A     -6.863391
      28A     -6.862682    29A     -6.862458    30A     -1.461825
      31A     -1.349556    32A     -1.264900    33A     -1.190873
      34A     -1.135007    35A     -1.132610    36A     -1.070712
      37A     -1.050966    38A     -0.960778    39A     -0.871150
      40A     -0.863262    41A     -0.802086    42A     -0.744501
      43A     -0.713596    44A     -0.685400    45A     -0.675572
      46A     -0.655705    47A     -0.650145    48A     -0.641265
      49A     -0.629965    50A     -0.623496    51A     -0.556821
      52A     -0.550366    53A     -0.540535    54A     -0.531721
      55A     -0.523664    56A     -0.520345    57A     -0.514551
      58A     -0.497965    59A     -0.493284    60A     -0.479704
      61A     -0.472449    62A     -0.464393    63A     -0.440079
      64A     -0.379069    65A     -0.367543

  @DF-RHF Final Energy: -2193.86618931862495

   => Energetics <=

    Nuclear Repulsion Energy =           1335.8894669840567531
    One-Electron Energy =               -5683.7470991740501631
    Two-Electron Energy =                2153.9914428713686902
    Total Energy =                      -2193.8661893186249472
  Basis Set: (AUG-CC-PVTZ AUX)
    Blend: AUG-CC-PVTZ-RI
    Molecular point group: c1

    Geometry (in Angstrom), charge = 0, multiplicity = 1:

       Center              X                  Y                   Z               Mass
    ------------   -----------------  -----------------  -----------------  -----------------
         CL           2.985443259666     0.002700171921     0.214556897098    34.968852682000
         CL           1.016427259666     1.452853171921    -1.346472102902    34.968852682000
         CL           1.016392259666    -1.447238828079    -1.346635102902    34.968852682000
         S            0.210707259666     0.002676171921     1.131169897098    31.972071174400
         O            0.346665859666     1.243586971921     1.894400297098    15.994914619570
         O            0.448874259666    -1.282360828079     1.789061897098    15.994914619570
         C           -1.423666740334     0.002711171921     0.453139897098    12.000000000000
         C            1.336242259666     0.002751171921    -0.397905102902    12.000000000000
         C           -2.056298740334    -1.221162828079     0.219523897098    12.000000000000
         C           -2.056288740334     1.226610171921     0.219619897098    12.000000000000
         C           -3.356447740334    -1.209563828079    -0.284970102902    12.000000000000
         C           -3.356437740334     1.215062171921    -0.284875102902    12.000000000000
         C           -4.001694740334     0.002762171921    -0.543544102902    12.000000000000
         H           -1.546265740334    -2.151196828079     0.451529897098     1.007825032230
         H           -1.546251740334     2.156622171921     0.451704897098     1.007825032230
         H           -3.868535740334    -2.149878828079    -0.471199102902     1.007825032230
         H           -3.868516740334     2.155395171921    -0.471030102902     1.007825032230
         H           -5.015570740334     0.002781171921    -0.935697102902     1.007825032230

  Basis Set: AUG-CC-PVTZ
    Blend: AUG-CC-PVTZ
  Basis Set: (AUG-CC-PVTZ AUX)
    Blend: AUG-CC-PVTZ-JKFIT
	 Reference Energy          =   -2193.8661893186249472 [Eh]
	 Singles Energy            =      -0.0000000000000000 [Eh]
	 Same-Spin Energy          =      -0.7056560932000503 [Eh]
	 Opposite-Spin Energy      =      -2.0129841153367645 [Eh]
	 Correlation Energy        =      -2.7186402085368147 [Eh]
	 Total Energy              =   -2196.5848295271616735 [Eh]

	 ================> DF-SCS-MP2 Energies <==================
	-----------------------------------------------------------
	 SCS Same-Spin Scale       =       0.3333333333333333 [-]
	 SCS Opposite-Spin Scale   =       1.2000000000000000 [-]
	 SCS Same-Spin Energy      =      -0.2352186977333501 [Eh]
	 SCS Opposite-Spin Energy  =      -2.4155809384041174 [Eh]
	 SCS Correlation Energy    =      -2.6507996361374673 [Eh]
	 SCS Total Energy          =   -2196.5169889547623825 [Eh]
	-----------------------------------------------------------

  Dipole Moment: [D]
     X:    -3.3469      Y:     0.0555      Z:    -3.2974     Total:     4.6987

*** Psi4 exiting successfully. Buy a developer a beer!
