                               Psi4 1.3.2 release

  ==> Input File <==

--------------------------------------------------------------------------
#psi4
#
memory 32 gb

molecule  {
0 1
 Cl        3.0582810    -0.0000320     0.2153210
 Cl        1.0892650     1.4501210    -1.3457080
 Cl        1.0892300    -1.4499710    -1.3458710
  S        0.2835450    -0.0000560     1.1319340
  O        0.4745700     1.2994178     1.7767149
  O        0.5217120    -1.2850930     1.7898260
  C       -1.3508290    -0.0000210     0.4539040
  C        1.4090800     0.0000190    -0.3971410
  C       -1.9834610    -1.2238950     0.2202880
  C       -1.9834510     1.2238780     0.2203840
  C       -3.2836100    -1.2122960    -0.2842060
  C       -3.2836000     1.2123300    -0.2841110
  C       -3.9288570     0.0000300    -0.5427800
  H       -1.4734280    -2.1539290     0.4522940
  H       -1.4734140     2.1538900     0.4524690
  H       -3.7956980    -2.1526110    -0.4704350
  H       -3.7956790     2.1526630    -0.4702660
  H       -4.9427330     0.0000490    -0.9349330
units angstrom
no_reorient  #important for SAPT in psi4, default
symmetry c1  #important for SAPT in psi4, default
}

set PROPERTIES_ORIGIN ["COM"]
properties('MP2/aug-cc-pvtz', properties = ['dipole'])
--------------------------------------------------------------------------

    Molecular point group: c1
  Charge       = 0
  Multiplicity = 1
  Basis Set: AUG-CC-PVTZ
    Blend: AUG-CC-PVTZ
  Basis Set: (AUG-CC-PVTZ AUX)
    Blend: AUG-CC-PVTZ-JKFIT

    Orbital Energies [Eh]
    ---------------------

    Doubly Occupied:

       1A   -104.881643     2A   -104.881339     3A   -104.877636
       4A    -92.212102     5A    -20.570849     6A    -20.569323
       7A    -11.468122     8A    -11.292865     9A    -11.280718
      10A    -11.280522    11A    -11.276692    12A    -11.266605
      13A    -11.266520    14A    -10.605931    15A    -10.605630
      16A    -10.601759    17A     -9.180403    18A     -8.072719
      19A     -8.072418    20A     -8.070487    21A     -8.070447
      22A     -8.070186    23A     -8.070147    24A     -8.068564
      25A     -8.066259    26A     -8.066228    27A     -6.865099
      28A     -6.864463    29A     -6.864100    30A     -1.463686
      31A     -1.356290    32A     -1.260917    33A     -1.191581
      34A     -1.131393    35A     -1.129527    36A     -1.071045
      37A     -1.051627    38A     -0.958169    39A     -0.870773
      40A     -0.863928    41A     -0.802139    42A     -0.745134
      43A     -0.713749    44A     -0.685994    45A     -0.676890
      46A     -0.654675    47A     -0.649785    48A     -0.639494
      49A     -0.631891    50A     -0.624282    51A     -0.557528
      52A     -0.548107    53A     -0.540829    54A     -0.532491
      55A     -0.523440    56A     -0.518704    57A     -0.517127
      58A     -0.498121    59A     -0.496306    60A     -0.476913
      61A     -0.470937    62A     -0.461386    63A     -0.437781
      64A     -0.380181    65A     -0.368117

  @DF-RHF Final Energy: -2193.86739122602512

   => Energetics <=

    Nuclear Repulsion Energy =           1337.5501679574383616
    One-Electron Energy =               -5687.1537012289218183
    Two-Electron Energy =                2155.7361420454585641
    Total Energy =                      -2193.8673912260251200
  Basis Set: (AUG-CC-PVTZ AUX)
    Blend: AUG-CC-PVTZ-RI
    Molecular point group: c1

    Geometry (in Angstrom), charge = 0, multiplicity = 1:

       Center              X                  Y                   Z               Mass
    ------------   -----------------  -----------------  -----------------  -----------------
         CL           2.982028151222    -0.000931788690     0.221902899153    34.968852682000
         CL           1.013012151222     1.449221211310    -1.339126100847    34.968852682000
         CL           1.012977151222    -1.450870788690    -1.339289100847    34.968852682000
         S            0.207292151222    -0.000955788690     1.138515899153    31.972071174400
         O            0.398317151222     1.298518011310     1.783296799153    15.994914619570
         O            0.445459151222    -1.285992788690     1.796407899153    15.994914619570
         C           -1.427081848778    -0.000920788690     0.460485899153    12.000000000000
         C            1.332827151222    -0.000880788690    -0.390559100847    12.000000000000
         C           -2.059713848778    -1.224794788690     0.226869899153    12.000000000000
         C           -2.059703848778     1.222978211310     0.226965899153    12.000000000000
         C           -3.359862848778    -1.213195788690    -0.277624100847    12.000000000000
         C           -3.359852848778     1.211430211310    -0.277529100847    12.000000000000
         C           -4.005109848778    -0.000869788690    -0.536198100847    12.000000000000
         H           -1.549680848778    -2.154828788690     0.458875899153     1.007825032230
         H           -1.549666848778     2.152990211310     0.459050899153     1.007825032230
         H           -3.871950848778    -2.153510788690    -0.463853100847     1.007825032230
         H           -3.871931848778     2.151763211310    -0.463684100847     1.007825032230
         H           -5.018985848778    -0.000850788690    -0.928351100847     1.007825032230

  Basis Set: AUG-CC-PVTZ
    Blend: AUG-CC-PVTZ
  Basis Set: (AUG-CC-PVTZ AUX)
    Blend: AUG-CC-PVTZ-JKFIT
	 Reference Energy          =   -2193.8673912260251200 [Eh]
	 Singles Energy            =      -0.0000000000000000 [Eh]
	 Same-Spin Energy          =      -0.7059271438389316 [Eh]
	 Opposite-Spin Energy      =      -2.0132533090733240 [Eh]
	 Correlation Energy        =      -2.7191804529122559 [Eh]
	 Total Energy              =   -2196.5865716789371618 [Eh]

	 ================> DF-SCS-MP2 Energies <==================
	-----------------------------------------------------------
	 SCS Same-Spin Scale       =       0.3333333333333333 [-]
	 SCS Opposite-Spin Scale   =       1.2000000000000000 [-]
	 SCS Same-Spin Energy      =      -0.2353090479463105 [Eh]
	 SCS Opposite-Spin Energy  =      -2.4159039708879888 [Eh]
	 SCS Correlation Energy    =      -2.6512130188342993 [Eh]
	 SCS Total Energy          =   -2196.5186042448594890 [Eh]
	-----------------------------------------------------------

  Dipole Moment: [D]
     X:    -3.5513      Y:    -0.0274      Z:    -2.9822     Total:     4.6375

*** Psi4 exiting successfully. Buy a developer a beer!
