                               Psi4 1.3.2 release

  ==> Input File <==

--------------------------------------------------------------------------
#psi4
#
memory 32 gb

molecule  {
0 1
 Cl        3.0582810    -0.0000320     0.2153210
 Cl        1.0892650     1.4501210    -1.3457080
 Cl        1.0892300    -1.4499710    -1.3458710
  S        0.2835450    -0.0000560     1.1319340
  O        0.6213130     1.3148908     1.6775462
  O        0.5217120    -1.2850930     1.7898260
  C       -1.3508290    -0.0000210     0.4539040
  C        1.4090800     0.0000190    -0.3971410
  C       -1.9834610    -1.2238950     0.2202880
  C       -1.9834510     1.2238780     0.2203840
  C       -3.2836100    -1.2122960    -0.2842060
  C       -3.2836000     1.2123300    -0.2841110
  C       -3.9288570     0.0000300    -0.5427800
  H       -1.4734280    -2.1539290     0.4522940
  H       -1.4734140     2.1538900     0.4524690
  H       -3.7956980    -2.1526110    -0.4704350
  H       -3.7956790     2.1526630    -0.4702660
  H       -4.9427330     0.0000490    -0.9349330
units angstrom
no_reorient  #important for SAPT in psi4, default
symmetry c1  #important for SAPT in psi4, default
}

set PROPERTIES_ORIGIN ["COM"]
properties('MP2/aug-cc-pvtz', properties = ['dipole'])
--------------------------------------------------------------------------

    Molecular point group: c1
  Charge       = 0
  Multiplicity = 1
  Basis Set: AUG-CC-PVTZ
    Blend: AUG-CC-PVTZ
  Basis Set: (AUG-CC-PVTZ AUX)
    Blend: AUG-CC-PVTZ-JKFIT

    Orbital Energies [Eh]
    ---------------------

    Doubly Occupied:

       1A   -104.876223     2A   -104.875706     3A   -104.872334
       4A    -92.213290     5A    -20.573889     6A    -20.569299
       7A    -11.460101     8A    -11.298103     9A    -11.284605
      10A    -11.284509    11A    -11.280070    12A    -11.269570
      13A    -11.269446    14A    -10.600559    15A    -10.600147
      16A    -10.596470    17A     -9.181469    18A     -8.067347
      19A     -8.066935    20A     -8.065138    21A     -8.065092
      22A     -8.064739    23A     -8.064706    24A     -8.063276
      25A     -8.060984    26A     -8.060952    27A     -6.866230
      28A     -6.865544    29A     -6.865141    30A     -1.464860
      31A     -1.359024    32A     -1.254777    33A     -1.195277
      34A     -1.126276    35A     -1.124407    36A     -1.074658
      37A     -1.054923    38A     -0.955857    39A     -0.870840
      40A     -0.867260    41A     -0.803240    42A     -0.745757
      43A     -0.713137    44A     -0.687943    45A     -0.678664
      46A     -0.653656    47A     -0.651667    48A     -0.635930
      49A     -0.631679    50A     -0.627030    51A     -0.560689
      52A     -0.545371    53A     -0.542648    54A     -0.535215
      55A     -0.523785    56A     -0.518432    57A     -0.513923
      58A     -0.498599    59A     -0.495540    60A     -0.472029
      61A     -0.466401    62A     -0.456433    63A     -0.433546
      64A     -0.383825    65A     -0.371107

  @DF-RHF Final Energy: -2193.86496511814084

   => Energetics <=

    Nuclear Repulsion Energy =           1339.2898295915026665
    One-Electron Energy =               -5690.7570268477666104
    Two-Electron Energy =                2157.6022321381228721
    Total Energy =                      -2193.8649651181408444
  Basis Set: (AUG-CC-PVTZ AUX)
    Blend: AUG-CC-PVTZ-RI
    Molecular point group: c1

    Geometry (in Angstrom), charge = 0, multiplicity = 1:

       Center              X                  Y                   Z               Mass
    ------------   -----------------  -----------------  -----------------  -----------------
         CL           2.972927442654    -0.001891393330     0.228053144396    34.968852682000
         CL           1.003911442654     1.448261606670    -1.332975855604    34.968852682000
         CL           1.003876442654    -1.451830393330    -1.333138855604    34.968852682000
         S            0.198191442654    -0.001915393330     1.144666144396    31.972071174400
         O            0.535959442654     1.313031406670     1.690278344396    15.994914619570
         O            0.436358442654    -1.286952393330     1.802558144396    15.994914619570
         C           -1.436182557346    -0.001880393330     0.466636144396    12.000000000000
         C            1.323726442654    -0.001840393330    -0.384408855604    12.000000000000
         C           -2.068814557346    -1.225754393330     0.233020144396    12.000000000000
         C           -2.068804557346     1.222018606670     0.233116144396    12.000000000000
         C           -3.368963557346    -1.214155393330    -0.271473855604    12.000000000000
         C           -3.368953557346     1.210470606670    -0.271378855604    12.000000000000
         C           -4.014210557346    -0.001829393330    -0.530047855604    12.000000000000
         H           -1.558781557346    -2.155788393330     0.465026144396     1.007825032230
         H           -1.558767557346     2.152030606670     0.465201144396     1.007825032230
         H           -3.881051557346    -2.154470393330    -0.457702855604     1.007825032230
         H           -3.881032557346     2.150803606670    -0.457533855604     1.007825032230
         H           -5.028086557346    -0.001810393330    -0.922200855604     1.007825032230

  Basis Set: AUG-CC-PVTZ
    Blend: AUG-CC-PVTZ
  Basis Set: (AUG-CC-PVTZ AUX)
    Blend: AUG-CC-PVTZ-JKFIT
	 Reference Energy          =   -2193.8649651181408444 [Eh]
	 Singles Energy            =      -0.0000000000000000 [Eh]
	 Same-Spin Energy          =      -0.7062642502763882 [Eh]
	 Opposite-Spin Energy      =      -2.0135996075082367 [Eh]
	 Correlation Energy        =      -2.7198638577846248 [Eh]
	 Total Energy              =   -2196.5848289759255749 [Eh]

	 ================> DF-SCS-MP2 Energies <==================
	-----------------------------------------------------------
	 SCS Same-Spin Scale       =       0.3333333333333333 [-]
	 SCS Opposite-Spin Scale   =       1.2000000000000000 [-]
	 SCS Same-Spin Energy      =      -0.2354214167587960 [Eh]
	 SCS Opposite-Spin Energy  =      -2.4163195290098840 [Eh]
	 SCS Correlation Energy    =      -2.6517409457686800 [Eh]
	 SCS Total Energy          =   -2196.5167060639096235 [Eh]
	-----------------------------------------------------------

  Dipole Moment: [D]
     X:    -4.0672      Y:    -0.0254      Z:    -2.6856     Total:     4.8739

*** Psi4 exiting successfully. Buy a developer a beer!
