                               Psi4 1.3.2 release

  ==> Input File <==

--------------------------------------------------------------------------
#psi4
#
memory 32 gb

molecule  {
0 1
 Cl        3.0582810    -0.0000320     0.2153210
 Cl        1.0892650     1.4501210    -1.3457080
 Cl        1.0892300    -1.4499710    -1.3458710
  S        0.2835450    -0.0000560     1.1319340
  O        0.5217130     1.2849120     1.7899600
  O        0.5217120    -1.2850930     1.7898260
  C       -1.5355629    -0.0000170     0.3772660
  C        1.4090800     0.0000190    -0.3971410
  C       -1.9834610    -1.2238950     0.2202880
  C       -1.9834510     1.2238780     0.2203840
  C       -3.2836100    -1.2122960    -0.2842060
  C       -3.2836000     1.2123300    -0.2841110
  C       -3.9288570     0.0000300    -0.5427800
  H       -1.4734280    -2.1539290     0.4522940
  H       -1.4734140     2.1538900     0.4524690
  H       -3.7956980    -2.1526110    -0.4704350
  H       -3.7956790     2.1526630    -0.4702660
  H       -4.9427330     0.0000490    -0.9349330
units angstrom
no_reorient  #important for SAPT in psi4, default
symmetry c1  #important for SAPT in psi4, default
}

set PROPERTIES_ORIGIN ["COM"]
properties('MP2/aug-cc-pvtz', properties = ['dipole'])
--------------------------------------------------------------------------

    Molecular point group: c1
  Charge       = 0
  Multiplicity = 1
  Basis Set: AUG-CC-PVTZ
    Blend: AUG-CC-PVTZ
  Basis Set: (AUG-CC-PVTZ AUX)
    Blend: AUG-CC-PVTZ-JKFIT

    Orbital Energies [Eh]
    ---------------------

    Doubly Occupied:

       1A   -104.879806     2A   -104.879805     3A   -104.874565
       4A    -92.198678     5A    -20.566062     6A    -20.566042
       7A    -11.464217     8A    -11.302799     9A    -11.272379
      10A    -11.272090    11A    -11.270553    12A    -11.270396
      13A    -11.269890    14A    -10.604136    15A    -10.604127
      16A    -10.598704    17A     -9.167788    18A     -8.070922
      19A     -8.070922    20A     -8.068705    21A     -8.068703
      22A     -8.068667    23A     -8.068667    24A     -8.065509
      25A     -8.063210    26A     -8.063182    27A     -6.852164
      28A     -6.851261    29A     -6.851157    30A     -1.455207
      31A     -1.349834    32A     -1.258183    33A     -1.218248
      34A     -1.129732    35A     -1.126849    36A     -1.071121
      37A     -1.064437    38A     -0.946164    39A     -0.878627
      40A     -0.857230    41A     -0.803634    42A     -0.749616
      43A     -0.705302    44A     -0.684919    45A     -0.674194
      46A     -0.659965    47A     -0.652877    48A     -0.639912
      49A     -0.634037    50A     -0.626816    51A     -0.564517
      52A     -0.558568    53A     -0.548283    54A     -0.543964
      55A     -0.520846    56A     -0.514643    57A     -0.513240
      58A     -0.492501    59A     -0.477931    60A     -0.473647
      61A     -0.468488    62A     -0.459399    63A     -0.416503
      64A     -0.387620    65A     -0.375483

  @DF-RHF Final Energy: -2193.83378222991178

   => Energetics <=

    Nuclear Repulsion Energy =           1335.2270314505456099
    One-Electron Energy =               -5682.6663417114214099
    Two-Electron Energy =                2153.6055280309637965
    Total Energy =                      -2193.8337822299117761
  Basis Set: (AUG-CC-PVTZ AUX)
    Blend: AUG-CC-PVTZ-RI
    Molecular point group: c1

    Geometry (in Angstrom), charge = 0, multiplicity = 1:

       Center              X                  Y                   Z               Mass
    ------------   -----------------  -----------------  -----------------  -----------------
         CL           2.987699789565    -0.000032353980     0.224647299866    34.968852682000
         CL           1.018683789565     1.450120646020    -1.336381700134    34.968852682000
         CL           1.018648789565    -1.449971353980    -1.336544700134    34.968852682000
         S            0.212963789565    -0.000056353980     1.141260299866    31.972071174400
         O            0.451131789565     1.284911646020     1.799286299866    15.994914619570
         O            0.451130789565    -1.285093353980     1.799152299866    15.994914619570
         C           -1.606144110435    -0.000017353980     0.386592299866    12.000000000000
         C            1.338498789565     0.000018646020    -0.387814700134    12.000000000000
         C           -2.054042210435    -1.223895353980     0.229614299866    12.000000000000
         C           -2.054032210435     1.223877646020     0.229710299866    12.000000000000
         C           -3.354191210435    -1.212296353980    -0.274879700134    12.000000000000
         C           -3.354181210435     1.212329646020    -0.274784700134    12.000000000000
         C           -3.999438210435     0.000029646020    -0.533453700134    12.000000000000
         H           -1.544009210435    -2.153929353980     0.461620299866     1.007825032230
         H           -1.543995210435     2.153889646020     0.461795299866     1.007825032230
         H           -3.866279210435    -2.152611353980    -0.461108700134     1.007825032230
         H           -3.866260210435     2.152662646020    -0.460939700134     1.007825032230
         H           -5.013314210435     0.000048646020    -0.925606700134     1.007825032230

  Basis Set: AUG-CC-PVTZ
    Blend: AUG-CC-PVTZ
  Basis Set: (AUG-CC-PVTZ AUX)
    Blend: AUG-CC-PVTZ-JKFIT
	 Reference Energy          =   -2193.8337822299117761 [Eh]
	 Singles Energy            =      -0.0000000000000000 [Eh]
	 Same-Spin Energy          =      -0.7070970718866429 [Eh]
	 Opposite-Spin Energy      =      -2.0146562230539220 [Eh]
	 Correlation Energy        =      -2.7217532949405649 [Eh]
	 Total Energy              =   -2196.5555355248525302 [Eh]

	 ================> DF-SCS-MP2 Energies <==================
	-----------------------------------------------------------
	 SCS Same-Spin Scale       =       0.3333333333333333 [-]
	 SCS Opposite-Spin Scale   =       1.2000000000000000 [-]
	 SCS Same-Spin Energy      =      -0.2356990239622143 [Eh]
	 SCS Opposite-Spin Energy  =      -2.4175874676647062 [Eh]
	 SCS Correlation Energy    =      -2.6532864916269205 [Eh]
	 SCS Total Energy          =   -2196.4870687215388898 [Eh]
	-----------------------------------------------------------

  Dipole Moment: [D]
     X:    -3.6495      Y:     0.0002      Z:    -2.9232     Total:     4.6759

*** Psi4 exiting successfully. Buy a developer a beer!
