                               Psi4 1.3.2 release

  ==> Input File <==

--------------------------------------------------------------------------
#psi4
#
memory 32 gb

molecule  {
0 1
 Cl        3.0359017    -0.0000350     0.2725042
 Cl        1.0892650     1.4501210    -1.3457080
 Cl        1.0892300    -1.4499710    -1.3458710
  S        0.2835450    -0.0000560     1.1319340
  O        0.5217130     1.2849120     1.7899600
  O        0.5217120    -1.2850930     1.7898260
  C       -1.3508290    -0.0000210     0.4539040
  C        1.4090800     0.0000190    -0.3971410
  C       -1.9834610    -1.2238950     0.2202880
  C       -1.9834510     1.2238780     0.2203840
  C       -3.2836100    -1.2122960    -0.2842060
  C       -3.2836000     1.2123300    -0.2841110
  C       -3.9288570     0.0000300    -0.5427800
  H       -1.4734280    -2.1539290     0.4522940
  H       -1.4734140     2.1538900     0.4524690
  H       -3.7956980    -2.1526110    -0.4704350
  H       -3.7956790     2.1526630    -0.4702660
  H       -4.9427330     0.0000490    -0.9349330
units angstrom
no_reorient  #important for SAPT in psi4, default
symmetry c1  #important for SAPT in psi4, default
}

set PROPERTIES_ORIGIN ["COM"]
properties('MP2/aug-cc-pvtz', properties = ['dipole'])
--------------------------------------------------------------------------

    Molecular point group: c1
  Charge       = 0
  Multiplicity = 1
  Basis Set: AUG-CC-PVTZ
    Blend: AUG-CC-PVTZ
  Basis Set: (AUG-CC-PVTZ AUX)
    Blend: AUG-CC-PVTZ-JKFIT

    Orbital Energies [Eh]
    ---------------------

    Doubly Occupied:

       1A   -104.881686     2A   -104.881686     3A   -104.876692
       4A    -92.210809     5A    -20.568516     6A    -20.568497
       7A    -11.467201     8A    -11.294396     9A    -11.281771
      10A    -11.281699    11A    -11.277528    12A    -11.267509
      13A    -11.267427    14A    -10.605927    15A    -10.605918
      16A    -10.600818    17A     -9.179237    18A     -8.072712
      19A     -8.072712    20A     -8.070485    21A     -8.070484
      22A     -8.070445    23A     -8.070445    24A     -8.067623
      25A     -8.065316    26A     -8.065284    27A     -6.863936
      28A     -6.863249    29A     -6.862948    30A     -1.462829
      31A     -1.354023    32A     -1.259791    33A     -1.192681
      34A     -1.131184    35A     -1.129934    36A     -1.072275
      37A     -1.052589    38A     -0.957716    39A     -0.870749
      40A     -0.864896    41A     -0.802267    42A     -0.744993
      43A     -0.713237    44A     -0.686150    45A     -0.676722
      46A     -0.654532    47A     -0.650441    48A     -0.639670
      49A     -0.630967    50A     -0.624990    51A     -0.558472
      52A     -0.546504    53A     -0.541793    54A     -0.533088
      55A     -0.521553    56A     -0.517891    57A     -0.517711
      58A     -0.497995    59A     -0.494896    60A     -0.477187
      61A     -0.470596    62A     -0.461486    63A     -0.436349
      64A     -0.381087    65A     -0.369038

  @DF-RHF Final Energy: -2193.86770908928065

   => Energetics <=

    Nuclear Repulsion Energy =           1338.3467030640963458
    One-Electron Energy =               -5688.7663502883306137
    Two-Electron Energy =                2156.5519381349540708
    Total Energy =                      -2193.8677090892806518
  Basis Set: (AUG-CC-PVTZ AUX)
    Blend: AUG-CC-PVTZ-RI
    Molecular point group: c1

    Geometry (in Angstrom), charge = 0, multiplicity = 1:

       Center              X                  Y                   Z               Mass
    ------------   -----------------  -----------------  -----------------  -----------------
         CL           2.959759472959    -0.000034761107     0.270511379831    34.968852682000
         CL           1.013122772959     1.450121238893    -1.347700820169    34.968852682000
         CL           1.013087772959    -1.449970761107    -1.347863820169    34.968852682000
         S            0.207402772959    -0.000055761107     1.129941179831    31.972071174400
         O            0.445570772959     1.284912238893     1.787967179831    15.994914619570
         O            0.445569772959    -1.285092761107     1.787833179831    15.994914619570
         C           -1.426971227041    -0.000020761107     0.451911179831    12.000000000000
         C            1.332937772959     0.000019238893    -0.399133820169    12.000000000000
         C           -2.059603227041    -1.223894761107     0.218295179831    12.000000000000
         C           -2.059593227041     1.223878238893     0.218391179831    12.000000000000
         C           -3.359752227041    -1.212295761107    -0.286198820169    12.000000000000
         C           -3.359742227041     1.212330238893    -0.286103820169    12.000000000000
         C           -4.004999227041     0.000030238893    -0.544772820169    12.000000000000
         H           -1.549570227041    -2.153928761107     0.450301179831     1.007825032230
         H           -1.549556227041     2.153890238893     0.450476179831     1.007825032230
         H           -3.871840227041    -2.152610761107    -0.472427820169     1.007825032230
         H           -3.871821227041     2.152663238893    -0.472258820169     1.007825032230
         H           -5.018875227041     0.000049238893    -0.936925820169     1.007825032230

  Basis Set: AUG-CC-PVTZ
    Blend: AUG-CC-PVTZ
  Basis Set: (AUG-CC-PVTZ AUX)
    Blend: AUG-CC-PVTZ-JKFIT
	 Reference Energy          =   -2193.8677090892806518 [Eh]
	 Singles Energy            =      -0.0000000000000000 [Eh]
	 Same-Spin Energy          =      -0.7059827532722381 [Eh]
	 Opposite-Spin Energy      =      -2.0132277896697324 [Eh]
	 Correlation Energy        =      -2.7192105429419704 [Eh]
	 Total Energy              =   -2196.5869196322228163 [Eh]

	 ================> DF-SCS-MP2 Energies <==================
	-----------------------------------------------------------
	 SCS Same-Spin Scale       =       0.3333333333333333 [-]
	 SCS Opposite-Spin Scale   =       1.2000000000000000 [-]
	 SCS Same-Spin Energy      =      -0.2353275844240794 [Eh]
	 SCS Opposite-Spin Energy  =      -2.4158733476036787 [Eh]
	 SCS Correlation Energy    =      -2.6512009320277579 [Eh]
	 SCS Total Energy          =   -2196.5189100213083293 [Eh]
	-----------------------------------------------------------

  Dipole Moment: [D]
     X:    -3.6612      Y:     0.0002      Z:    -3.0187     Total:     4.7451

*** Psi4 exiting successfully. Buy a developer a beer!
