                               Psi4 1.3.2 release

  ==> Input File <==

--------------------------------------------------------------------------
#psi4
#
memory 32 gb

molecule  {
0 1
 Cl        2.9852268    -0.0000408     0.3843543
 Cl        1.0892650     1.4501210    -1.3457080
 Cl        1.0892300    -1.4499710    -1.3458710
  S        0.2835450    -0.0000560     1.1319340
  O        0.5217130     1.2849120     1.7899600
  O        0.5217120    -1.2850930     1.7898260
  C       -1.3508290    -0.0000210     0.4539040
  C        1.4090800     0.0000190    -0.3971410
  C       -1.9834610    -1.2238950     0.2202880
  C       -1.9834510     1.2238780     0.2203840
  C       -3.2836100    -1.2122960    -0.2842060
  C       -3.2836000     1.2123300    -0.2841110
  C       -3.9288570     0.0000300    -0.5427800
  H       -1.4734280    -2.1539290     0.4522940
  H       -1.4734140     2.1538900     0.4524690
  H       -3.7956980    -2.1526110    -0.4704350
  H       -3.7956790     2.1526630    -0.4702660
  H       -4.9427330     0.0000490    -0.9349330
units angstrom
no_reorient  #important for SAPT in psi4, default
symmetry c1  #important for SAPT in psi4, default
}

set PROPERTIES_ORIGIN ["COM"]
properties('MP2/aug-cc-pvtz', properties = ['dipole'])
--------------------------------------------------------------------------

    Molecular point group: c1
  Charge       = 0
  Multiplicity = 1
  Basis Set: AUG-CC-PVTZ
    Blend: AUG-CC-PVTZ
  Basis Set: (AUG-CC-PVTZ AUX)
    Blend: AUG-CC-PVTZ-JKFIT

    Orbital Energies [Eh]
    ---------------------

    Doubly Occupied:

       1A   -104.883270     2A   -104.883269     3A   -104.876665
       4A    -92.208908     5A    -20.567579     6A    -20.567559
       7A    -11.467543     8A    -11.293269     9A    -11.280803
      10A    -11.280731    11A    -11.276637    12A    -11.266885
      13A    -11.266802    14A    -10.607376    15A    -10.607367
      16A    -10.600869    17A     -9.177528    18A     -8.074165
      19A     -8.074164    20A     -8.071935    21A     -8.071934
      22A     -8.071895    23A     -8.071894    24A     -8.067667
      25A     -8.065358    26A     -8.065317    27A     -6.862228
      28A     -6.861495    29A     -6.861227    30A     -1.462287
      31A     -1.353267    32A     -1.259309    33A     -1.191855
      34A     -1.132520    35A     -1.131876    36A     -1.071400
      37A     -1.051831    38A     -0.956498    39A     -0.869858
      40A     -0.864120    41A     -0.801695    42A     -0.744800
      43A     -0.712915    44A     -0.685227    45A     -0.676056
      46A     -0.654516    47A     -0.650293    48A     -0.640564
      49A     -0.630442    50A     -0.624288    51A     -0.558145
      52A     -0.544858    53A     -0.541343    54A     -0.532342
      55A     -0.520079    56A     -0.518973    57A     -0.518607
      58A     -0.497399    59A     -0.494383    60A     -0.478350
      61A     -0.471357    62A     -0.462896    63A     -0.434288
      64A     -0.379980    65A     -0.368406

  @DF-RHF Final Energy: -2193.86513063465827

   => Energetics <=

    Nuclear Repulsion Energy =           1340.5439884219911164
    One-Electron Energy =               -5693.1795214595103971
    Two-Electron Energy =                2158.7704024028607819
    Total Energy =                      -2193.8651306346582714
  Basis Set: (AUG-CC-PVTZ AUX)
    Blend: AUG-CC-PVTZ-RI
    Molecular point group: c1

    Geometry (in Angstrom), charge = 0, multiplicity = 1:

       Center              X                  Y                   Z               Mass
    ------------   -----------------  -----------------  -----------------  -----------------
         CL           2.915955418275    -0.000039774704     0.367196087583    34.968852682000
         CL           1.019993618275     1.450122025296    -1.362866212417    34.968852682000
         CL           1.019958618275    -1.449969974704    -1.363029212417    34.968852682000
         S            0.214273618275    -0.000054974704     1.114775787583    31.972071174400
         O            0.452441618275     1.284913025296     1.772801787583    15.994914619570
         O            0.452440618275    -1.285091974704     1.772667787583    15.994914619570
         C           -1.420100381725    -0.000019974704     0.436745787583    12.000000000000
         C            1.339808618275     0.000020025296    -0.414299212417    12.000000000000
         C           -2.052732381725    -1.223893974704     0.203129787583    12.000000000000
         C           -2.052722381725     1.223879025296     0.203225787583    12.000000000000
         C           -3.352881381725    -1.212294974704    -0.301364212417    12.000000000000
         C           -3.352871381725     1.212331025296    -0.301269212417    12.000000000000
         C           -3.998128381725     0.000031025296    -0.559938212417    12.000000000000
         H           -1.542699381725    -2.153927974704     0.435135787583     1.007825032230
         H           -1.542685381725     2.153891025296     0.435310787583     1.007825032230
         H           -3.864969381725    -2.152609974704    -0.487593212417     1.007825032230
         H           -3.864950381725     2.152664025296    -0.487424212417     1.007825032230
         H           -5.012004381725     0.000050025296    -0.952091212417     1.007825032230

  Basis Set: AUG-CC-PVTZ
    Blend: AUG-CC-PVTZ
  Basis Set: (AUG-CC-PVTZ AUX)
    Blend: AUG-CC-PVTZ-JKFIT
	 Reference Energy          =   -2193.8651306346582714 [Eh]
	 Singles Energy            =      -0.0000000000000000 [Eh]
	 Same-Spin Energy          =      -0.7064735033440940 [Eh]
	 Opposite-Spin Energy      =      -2.0138915893250693 [Eh]
	 Correlation Energy        =      -2.7203650926691632 [Eh]
	 Total Energy              =   -2196.5854957273272703 [Eh]

	 ================> DF-SCS-MP2 Energies <==================
	-----------------------------------------------------------
	 SCS Same-Spin Scale       =       0.3333333333333333 [-]
	 SCS Opposite-Spin Scale   =       1.2000000000000000 [-]
	 SCS Same-Spin Energy      =      -0.2354911677813646 [Eh]
	 SCS Opposite-Spin Energy  =      -2.4166699071900832 [Eh]
	 SCS Correlation Energy    =      -2.6521610749714477 [Eh]
	 SCS Total Energy          =   -2196.5172917096297169 [Eh]
	-----------------------------------------------------------

  Dipole Moment: [D]
     X:    -3.5677      Y:     0.0002      Z:    -3.0347     Total:     4.6838

*** Psi4 exiting successfully. Buy a developer a beer!
