                               Psi4 1.4a3.dev225

  ==> Input File <==

--------------------------------------------------------------------------
#psi4
#
memory 32 gb

molecule  {
0 1
 Cl        3.0582810    -0.0000320     0.2153210
 Cl        1.0892650     1.4501210    -1.3457080
 Cl        1.0892300    -1.4499710    -1.3458710
  S        0.2835450    -0.0000560     1.1319340
  O        0.5217130     1.2849120     1.7899600
  O        0.5217120    -1.2850930     1.7898260
  C       -1.3970125    -0.0000200     0.4347445
  C        1.4090800     0.0000190    -0.3971410
  C       -1.9834610    -1.2238950     0.2202880
  C       -1.9834510     1.2238780     0.2203840
  C       -3.2836100    -1.2122960    -0.2842060
  C       -3.2836000     1.2123300    -0.2841110
  C       -3.9288570     0.0000300    -0.5427800
  H       -1.4734280    -2.1539290     0.4522940
  H       -1.4734140     2.1538900     0.4524690
  H       -3.7956980    -2.1526110    -0.4704350
  H       -3.7956790     2.1526630    -0.4702660
  H       -4.9427330     0.0000490    -0.9349330
units angstrom
no_reorient  #important for SAPT in psi4, default
symmetry c1  #important for SAPT in psi4, default
}

set PROPERTIES_ORIGIN ["COM"]
properties('MP2/aug-cc-pvtz', properties = ['dipole'])
--------------------------------------------------------------------------

    Molecular point group: c1
  Charge       = 0
  Multiplicity = 1
  Basis Set: AUG-CC-PVTZ
    Blend: AUG-CC-PVTZ
  Basis Set: (AUG-CC-PVTZ AUX)
    Blend: AUG-CC-PVTZ-JKFIT

    Orbital Energies [Eh]
    ---------------------

    Doubly Occupied:

       1A   -104.881057     2A   -104.881057     3A   -104.876792
       4A    -92.210503     5A    -20.569286     6A    -20.569266
       7A    -11.467183     8A    -11.296036     9A    -11.277904
      10A    -11.277839    11A    -11.275070    12A    -11.267896
      13A    -11.267787    14A    -10.605369    15A    -10.605360
      16A    -10.600902    17A     -9.178748    18A     -8.072153
      19A     -8.072153    20A     -8.069926    21A     -8.069925
      22A     -8.069887    23A     -8.069886    24A     -8.067708
      25A     -8.065402    26A     -8.065371    27A     -6.863394
      28A     -6.862622    29A     -6.862425    30A     -1.461910
      31A     -1.354195    32A     -1.260209    33A     -1.197951
      34A     -1.131011    35A     -1.128764    36A     -1.069473
      37A     -1.055803    38A     -0.955520    39A     -0.868168
      40A     -0.867220    41A     -0.803045    42A     -0.745929
      43A     -0.711693    44A     -0.683375    45A     -0.677012
      46A     -0.656061    47A     -0.650996    48A     -0.638471
      49A     -0.633450    50A     -0.627038    51A     -0.558452
      52A     -0.548203    53A     -0.544999    54A     -0.537314
      55A     -0.522790    56A     -0.517722    57A     -0.516060
      58A     -0.495191    59A     -0.493756    60A     -0.476204
      61A     -0.470252    62A     -0.460843    63A     -0.434432
      64A     -0.382621    65A     -0.369910

  @DF-RHF Final Energy: -2193.86617697424163

   => Energetics <=

    Nuclear Repulsion Energy =           1336.7931068916302593
    One-Electron Energy =               -5685.6686756042226989
    Two-Electron Energy =                2155.0093917383505868
    Total Energy =                      -2193.8661769742416254
  Basis Set: (AUG-CC-PVTZ AUX)
    Blend: AUG-CC-PVTZ-RI
    Molecular point group: c1

    Geometry (in Angstrom), charge = 0, multiplicity = 1:

       Center              X                  Y                   Z               Mass
    ------------   -----------------  -----------------  -----------------  -----------------
         CL           2.981253275753    -0.000032214396     0.221972923291    34.968852682000
         CL           1.012237275753     1.450120785604    -1.339056076709    34.968852682000
         CL           1.012202275753    -1.449971214396    -1.339219076709    34.968852682000
         S            0.206517275753    -0.000056214396     1.138585923291    31.972071174400
         O            0.444685275753     1.284911785604     1.796611923291    15.994914619570
         O            0.444684275753    -1.285093214396     1.796477923291    15.994914619570
         C           -1.474040224247    -0.000020214396     0.441396423291    12.000000000000
         C            1.332052275753     0.000018785604    -0.390489076709    12.000000000000
         C           -2.060488724247    -1.223895214396     0.226939923291    12.000000000000
         C           -2.060478724247     1.223877785604     0.227035923291    12.000000000000
         C           -3.360637724247    -1.212296214396    -0.277554076709    12.000000000000
         C           -3.360627724247     1.212329785604    -0.277459076709    12.000000000000
         C           -4.005884724247     0.000029785604    -0.536128076709    12.000000000000
         H           -1.550455724247    -2.153929214396     0.458945923291     1.007825032230
         H           -1.550441724247     2.153889785604     0.459120923291     1.007825032230
         H           -3.872725724247    -2.152611214396    -0.463783076709     1.007825032230
         H           -3.872706724247     2.152662785604    -0.463614076709     1.007825032230
         H           -5.019760724247     0.000048785604    -0.928281076709     1.007825032230

  Basis Set: AUG-CC-PVTZ
    Blend: AUG-CC-PVTZ
  Basis Set: (AUG-CC-PVTZ AUX)
    Blend: AUG-CC-PVTZ-JKFIT
	 Reference Energy          =   -2193.8661769742416254 [Eh]
	 Singles Energy            =      -0.0000000000000000 [Eh]
	 Same-Spin Energy          =      -0.7058506846744400 [Eh]
	 Opposite-Spin Energy      =      -2.0129826807537681 [Eh]
	 Correlation Energy        =      -2.7188333654282082 [Eh]
	 Total Energy              =   -2196.5850103396696795 [Eh]

	 ================> DF-SCS-MP2 Energies <==================
	-----------------------------------------------------------
	 SCS Same-Spin Scale       =       0.3333333333333333 [-]
	 SCS Opposite-Spin Scale   =       1.2000000000000000 [-]
	 SCS Same-Spin Energy      =      -0.2352835615581467 [Eh]
	 SCS Opposite-Spin Energy  =      -2.4155792169045216 [Eh]
	 SCS Correlation Energy    =      -2.6508627784626682 [Eh]
	 SCS Total Energy          =   -2196.5170397527044770 [Eh]
	-----------------------------------------------------------

  Dipole Moment: [D]
     X:    -3.6182      Y:     0.0002      Z:    -2.9722     Total:     4.6825

*** Psi4 exiting successfully. Buy a developer a beer!
