                               Psi4 1.3.2 release

  ==> Input File <==

--------------------------------------------------------------------------
#psi4
#
memory 32 gb

molecule  {
0 1
 Cl        3.0582810    -0.0000320     0.2153210
 Cl        1.0892650     1.4501210    -1.3457080
 Cl        1.0892300    -1.4499710    -1.3458710
  S        0.2835450    -0.0000560     1.1319340
  O        0.5516423     1.2329662     1.8726398
  O        0.5217120    -1.2850930     1.7898260
  C       -1.3508290    -0.0000210     0.4539040
  C        1.4090800     0.0000190    -0.3971410
  C       -1.9834610    -1.2238950     0.2202880
  C       -1.9834510     1.2238780     0.2203840
  C       -3.2836100    -1.2122960    -0.2842060
  C       -3.2836000     1.2123300    -0.2841110
  C       -3.9288570     0.0000300    -0.5427800
  H       -1.4734280    -2.1539290     0.4522940
  H       -1.4734140     2.1538900     0.4524690
  H       -3.7956980    -2.1526110    -0.4704350
  H       -3.7956790     2.1526630    -0.4702660
  H       -4.9427330     0.0000490    -0.9349330
units angstrom
no_reorient  #important for SAPT in psi4, default
symmetry c1  #important for SAPT in psi4, default
}

set PROPERTIES_ORIGIN ["COM"]
properties('MP2/aug-cc-pvtz', properties = ['dipole'])
--------------------------------------------------------------------------

    Molecular point group: c1
  Charge       = 0
  Multiplicity = 1
  Basis Set: AUG-CC-PVTZ
    Blend: AUG-CC-PVTZ
  Basis Set: (AUG-CC-PVTZ AUX)
    Blend: AUG-CC-PVTZ-JKFIT

    Orbital Energies [Eh]
    ---------------------

    Doubly Occupied:

       1A   -104.882452     2A   -104.882141     3A   -104.877042
       4A    -92.210198     5A    -20.567725     6A    -20.562464
       7A    -11.468617     8A    -11.297004     9A    -11.283879
      10A    -11.283484    11A    -11.279004    12A    -11.269000
      13A    -11.268870    14A    -10.606772    15A    -10.606407
      16A    -10.601122    17A     -9.178739    18A     -8.073560
      19A     -8.073194    20A     -8.071334    21A     -8.071296
      22A     -8.070962    23A     -8.070918    24A     -8.067928
      25A     -8.065612    26A     -8.065584    27A     -6.863420
      28A     -6.862680    29A     -6.862484    30A     -1.461389
      31A     -1.348020    32A     -1.261407    33A     -1.194524
      34A     -1.132219    35A     -1.129286    36A     -1.074513
      37A     -1.054206    38A     -0.959934    39A     -0.871898
      40A     -0.866549    41A     -0.802984    42A     -0.744842
      43A     -0.713127    44A     -0.686822    45A     -0.676592
      46A     -0.654876    47A     -0.651327    48A     -0.639990
      49A     -0.629489    50A     -0.625892    51A     -0.559727
      52A     -0.547619    53A     -0.543374    54A     -0.534411
      55A     -0.521584    56A     -0.518058    57A     -0.513725
      58A     -0.499010    59A     -0.491552    60A     -0.476708
      61A     -0.469733    62A     -0.461442    63A     -0.438278
      64A     -0.382781    65A     -0.370512

  @DF-RHF Final Energy: -2193.86799292274645

   => Energetics <=

    Nuclear Repulsion Energy =           1336.3038606977945619
    One-Electron Energy =               -5684.6391257677050817
    Two-Electron Energy =                2154.4672721471642944
    Total Energy =                      -2193.8679929227464527
  Basis Set: (AUG-CC-PVTZ AUX)
    Blend: AUG-CC-PVTZ-RI
    Molecular point group: c1

    Geometry (in Angstrom), charge = 0, multiplicity = 1:

       Center              X                  Y                   Z               Mass
    ------------   -----------------  -----------------  -----------------  -----------------
         CL           2.977248280694     0.003189407180     0.215953827924    34.968852682000
         CL           1.008232280694     1.453342407180    -1.345075172076    34.968852682000
         CL           1.008197280694    -1.446749592820    -1.345238172076    34.968852682000
         S            0.202512280694     0.003165407180     1.132566827924    31.972071174400
         O            0.470609580694     1.236187607180     1.873272627924    15.994914619570
         O            0.440679280694    -1.281871592820     1.790458827924    15.994914619570
         C           -1.431861719306     0.003200407180     0.454536827924    12.000000000000
         C            1.328047280694     0.003240407180    -0.396508172076    12.000000000000
         C           -2.064493719306    -1.220673592820     0.220920827924    12.000000000000
         C           -2.064483719306     1.227099407180     0.221016827924    12.000000000000
         C           -3.364642719306    -1.209074592820    -0.283573172076    12.000000000000
         C           -3.364632719306     1.215551407180    -0.283478172076    12.000000000000
         C           -4.009889719306     0.003251407180    -0.542147172076    12.000000000000
         H           -1.554460719306    -2.150707592820     0.452926827924     1.007825032230
         H           -1.554446719306     2.157111407180     0.453101827924     1.007825032230
         H           -3.876730719306    -2.149389592820    -0.469802172076     1.007825032230
         H           -3.876711719306     2.155884407180    -0.469633172076     1.007825032230
         H           -5.023765719306     0.003270407180    -0.934300172076     1.007825032230

  Basis Set: AUG-CC-PVTZ
    Blend: AUG-CC-PVTZ
  Basis Set: (AUG-CC-PVTZ AUX)
    Blend: AUG-CC-PVTZ-JKFIT
	 Reference Energy          =   -2193.8679929227464527 [Eh]
	 Singles Energy            =      -0.0000000000000000 [Eh]
	 Same-Spin Energy          =      -0.7055122413986021 [Eh]
	 Opposite-Spin Energy      =      -2.0125524445700420 [Eh]
	 Correlation Energy        =      -2.7180646859686441 [Eh]
	 Total Energy              =   -2196.5860576087152367 [Eh]

	 ================> DF-SCS-MP2 Energies <==================
	-----------------------------------------------------------
	 SCS Same-Spin Scale       =       0.3333333333333333 [-]
	 SCS Opposite-Spin Scale   =       1.2000000000000000 [-]
	 SCS Same-Spin Energy      =      -0.2351707471328674 [Eh]
	 SCS Opposite-Spin Energy  =      -2.4150629334840503 [Eh]
	 SCS Correlation Energy    =      -2.6502336806169176 [Eh]
	 SCS Total Energy          =   -2196.5182266033634733 [Eh]
	-----------------------------------------------------------

  Dipole Moment: [D]
     X:    -3.7855      Y:     0.0828      Z:    -3.2215     Total:     4.9714

*** Psi4 exiting successfully. Buy a developer a beer!
