                               Psi4 1.3.2 release

  ==> Input File <==

--------------------------------------------------------------------------
#psi4
#
memory 32 gb

molecule  {
0 1
 Cl        3.0582810    -0.0000320     0.2153210
 Cl        1.0892650     1.4501210    -1.3457080
 Cl        1.0892300    -1.4499710    -1.3458710
  S        0.2835450    -0.0000560     1.1319340
  O        0.4878783     1.2717698     1.8258878
  O        0.5217120    -1.2850930     1.7898260
  C       -1.3508290    -0.0000210     0.4539040
  C        1.4090800     0.0000190    -0.3971410
  C       -1.9834610    -1.2238950     0.2202880
  C       -1.9834510     1.2238780     0.2203840
  C       -3.2836100    -1.2122960    -0.2842060
  C       -3.2836000     1.2123300    -0.2841110
  C       -3.9288570     0.0000300    -0.5427800
  H       -1.4734280    -2.1539290     0.4522940
  H       -1.4734140     2.1538900     0.4524690
  H       -3.7956980    -2.1526110    -0.4704350
  H       -3.7956790     2.1526630    -0.4702660
  H       -4.9427330     0.0000490    -0.9349330
units angstrom
no_reorient  #important for SAPT in psi4, default
symmetry c1  #important for SAPT in psi4, default
}

set PROPERTIES_ORIGIN ["COM"]
properties('MP2/aug-cc-pvtz', properties = ['dipole'])
--------------------------------------------------------------------------

    Molecular point group: c1
  Charge       = 0
  Multiplicity = 1
  Basis Set: AUG-CC-PVTZ
    Blend: AUG-CC-PVTZ
  Basis Set: (AUG-CC-PVTZ AUX)
    Blend: AUG-CC-PVTZ-JKFIT

    Orbital Energies [Eh]
    ---------------------

    Doubly Occupied:

       1A   -104.882478     2A   -104.882340     3A   -104.877987
       4A    -92.211244     5A    -20.568739     6A    -20.567271
       7A    -11.469193     8A    -11.293933     9A    -11.281446
      10A    -11.281361    11A    -11.277226    12A    -11.267228
      13A    -11.267138    14A    -10.606742    15A    -10.606637
      16A    -10.602091    17A     -9.179652    18A     -8.073529
      19A     -8.073425    20A     -8.071293    21A     -8.071251
      22A     -8.071193    23A     -8.071155    24A     -8.068896
      25A     -8.066586    26A     -8.066556    27A     -6.864338
      28A     -6.863658    29A     -6.863373    30A     -1.462655
      31A     -1.352821    32A     -1.261771    33A     -1.192343
      34A     -1.132270    35A     -1.130008    36A     -1.072030
      37A     -1.052287    38A     -0.959124    39A     -0.871192
      40A     -0.864596    41A     -0.802366    42A     -0.744935
      43A     -0.713529    44A     -0.686164    45A     -0.676535
      46A     -0.654917    47A     -0.650261    48A     -0.640022
      49A     -0.630890    50A     -0.624722    51A     -0.558021
      52A     -0.548366    53A     -0.541540    54A     -0.532869
      55A     -0.522662    56A     -0.518108    57A     -0.516761
      58A     -0.498415    59A     -0.494552    60A     -0.477359
      61A     -0.471043    62A     -0.461961    63A     -0.438374
      64A     -0.380785    65A     -0.368739

  @DF-RHF Final Energy: -2193.86804611668185

   => Energetics <=

    Nuclear Repulsion Energy =           1336.8617304247557058
    One-Electron Energy =               -5685.7536501880813375
    Two-Electron Energy =                2155.0238736466440059
    Total Energy =                      -2193.8680461166818532
  Basis Set: (AUG-CC-PVTZ AUX)
    Blend: AUG-CC-PVTZ-RI
    Molecular point group: c1

    Geometry (in Angstrom), charge = 0, multiplicity = 1:

       Center              X                  Y                   Z               Mass
    ------------   -----------------  -----------------  -----------------  -----------------
         CL           2.981202796965     0.000782885199     0.218853293840    34.968852682000
         CL           1.012186796965     1.450935885199    -1.342175706160    34.968852682000
         CL           1.012151796965    -1.449156114801    -1.342338706160    34.968852682000
         S            0.206466796965     0.000758885199     1.135466293840    31.972071174400
         O            0.410800096965     1.272584685199     1.829420093840    15.994914619570
         O            0.444633796965    -1.284278114801     1.793358293840    15.994914619570
         C           -1.427907203035     0.000793885199     0.457436293840    12.000000000000
         C            1.332001796965     0.000833885199    -0.393608706160    12.000000000000
         C           -2.060539203035    -1.223080114801     0.223820293840    12.000000000000
         C           -2.060529203035     1.224692885199     0.223916293840    12.000000000000
         C           -3.360688203035    -1.211481114801    -0.280673706160    12.000000000000
         C           -3.360678203035     1.213144885199    -0.280578706160    12.000000000000
         C           -4.005935203035     0.000844885199    -0.539247706160    12.000000000000
         H           -1.550506203035    -2.153114114801     0.455826293840     1.007825032230
         H           -1.550492203035     2.154704885199     0.456001293840     1.007825032230
         H           -3.872776203035    -2.151796114801    -0.466902706160     1.007825032230
         H           -3.872757203035     2.153477885199    -0.466733706160     1.007825032230
         H           -5.019811203035     0.000863885199    -0.931400706160     1.007825032230

  Basis Set: AUG-CC-PVTZ
    Blend: AUG-CC-PVTZ
  Basis Set: (AUG-CC-PVTZ AUX)
    Blend: AUG-CC-PVTZ-JKFIT
	 Reference Energy          =   -2193.8680461166818532 [Eh]
	 Singles Energy            =      -0.0000000000000000 [Eh]
	 Same-Spin Energy          =      -0.7057190796652169 [Eh]
	 Opposite-Spin Energy      =      -2.0129265248961858 [Eh]
	 Correlation Energy        =      -2.7186456045614027 [Eh]
	 Total Energy              =   -2196.5866917212433691 [Eh]

	 ================> DF-SCS-MP2 Energies <==================
	-----------------------------------------------------------
	 SCS Same-Spin Scale       =       0.3333333333333333 [-]
	 SCS Opposite-Spin Scale   =       1.2000000000000000 [-]
	 SCS Same-Spin Energy      =      -0.2352396932217389 [Eh]
	 SCS Opposite-Spin Energy  =      -2.4155118298754230 [Eh]
	 SCS Correlation Energy    =      -2.6507515230971621 [Eh]
	 SCS Total Energy          =   -2196.5187976397792227 [Eh]
	-----------------------------------------------------------

  Dipole Moment: [D]
     X:    -3.5857      Y:     0.0155      Z:    -3.1092     Total:     4.7460

*** Psi4 exiting successfully. Buy a developer a beer!
