                               Psi4 1.3.2 release

  ==> Input File <==

--------------------------------------------------------------------------
#psi4
#
memory 32 gb

molecule  {
0 1
 Cl        3.0582810    -0.0000320     0.2153210
 Cl        1.0892650     1.4501210    -1.3457080
 Cl        1.0892300    -1.4499710    -1.3458710
  S        0.2835450    -0.0000560     1.1319340
  O        0.5217130     1.2849120     1.7899600
  O        0.5217120    -1.2850930     1.7898260
  C       -1.3941447    -0.0000267     0.5695638
  C        1.4090800     0.0000190    -0.3971410
  C       -1.9834610    -1.2238950     0.2202880
  C       -1.9834510     1.2238780     0.2203840
  C       -3.2836100    -1.2122960    -0.2842060
  C       -3.2836000     1.2123300    -0.2841110
  C       -3.9288570     0.0000300    -0.5427800
  H       -1.4734280    -2.1539290     0.4522940
  H       -1.4734140     2.1538900     0.4524690
  H       -3.7956980    -2.1526110    -0.4704350
  H       -3.7956790     2.1526630    -0.4702660
  H       -4.9427330     0.0000490    -0.9349330
units angstrom
no_reorient  #important for SAPT in psi4, default
symmetry c1  #important for SAPT in psi4, default
}

set PROPERTIES_ORIGIN ["COM"]
properties('MP2/aug-cc-pvtz', properties = ['dipole'])
--------------------------------------------------------------------------

    Molecular point group: c1
  Charge       = 0
  Multiplicity = 1
  Basis Set: AUG-CC-PVTZ
    Blend: AUG-CC-PVTZ
  Basis Set: (AUG-CC-PVTZ AUX)
    Blend: AUG-CC-PVTZ-JKFIT

    Orbital Energies [Eh]
    ---------------------

    Doubly Occupied:

       1A   -104.882068     2A   -104.882068     3A   -104.878634
       4A    -92.209847     5A    -20.565183     6A    -20.565164
       7A    -11.470004     8A    -11.295194     9A    -11.282786
      10A    -11.282716    11A    -11.278729    12A    -11.267861
      13A    -11.267785    14A    -10.606354    15A    -10.606345
      16A    -10.602682    17A     -9.178258    18A     -8.073138
      19A     -8.073138    20A     -8.070906    21A     -8.070904
      22A     -8.070865    23A     -8.070864    24A     -8.069486
      25A     -8.067169    26A     -8.067132    27A     -6.862847
      28A     -6.862376    29A     -6.861926    30A     -1.460895
      31A     -1.351757    32A     -1.261317    33A     -1.192115
      34A     -1.131915    35A     -1.130045    36A     -1.071383
      37A     -1.052575    38A     -0.956569    39A     -0.873152
      40A     -0.864194    41A     -0.802170    42A     -0.744959
      43A     -0.714484    44A     -0.684006    45A     -0.675609
      46A     -0.654803    47A     -0.650934    48A     -0.639435
      49A     -0.630308    50A     -0.624943    51A     -0.558092
      52A     -0.547335    53A     -0.541262    54A     -0.533534
      55A     -0.521838    56A     -0.517584    57A     -0.516246
      58A     -0.494793    59A     -0.493284    60A     -0.476846
      61A     -0.470149    62A     -0.461664    63A     -0.438015
      64A     -0.381787    65A     -0.369109

  @DF-RHF Final Energy: -2193.86439088691486

   => Energetics <=

    Nuclear Repulsion Energy =           1336.2646607045760447
    One-Electron Energy =               -5684.5950316385160477
    Two-Electron Energy =                2154.4659800470249138
    Total Energy =                      -2193.8643908869148618
  Basis Set: (AUG-CC-PVTZ AUX)
    Blend: AUG-CC-PVTZ-RI
    Molecular point group: c1

    Geometry (in Angstrom), charge = 0, multiplicity = 1:

       Center              X                  Y                   Z               Mass
    ------------   -----------------  -----------------  -----------------  -----------------
         CL           2.981119841910    -0.000031902656     0.215700011199    34.968852682000
         CL           1.012103841910     1.450121097344    -1.345328988801    34.968852682000
         CL           1.012068841910    -1.449970902656    -1.345491988801    34.968852682000
         S            0.206383841910    -0.000055902656     1.132313011199    31.972071174400
         O            0.444551841910     1.284912097344     1.790339011199    15.994914619570
         O            0.444550841910    -1.285092902656     1.790205011199    15.994914619570
         C           -1.471305858090    -0.000026602656     0.569942811199    12.000000000000
         C            1.331918841910     0.000019097344    -0.396761988801    12.000000000000
         C           -2.060622158090    -1.223894902656     0.220667011199    12.000000000000
         C           -2.060612158090     1.223878097344     0.220763011199    12.000000000000
         C           -3.360771158090    -1.212295902656    -0.283826988801    12.000000000000
         C           -3.360761158090     1.212330097344    -0.283731988801    12.000000000000
         C           -4.006018158090     0.000030097344    -0.542400988801    12.000000000000
         H           -1.550589158090    -2.153928902656     0.452673011199     1.007825032230
         H           -1.550575158090     2.153890097344     0.452848011199     1.007825032230
         H           -3.872859158090    -2.152610902656    -0.470055988801     1.007825032230
         H           -3.872840158090     2.152663097344    -0.469886988801     1.007825032230
         H           -5.019894158090     0.000049097344    -0.934553988801     1.007825032230

  Basis Set: AUG-CC-PVTZ
    Blend: AUG-CC-PVTZ
  Basis Set: (AUG-CC-PVTZ AUX)
    Blend: AUG-CC-PVTZ-JKFIT
	 Reference Energy          =   -2193.8643908869148618 [Eh]
	 Singles Energy            =      -0.0000000000000000 [Eh]
	 Same-Spin Energy          =      -0.7056369097811696 [Eh]
	 Opposite-Spin Energy      =      -2.0130041729738388 [Eh]
	 Correlation Energy        =      -2.7186410827550085 [Eh]
	 Total Energy              =   -2196.5830319696697188 [Eh]

	 ================> DF-SCS-MP2 Energies <==================
	-----------------------------------------------------------
	 SCS Same-Spin Scale       =       0.3333333333333333 [-]
	 SCS Opposite-Spin Scale   =       1.2000000000000000 [-]
	 SCS Same-Spin Energy      =      -0.2352123032603898 [Eh]
	 SCS Opposite-Spin Energy  =      -2.4156050075686064 [Eh]
	 SCS Correlation Energy    =      -2.6508173108289963 [Eh]
	 SCS Total Energy          =   -2196.5152081977439593 [Eh]
	-----------------------------------------------------------

  Dipole Moment: [D]
     X:    -3.6889      Y:     0.0002      Z:    -3.1302     Total:     4.8379

*** Psi4 exiting successfully. Buy a developer a beer!
