                               Psi4 1.3.2 release

  ==> Input File <==

--------------------------------------------------------------------------
#psi4
#
memory 32 gb

molecule  {
0 1
 Cl        3.0582810    -0.0000320     0.2153210
 Cl        1.0892650     1.4501210    -1.3457080
 Cl        1.0892300    -1.4499710    -1.3458710
  S        0.2820334    -0.0617938     1.1327615
  O        0.5217130     1.2849120     1.7899600
  O        0.5217120    -1.2850930     1.7898260
  C       -1.3508290    -0.0000210     0.4539040
  C        1.4090800     0.0000190    -0.3971410
  C       -1.9834610    -1.2238950     0.2202880
  C       -1.9834510     1.2238780     0.2203840
  C       -3.2836100    -1.2122960    -0.2842060
  C       -3.2836000     1.2123300    -0.2841110
  C       -3.9288570     0.0000300    -0.5427800
  H       -1.4734280    -2.1539290     0.4522940
  H       -1.4734140     2.1538900     0.4524690
  H       -3.7956980    -2.1526110    -0.4704350
  H       -3.7956790     2.1526630    -0.4702660
  H       -4.9427330     0.0000490    -0.9349330
units angstrom
no_reorient  #important for SAPT in psi4, default
symmetry c1  #important for SAPT in psi4, default
}

set PROPERTIES_ORIGIN ["COM"]
properties('MP2/aug-cc-pvtz', properties = ['dipole'])
--------------------------------------------------------------------------

    Molecular point group: c1
  Charge       = 0
  Multiplicity = 1
  Basis Set: AUG-CC-PVTZ
    Blend: AUG-CC-PVTZ
  Basis Set: (AUG-CC-PVTZ AUX)
    Blend: AUG-CC-PVTZ-JKFIT

    Orbital Energies [Eh]
    ---------------------

    Doubly Occupied:

       1A   -104.880814     2A   -104.880536     3A   -104.876427
       4A    -92.210447     5A    -20.580903     6A    -20.556834
       7A    -11.466759     8A    -11.295066     9A    -11.282375
      10A    -11.282135    11A    -11.277992    12A    -11.267862
      13A    -11.267782    14A    -10.605007    15A    -10.604964
      16A    -10.600534    17A     -9.179487    18A     -8.071790
      19A     -8.071755    20A     -8.069577    21A     -8.069542
      22A     -8.069518    23A     -8.069474    24A     -8.067340
      25A     -8.065037    26A     -8.065004    27A     -6.864104
      28A     -6.863684    29A     -6.862993    30A     -1.478414
      31A     -1.342180    32A     -1.259444    33A     -1.193110
      34A     -1.130750    35A     -1.128345    36A     -1.072831
      37A     -1.052951    38A     -0.957861    39A     -0.871416
      40A     -0.865056    41A     -0.802780    42A     -0.746000
      43A     -0.715130    44A     -0.689112    45A     -0.677935
      46A     -0.654512    47A     -0.650862    48A     -0.639713
      49A     -0.632044    50A     -0.625138    51A     -0.560135
      52A     -0.553665    53A     -0.542840    54A     -0.533040
      55A     -0.520803    56A     -0.516360    57A     -0.515972
      58A     -0.499577    59A     -0.487886    60A     -0.475475
      61A     -0.468884    62A     -0.460280    63A     -0.435760
      64A     -0.381582    65A     -0.369364

  @DF-RHF Final Energy: -2193.86150042664485

   => Energetics <=

    Nuclear Repulsion Energy =           1337.4249476182026228
    One-Electron Energy =               -5686.9070060208778159
    Two-Electron Energy =                2155.6205579760298860
    Total Energy =                      -2193.8615004266448523
  Basis Set: (AUG-CC-PVTZ AUX)
    Blend: AUG-CC-PVTZ-RI
    Molecular point group: c1

    Geometry (in Angstrom), charge = 0, multiplicity = 1:

       Center              X                  Y                   Z               Mass
    ------------   -----------------  -----------------  -----------------  -----------------
         CL           2.979291825027     0.007621291981     0.220978881606    34.968852682000
         CL           1.010275825027     1.457774291981    -1.340050118394    34.968852682000
         CL           1.010240825027    -1.442317708019    -1.340213118394    34.968852682000
         S            0.203044225027    -0.054140508019     1.138419381606    31.972071174400
         O            0.442723825027     1.292565291981     1.795617881606    15.994914619570
         O            0.442722825027    -1.277439708019     1.795483881606    15.994914619570
         C           -1.429818174973     0.007632291981     0.459561881606    12.000000000000
         C            1.330090825027     0.007672291981    -0.391483118394    12.000000000000
         C           -2.062450174973    -1.216241708019     0.225945881606    12.000000000000
         C           -2.062440174973     1.231531291981     0.226041881606    12.000000000000
         C           -3.362599174973    -1.204642708019    -0.278548118394    12.000000000000
         C           -3.362589174973     1.219983291981    -0.278453118394    12.000000000000
         C           -4.007846174973     0.007683291981    -0.537122118394    12.000000000000
         H           -1.552417174973    -2.146275708019     0.457951881606     1.007825032230
         H           -1.552403174973     2.161543291981     0.458126881606     1.007825032230
         H           -3.874687174973    -2.144957708019    -0.464777118394     1.007825032230
         H           -3.874668174973     2.160316291981    -0.464608118394     1.007825032230
         H           -5.021722174973     0.007702291981    -0.929275118394     1.007825032230

  Basis Set: AUG-CC-PVTZ
    Blend: AUG-CC-PVTZ
  Basis Set: (AUG-CC-PVTZ AUX)
    Blend: AUG-CC-PVTZ-JKFIT
	 Reference Energy          =   -2193.8615004266448523 [Eh]
	 Singles Energy            =      -0.0000000000000000 [Eh]
	 Same-Spin Energy          =      -0.7056309461779187 [Eh]
	 Opposite-Spin Energy      =      -2.0128046621168703 [Eh]
	 Correlation Energy        =      -2.7184356082947891 [Eh]
	 Total Energy              =   -2196.5799360349396920 [Eh]

	 ================> DF-SCS-MP2 Energies <==================
	-----------------------------------------------------------
	 SCS Same-Spin Scale       =       0.3333333333333333 [-]
	 SCS Opposite-Spin Scale   =       1.2000000000000000 [-]
	 SCS Same-Spin Energy      =      -0.2352103153926395 [Eh]
	 SCS Opposite-Spin Energy  =      -2.4153655945402441 [Eh]
	 SCS Correlation Energy    =      -2.6505759099328836 [Eh]
	 SCS Total Energy          =   -2196.5120763365775929 [Eh]
	-----------------------------------------------------------

  Dipole Moment: [D]
     X:    -3.7225      Y:    -0.4028      Z:    -3.0118     Total:     4.8052

*** Psi4 exiting successfully. Buy a developer a beer!
