                               Psi4 1.3.2 release

  ==> Input File <==

--------------------------------------------------------------------------
#psi4
#
memory 32 gb

molecule  {
0 1
 Cl        3.0969868    -0.0000258     0.0987866
 Cl        1.0892650     1.4501210    -1.3457080
 Cl        1.0892300    -1.4499710    -1.3458710
  S        0.2835450    -0.0000560     1.1319340
  O        0.5217130     1.2849120     1.7899600
  O        0.5217120    -1.2850930     1.7898260
  C       -1.3508290    -0.0000210     0.4539040
  C        1.4090800     0.0000190    -0.3971410
  C       -1.9834610    -1.2238950     0.2202880
  C       -1.9834510     1.2238780     0.2203840
  C       -3.2836100    -1.2122960    -0.2842060
  C       -3.2836000     1.2123300    -0.2841110
  C       -3.9288570     0.0000300    -0.5427800
  H       -1.4734280    -2.1539290     0.4522940
  H       -1.4734140     2.1538900     0.4524690
  H       -3.7956980    -2.1526110    -0.4704350
  H       -3.7956790     2.1526630    -0.4702660
  H       -4.9427330     0.0000490    -0.9349330
units angstrom
no_reorient  #important for SAPT in psi4, default
symmetry c1  #important for SAPT in psi4, default
}

set PROPERTIES_ORIGIN ["COM"]
properties('MP2/aug-cc-pvtz', properties = ['dipole'])
--------------------------------------------------------------------------

    Molecular point group: c1
  Charge       = 0
  Multiplicity = 1
  Basis Set: AUG-CC-PVTZ
    Blend: AUG-CC-PVTZ
  Basis Set: (AUG-CC-PVTZ AUX)
    Blend: AUG-CC-PVTZ-JKFIT

    Orbital Energies [Eh]
    ---------------------

    Doubly Occupied:

       1A   -104.879204     2A   -104.879204     3A   -104.876334
       4A    -92.213717     5A    -20.569785     6A    -20.569765
       7A    -11.466501     8A    -11.296007     9A    -11.283113
      10A    -11.283042    11A    -11.278763    12A    -11.268360
      13A    -11.268282    14A    -10.603657    15A    -10.603649
      16A    -10.600457    17A     -9.181862    18A     -8.070436
      19A     -8.070436    20A     -8.068211    21A     -8.068210
      22A     -8.068172    23A     -8.068171    24A     -8.067259
      25A     -8.064952    26A     -8.064924    27A     -6.866581
      28A     -6.865915    29A     -6.865578    30A     -1.463806
      31A     -1.355176    32A     -1.260928    33A     -1.193841
      34A     -1.130139    35A     -1.126072    36A     -1.073472
      37A     -1.053630    38A     -0.959411    39A     -0.871915
      40A     -0.865967    41A     -0.803069    42A     -0.745524
      43A     -0.714043    44A     -0.687365    45A     -0.677682
      46A     -0.654614    47A     -0.650631    48A     -0.637899
      49A     -0.631700    50A     -0.625946    51A     -0.559066
      52A     -0.549128    53A     -0.542550    54A     -0.534193
      55A     -0.524511    56A     -0.517191    57A     -0.515400
      58A     -0.499809    59A     -0.495489    60A     -0.473214
      61A     -0.468875    62A     -0.458729    63A     -0.439313
      64A     -0.382531    65A     -0.369892

  @DF-RHF Final Energy: -2193.86750170133155

   => Energetics <=

    Nuclear Repulsion Energy =           1335.8320482567439740
    One-Electron Energy =               -5683.7125600060635406
    Two-Electron Energy =                2154.0130100479877910
    Total Energy =                      -2193.8675017013315482
  Basis Set: (AUG-CC-PVTZ AUX)
    Blend: AUG-CC-PVTZ-RI
    Molecular point group: c1

    Geometry (in Angstrom), charge = 0, multiplicity = 1:

       Center              X                  Y                   Z               Mass
    ------------   -----------------  -----------------  -----------------  -----------------
         CL           3.012562242394    -0.000026808505     0.120347585723    34.968852682000
         CL           1.004840442394     1.450119991495    -1.324147014277    34.968852682000
         CL           1.004805442394    -1.449972008505    -1.324310014277    34.968852682000
         S            0.199120442394    -0.000057008505     1.153494985723    31.972071174400
         O            0.437288442394     1.284910991495     1.811520985723    15.994914619570
         O            0.437287442394    -1.285094008505     1.811386985723    15.994914619570
         C           -1.435253557606    -0.000022008505     0.475464985723    12.000000000000
         C            1.324655442394     0.000017991495    -0.375580014277    12.000000000000
         C           -2.067885557606    -1.223896008505     0.241848985723    12.000000000000
         C           -2.067875557606     1.223876991495     0.241944985723    12.000000000000
         C           -3.368034557606    -1.212297008505    -0.262645014277    12.000000000000
         C           -3.368024557606     1.212328991495    -0.262550014277    12.000000000000
         C           -4.013281557606     0.000028991495    -0.521219014277    12.000000000000
         H           -1.557852557606    -2.153930008505     0.473854985723     1.007825032230
         H           -1.557838557606     2.153888991495     0.474029985723     1.007825032230
         H           -3.880122557606    -2.152612008505    -0.448874014277     1.007825032230
         H           -3.880103557606     2.152661991495    -0.448705014277     1.007825032230
         H           -5.027157557606     0.000047991495    -0.913372014277     1.007825032230

  Basis Set: AUG-CC-PVTZ
    Blend: AUG-CC-PVTZ
  Basis Set: (AUG-CC-PVTZ AUX)
    Blend: AUG-CC-PVTZ-JKFIT
	 Reference Energy          =   -2193.8675017013315482 [Eh]
	 Singles Energy            =      -0.0000000000000000 [Eh]
	 Same-Spin Energy          =      -0.7055542943348231 [Eh]
	 Opposite-Spin Energy      =      -2.0127028870790675 [Eh]
	 Correlation Energy        =      -2.7182571814138905 [Eh]
	 Total Energy              =   -2196.5857588827452673 [Eh]

	 ================> DF-SCS-MP2 Energies <==================
	-----------------------------------------------------------
	 SCS Same-Spin Scale       =       0.3333333333333333 [-]
	 SCS Opposite-Spin Scale   =       1.2000000000000000 [-]
	 SCS Same-Spin Energy      =      -0.2351847647782744 [Eh]
	 SCS Opposite-Spin Energy  =      -2.4152434644948810 [Eh]
	 SCS Correlation Energy    =      -2.6504282292731554 [Eh]
	 SCS Total Energy          =   -2196.5179299306046232 [Eh]
	-----------------------------------------------------------

  Dipole Moment: [D]
     X:    -3.7921      Y:     0.0002      Z:    -2.9869     Total:     4.8271

*** Psi4 exiting successfully. Buy a developer a beer!
