                               Psi4 1.3.2 release

  ==> Input File <==

--------------------------------------------------------------------------
#psi4
#
memory 32 gb

molecule  {
0 1
 Cl        3.0582810    -0.0000320     0.2153210
 Cl        1.0892650     1.4501210    -1.3457080
 Cl        1.0892300    -1.4499710    -1.3458710
  S        0.2835450    -0.0000560     1.1319340
  O        0.6150715     1.2512235     1.8140299
  O        0.5217120    -1.2850930     1.7898260
  C       -1.3508290    -0.0000210     0.4539040
  C        1.4090800     0.0000190    -0.3971410
  C       -1.9834610    -1.2238950     0.2202880
  C       -1.9834510     1.2238780     0.2203840
  C       -3.2836100    -1.2122960    -0.2842060
  C       -3.2836000     1.2123300    -0.2841110
  C       -3.9288570     0.0000300    -0.5427800
  H       -1.4734280    -2.1539290     0.4522940
  H       -1.4734140     2.1538900     0.4524690
  H       -3.7956980    -2.1526110    -0.4704350
  H       -3.7956790     2.1526630    -0.4702660
  H       -4.9427330     0.0000490    -0.9349330
units angstrom
no_reorient  #important for SAPT in psi4, default
symmetry c1  #important for SAPT in psi4, default
}

set PROPERTIES_ORIGIN ["COM"]
properties('MP2/aug-cc-pvtz', properties = ['dipole'])
--------------------------------------------------------------------------

    Molecular point group: c1
  Charge       = 0
  Multiplicity = 1
  Basis Set: AUG-CC-PVTZ
    Blend: AUG-CC-PVTZ
  Basis Set: (AUG-CC-PVTZ AUX)
    Blend: AUG-CC-PVTZ-JKFIT

    Orbital Energies [Eh]
    ---------------------

    Doubly Occupied:

       1A   -104.879971     2A   -104.879324     3A   -104.874551
       4A    -92.211048     5A    -20.568000     6A    -20.565063
       7A    -11.464763     8A    -11.298982     9A    -11.285350
      10A    -11.284998    11A    -11.280337    12A    -11.270085
      13A    -11.269996    14A    -10.604307    15A    -10.603663
      16A    -10.598642    17A     -9.179480    18A     -8.071095
      19A     -8.070451    20A     -8.068879    21A     -8.068838
      22A     -8.068235    23A     -8.068195    24A     -8.065448
      25A     -8.063140    26A     -8.063111    27A     -6.864194
      28A     -6.863455    29A     -6.863208    30A     -1.462169
      31A     -1.350497    32A     -1.258503    33A     -1.195917
      34A     -1.129752    35A     -1.126859    36A     -1.075793
      37A     -1.055457    38A     -0.958653    39A     -0.871783
      40A     -0.867828    41A     -0.803364    42A     -0.745163
      43A     -0.713030    44A     -0.687548    45A     -0.677558
      46A     -0.654100    47A     -0.651950    48A     -0.638296
      49A     -0.630177    50A     -0.626858    51A     -0.560958
      52A     -0.546216    53A     -0.543934    54A     -0.535568
      55A     -0.520541    56A     -0.517121    57A     -0.514564
      58A     -0.499023    59A     -0.492388    60A     -0.474425
      61A     -0.468222    62A     -0.459171    63A     -0.436360
      64A     -0.384209    65A     -0.371638

  @DF-RHF Final Energy: -2193.86779819054391

   => Energetics <=

    Nuclear Repulsion Energy =           1337.2353483412198329
    One-Electron Energy =               -5686.5614838249002787
    Two-Electron Energy =                2155.4583372931365375
    Total Energy =                      -2193.8677981905439083
  Basis Set: (AUG-CC-PVTZ AUX)
    Blend: AUG-CC-PVTZ-RI
    Molecular point group: c1

    Geometry (in Angstrom), charge = 0, multiplicity = 1:

       Center              X                  Y                   Z               Mass
    ------------   -----------------  -----------------  -----------------  -----------------
         CL           2.973314528052     0.002057125800     0.219588697179    34.968852682000
         CL           1.004298528052     1.452210125800    -1.341440302821    34.968852682000
         CL           1.004263528052    -1.447881874200    -1.341603302821    34.968852682000
         S            0.198578528052     0.002033125800     1.136201697179    31.972071174400
         O            0.530105028052     1.253312625800     1.818297597179    15.994914619570
         O            0.436745528052    -1.283003874200     1.794093697179    15.994914619570
         C           -1.435795471948     0.002068125800     0.458171697179    12.000000000000
         C            1.324113528052     0.002108125800    -0.392873302821    12.000000000000
         C           -2.068427471948    -1.221805874200     0.224555697179    12.000000000000
         C           -2.068417471948     1.225967125800     0.224651697179    12.000000000000
         C           -3.368576471948    -1.210206874200    -0.279938302821    12.000000000000
         C           -3.368566471948     1.214419125800    -0.279843302821    12.000000000000
         C           -4.013823471948     0.002119125800    -0.538512302821    12.000000000000
         H           -1.558394471948    -2.151839874200     0.456561697179     1.007825032230
         H           -1.558380471948     2.155979125800     0.456736697179     1.007825032230
         H           -3.880664471948    -2.150521874200    -0.466167302821     1.007825032230
         H           -3.880645471948     2.154752125800    -0.465998302821     1.007825032230
         H           -5.027699471948     0.002138125800    -0.930665302821     1.007825032230

  Basis Set: AUG-CC-PVTZ
    Blend: AUG-CC-PVTZ
  Basis Set: (AUG-CC-PVTZ AUX)
    Blend: AUG-CC-PVTZ-JKFIT
	 Reference Energy          =   -2193.8677981905439083 [Eh]
	 Singles Energy            =      -0.0000000000000000 [Eh]
	 Same-Spin Energy          =      -0.7056661658824346 [Eh]
	 Opposite-Spin Energy      =      -2.0126839743369218 [Eh]
	 Correlation Energy        =      -2.7183501402193562 [Eh]
	 Total Energy              =   -2196.5861483307630806 [Eh]

	 ================> DF-SCS-MP2 Energies <==================
	-----------------------------------------------------------
	 SCS Same-Spin Scale       =       0.3333333333333333 [-]
	 SCS Opposite-Spin Scale   =       1.2000000000000000 [-]
	 SCS Same-Spin Energy      =      -0.2352220552941449 [Eh]
	 SCS Opposite-Spin Energy  =      -2.4152207692043062 [Eh]
	 SCS Correlation Energy    =      -2.6504428244984508 [Eh]
	 SCS Total Energy          =   -2196.5182410150423493 [Eh]
	-----------------------------------------------------------

  Dipole Moment: [D]
     X:    -4.0052      Y:     0.0645      Z:    -3.0542     Total:     5.0372

*** Psi4 exiting successfully. Buy a developer a beer!
