                               Psi4 1.3.2 release

  ==> Input File <==

--------------------------------------------------------------------------
#psi4
#
memory 32 gb

molecule  {
0 1
 Cl        3.0582810    -0.0000320     0.2153210
 Cl        1.0892650     1.4501210    -1.3457080
 Cl        1.0892300    -1.4499710    -1.3458710
  S        0.2835450    -0.0000560     1.1319340
  O        0.3796434     1.3236639     1.7478851
  O        0.5217120    -1.2850930     1.7898260
  C       -1.3508290    -0.0000210     0.4539040
  C        1.4090800     0.0000190    -0.3971410
  C       -1.9834610    -1.2238950     0.2202880
  C       -1.9834510     1.2238780     0.2203840
  C       -3.2836100    -1.2122960    -0.2842060
  C       -3.2836000     1.2123300    -0.2841110
  C       -3.9288570     0.0000300    -0.5427800
  H       -1.4734280    -2.1539290     0.4522940
  H       -1.4734140     2.1538900     0.4524690
  H       -3.7956980    -2.1526110    -0.4704350
  H       -3.7956790     2.1526630    -0.4702660
  H       -4.9427330     0.0000490    -0.9349330
units angstrom
no_reorient  #important for SAPT in psi4, default
symmetry c1  #important for SAPT in psi4, default
}

set PROPERTIES_ORIGIN ["COM"]
properties('MP2/aug-cc-pvtz', properties = ['dipole'])
--------------------------------------------------------------------------

    Molecular point group: c1
  Charge       = 0
  Multiplicity = 1
  Basis Set: AUG-CC-PVTZ
    Blend: AUG-CC-PVTZ
  Basis Set: (AUG-CC-PVTZ AUX)
    Blend: AUG-CC-PVTZ-JKFIT

    Orbital Energies [Eh]
    ---------------------

    Doubly Occupied:

       1A   -104.883175     2A   -104.882310     3A   -104.879595
       4A    -92.212684     5A    -20.574583     6A    -20.569884
       7A    -11.470418     8A    -11.288610     9A    -11.277578
      10A    -11.277012    11A    -11.274036    12A    -11.264100
      13A    -11.263980    14A    -10.607428    15A    -10.606570
      16A    -10.603741    17A     -9.180962    18A     -8.074216
      19A     -8.073358    20A     -8.071973    21A     -8.071933
      22A     -8.071116    23A     -8.071079    24A     -8.070544
      25A     -8.068242    26A     -8.068210    27A     -6.865641
      28A     -6.865083    29A     -6.864611    30A     -1.464913
      31A     -1.359946    32A     -1.262516    33A     -1.188433
      34A     -1.132561    35A     -1.131204    36A     -1.067571
      37A     -1.048858    38A     -0.958028    39A     -0.869860
      40A     -0.861159    41A     -0.801366    42A     -0.745109
      43A     -0.714474    44A     -0.684681    45A     -0.676762
      46A     -0.654698    47A     -0.648494    48A     -0.639909
      49A     -0.633214    50A     -0.621996    51A     -0.555581
      52A     -0.549315    53A     -0.538410    54A     -0.531235
      55A     -0.524720    56A     -0.520578    57A     -0.517327
      58A     -0.498672    59A     -0.496646    60A     -0.478477
      61A     -0.472528    62A     -0.462817    63A     -0.438463
      64A     -0.377133    65A     -0.365549

  @DF-RHF Final Energy: -2193.86384202482850

   => Energetics <=

    Nuclear Repulsion Energy =           1337.9534624875120699
    One-Electron Energy =               -5687.9428580475105264
    Two-Electron Energy =                2156.1255535351697290
    Total Energy =                      -2193.8638420248285001
  Basis Set: (AUG-CC-PVTZ AUX)
    Blend: AUG-CC-PVTZ-RI
    Molecular point group: c1

    Geometry (in Angstrom), charge = 0, multiplicity = 1:

       Center              X                  Y                   Z               Mass
    ------------   -----------------  -----------------  -----------------  -----------------
         CL           2.987915309874    -0.002435483517     0.223690865924    34.968852682000
         CL           1.018899309874     1.447717516483    -1.337338134076    34.968852682000
         CL           1.018864309874    -1.452374483517    -1.337501134076    34.968852682000
         S            0.213179309874    -0.002459483517     1.140303865924    31.972071174400
         O            0.309277709874     1.321260416483     1.756254965924    15.994914619570
         O            0.451346309874    -1.287496483517     1.798195865924    15.994914619570
         C           -1.421194690126    -0.002424483517     0.462273865924    12.000000000000
         C            1.338714309874    -0.002384483517    -0.388771134076    12.000000000000
         C           -2.053826690126    -1.226298483517     0.228657865924    12.000000000000
         C           -2.053816690126     1.221474516483     0.228753865924    12.000000000000
         C           -3.353975690126    -1.214699483517    -0.275836134076    12.000000000000
         C           -3.353965690126     1.209926516483    -0.275741134076    12.000000000000
         C           -3.999222690126    -0.002373483517    -0.534410134076    12.000000000000
         H           -1.543793690126    -2.156332483517     0.460663865924     1.007825032230
         H           -1.543779690126     2.151486516483     0.460838865924     1.007825032230
         H           -3.866063690126    -2.155014483517    -0.462065134076     1.007825032230
         H           -3.866044690126     2.150259516483    -0.461896134076     1.007825032230
         H           -5.013098690126    -0.002354483517    -0.926563134076     1.007825032230

  Basis Set: AUG-CC-PVTZ
    Blend: AUG-CC-PVTZ
  Basis Set: (AUG-CC-PVTZ AUX)
    Blend: AUG-CC-PVTZ-JKFIT
	 Reference Energy          =   -2193.8638420248285001 [Eh]
	 Singles Energy            =      -0.0000000000000000 [Eh]
	 Same-Spin Energy          =      -0.7063022340635546 [Eh]
	 Opposite-Spin Energy      =      -2.0139946222795500 [Eh]
	 Correlation Energy        =      -2.7202968563431047 [Eh]
	 Total Energy              =   -2196.5841388811713841 [Eh]

	 ================> DF-SCS-MP2 Energies <==================
	-----------------------------------------------------------
	 SCS Same-Spin Scale       =       0.3333333333333333 [-]
	 SCS Opposite-Spin Scale   =       1.2000000000000000 [-]
	 SCS Same-Spin Energy      =      -0.2354340780211849 [Eh]
	 SCS Opposite-Spin Energy  =      -2.4167935467354598 [Eh]
	 SCS Correlation Energy    =      -2.6522276247566445 [Eh]
	 SCS Total Energy          =   -2196.5160696495850061 [Eh]
	-----------------------------------------------------------

  Dipole Moment: [D]
     X:    -3.2337      Y:    -0.0730      Z:    -2.9202     Total:     4.3577

*** Psi4 exiting successfully. Buy a developer a beer!
