                               Psi4 1.3.2 release

  ==> Input File <==

--------------------------------------------------------------------------
#psi4
#
memory 32 gb

molecule  {
0 1
 Cl        3.0582810    -0.0000320     0.2153210
 Cl        1.0892650     1.4501210    -1.3457080
 Cl        1.0892300    -1.4499710    -1.3458710
  S        0.2835450    -0.0000560     1.1319340
  O        0.5293099     1.2725031     1.8109465
  O        0.5217120    -1.2850930     1.7898260
  C       -1.3508290    -0.0000210     0.4539040
  C        1.4090800     0.0000190    -0.3971410
  C       -1.9834610    -1.2238950     0.2202880
  C       -1.9834510     1.2238780     0.2203840
  C       -3.2836100    -1.2122960    -0.2842060
  C       -3.2836000     1.2123300    -0.2841110
  C       -3.9288570     0.0000300    -0.5427800
  H       -1.4734280    -2.1539290     0.4522940
  H       -1.4734140     2.1538900     0.4524690
  H       -3.7956980    -2.1526110    -0.4704350
  H       -3.7956790     2.1526630    -0.4702660
  H       -4.9427330     0.0000490    -0.9349330
units angstrom
no_reorient  #important for SAPT in psi4, default
symmetry c1  #important for SAPT in psi4, default
}

set PROPERTIES_ORIGIN ["COM"]
properties('MP2/aug-cc-pvtz', properties = ['dipole'])
--------------------------------------------------------------------------

    Molecular point group: c1
  Charge       = 0
  Multiplicity = 1
  Basis Set: AUG-CC-PVTZ
    Blend: AUG-CC-PVTZ
  Basis Set: (AUG-CC-PVTZ AUX)
    Blend: AUG-CC-PVTZ-JKFIT

    Orbital Energies [Eh]
    ---------------------

    Doubly Occupied:

       1A   -104.881277     2A   -104.881196     3A   -104.876732
       4A    -92.211395     5A    -20.568668     6A    -20.567353
       7A    -11.467400     8A    -11.295465     9A    -11.282638
      10A    -11.282516    11A    -11.278221    12A    -11.268105
      13A    -11.268021    14A    -10.605587    15A    -10.605491
      16A    -10.600835    17A     -9.179775    18A     -8.072374
      19A     -8.072279    20A     -8.070148    21A     -8.070108
      22A     -8.070051    23A     -8.070010    24A     -8.067641
      25A     -8.065332    26A     -8.065303    27A     -6.864473
      28A     -6.863781    29A     -6.863499    30A     -1.462687
      31A     -1.352855    32A     -1.260445    33A     -1.193448
      34A     -1.131187    35A     -1.128817    36A     -1.073155
      37A     -1.053269    38A     -0.958709    39A     -0.871345
      40A     -0.865592    41A     -0.802652    42A     -0.745063
      43A     -0.713377    44A     -0.686650    45A     -0.676921
      46A     -0.654627    47A     -0.650716    48A     -0.639365
      49A     -0.630787    50A     -0.625518    51A     -0.558920
      52A     -0.547429    53A     -0.542376    54A     -0.533685
      55A     -0.522108    56A     -0.517297    57A     -0.516757
      58A     -0.498663    59A     -0.494288    60A     -0.476258
      61A     -0.470085    62A     -0.460870    63A     -0.437591
      64A     -0.381898    65A     -0.369636

  @DF-RHF Final Energy: -2193.86835360562372

   => Energetics <=

    Nuclear Repulsion Energy =           1337.1182299227443764
    One-Electron Energy =               -5686.2917233142916302
    Two-Electron Energy =                2155.3051397859230747
    Total Energy =                      -2193.8683536056237244
  Basis Set: (AUG-CC-PVTZ AUX)
    Blend: AUG-CC-PVTZ-RI
    Molecular point group: c1

    Geometry (in Angstrom), charge = 0, multiplicity = 1:

       Center              X                  Y                   Z               Mass
    ------------   -----------------  -----------------  -----------------  -----------------
         CL           2.978633291659     0.000737407394     0.219779923505    34.968852682000
         CL           1.009617291659     1.450890407394    -1.341249076495    34.968852682000
         CL           1.009582291659    -1.449201592606    -1.341412076495    34.968852682000
         S            0.203897291659     0.000713407394     1.136392923505    31.972071174400
         O            0.449662191659     1.273272507394     1.815405423505    15.994914619570
         O            0.442064291659    -1.284323592606     1.794284923505    15.994914619570
         C           -1.430476708341     0.000748407394     0.458362923505    12.000000000000
         C            1.329432291659     0.000788407394    -0.392682076495    12.000000000000
         C           -2.063108708341    -1.223125592606     0.224746923505    12.000000000000
         C           -2.063098708341     1.224647407394     0.224842923505    12.000000000000
         C           -3.363257708341    -1.211526592606    -0.279747076495    12.000000000000
         C           -3.363247708341     1.213099407394    -0.279652076495    12.000000000000
         C           -4.008504708341     0.000799407394    -0.538321076495    12.000000000000
         H           -1.553075708341    -2.153159592606     0.456752923505     1.007825032230
         H           -1.553061708341     2.154659407394     0.456927923505     1.007825032230
         H           -3.875345708341    -2.151841592606    -0.465976076495     1.007825032230
         H           -3.875326708341     2.153432407394    -0.465807076495     1.007825032230
         H           -5.022380708341     0.000818407394    -0.930474076495     1.007825032230

  Basis Set: AUG-CC-PVTZ
    Blend: AUG-CC-PVTZ
  Basis Set: (AUG-CC-PVTZ AUX)
    Blend: AUG-CC-PVTZ-JKFIT
	 Reference Energy          =   -2193.8683536056237244 [Eh]
	 Singles Energy            =      -0.0000000000000000 [Eh]
	 Same-Spin Energy          =      -0.7057151197458377 [Eh]
	 Opposite-Spin Energy      =      -2.0128567351954207 [Eh]
	 Correlation Energy        =      -2.7185718549412585 [Eh]
	 Total Energy              =   -2196.5869254605649985 [Eh]

	 ================> DF-SCS-MP2 Energies <==================
	-----------------------------------------------------------
	 SCS Same-Spin Scale       =       0.3333333333333333 [-]
	 SCS Opposite-Spin Scale   =       1.2000000000000000 [-]
	 SCS Same-Spin Energy      =      -0.2352383732486125 [Eh]
	 SCS Opposite-Spin Energy  =      -2.4154280822345049 [Eh]
	 SCS Correlation Energy    =      -2.6506664554831176 [Eh]
	 SCS Total Energy          =   -2196.5190200611068576 [Eh]
	-----------------------------------------------------------

  Dipole Moment: [D]
     X:    -3.7261      Y:     0.0197      Z:    -3.0631     Total:     4.8236

*** Psi4 exiting successfully. Buy a developer a beer!
