                               Psi4 1.3.2 release

  ==> Input File <==

--------------------------------------------------------------------------
#psi4
#
memory 32 gb

molecule  {
0 1
 Cl        3.0582810    -0.0000320     0.2153210
 Cl        1.0892650     1.4501210    -1.3457080
 Cl        1.0892300    -1.4499710    -1.3458710
  S        0.2835450    -0.0000560     1.1319340
  O        0.4746905     1.3510220     1.6600596
  O        0.5217120    -1.2850930     1.7898260
  C       -1.3508290    -0.0000210     0.4539040
  C        1.4090800     0.0000190    -0.3971410
  C       -1.9834610    -1.2238950     0.2202880
  C       -1.9834510     1.2238780     0.2203840
  C       -3.2836100    -1.2122960    -0.2842060
  C       -3.2836000     1.2123300    -0.2841110
  C       -3.9288570     0.0000300    -0.5427800
  H       -1.4734280    -2.1539290     0.4522940
  H       -1.4734140     2.1538900     0.4524690
  H       -3.7956980    -2.1526110    -0.4704350
  H       -3.7956790     2.1526630    -0.4702660
  H       -4.9427330     0.0000490    -0.9349330
units angstrom
no_reorient  #important for SAPT in psi4, default
symmetry c1  #important for SAPT in psi4, default
}

set PROPERTIES_ORIGIN ["COM"]
properties('MP2/aug-cc-pvtz', properties = ['dipole'])
--------------------------------------------------------------------------

    Molecular point group: c1
  Charge       = 0
  Multiplicity = 1
  Basis Set: AUG-CC-PVTZ
    Blend: AUG-CC-PVTZ
  Basis Set: (AUG-CC-PVTZ AUX)
    Blend: AUG-CC-PVTZ-JKFIT

    Orbital Energies [Eh]
    ---------------------

    Doubly Occupied:

       1A   -104.878852     2A   -104.878306     3A   -104.875989
       4A    -92.213852     5A    -20.578060     6A    -20.570208
       7A    -11.464508     8A    -11.291731     9A    -11.280093
      10A    -11.279483    11A    -11.276271    12A    -11.265962
      13A    -11.265782    14A    -10.603217    15A    -10.602596
      16A    -10.600148    17A     -9.181957    18A     -8.070006
      19A     -8.069383    20A     -8.067789    21A     -8.067755
      22A     -8.067156    23A     -8.067114    24A     -8.066953
      25A     -8.064661    26A     -8.064629    27A     -6.866682
      28A     -6.866115    29A     -6.865596    30A     -1.465982
      31A     -1.363113    32A     -1.258036    33A     -1.190747
      34A     -1.128711    35A     -1.127555    36A     -1.069752
      37A     -1.050924    38A     -0.955824    39A     -0.870010
      40A     -0.863220    41A     -0.801909    42A     -0.745699
      43A     -0.714036    44A     -0.686041    45A     -0.677906
      46A     -0.654213    47A     -0.649124    48A     -0.637784
      49A     -0.633338    50A     -0.623876    51A     -0.557272
      52A     -0.546965    53A     -0.539955    54A     -0.532648
      55A     -0.526526    56A     -0.520042    57A     -0.514938
      58A     -0.499417    59A     -0.496707    60A     -0.475110
      61A     -0.469190    62A     -0.459200    63A     -0.435825
      64A     -0.379693    65A     -0.367436

  @DF-RHF Final Energy: -2193.86361963290938

   => Energetics <=

    Nuclear Repulsion Energy =           1339.3220795319152785
    One-Electron Energy =               -5690.7722416076394438
    Two-Electron Energy =                2157.5865424428143342
    Total Energy =                      -2193.8636196329093764
  Basis Set: (AUG-CC-PVTZ AUX)
    Blend: AUG-CC-PVTZ-RI
    Molecular point group: c1

    Geometry (in Angstrom), charge = 0, multiplicity = 1:

       Center              X                  Y                   Z               Mass
    ------------   -----------------  -----------------  -----------------  -----------------
         CL           2.982020678052    -0.004132178385     0.229137628497    34.968852682000
         CL           1.013004678052     1.446020821615    -1.331891371503    34.968852682000
         CL           1.012969678052    -1.454071178385    -1.332054371503    34.968852682000
         S            0.207284678052    -0.004156178385     1.145750628497    31.972071174400
         O            0.398430178052     1.346921821615     1.673876228497    15.994914619570
         O            0.445451678052    -1.289193178385     1.803642628497    15.994914619570
         C           -1.427089321948    -0.004121178385     0.467720628497    12.000000000000
         C            1.332819678052    -0.004081178385    -0.383324371503    12.000000000000
         C           -2.059721321948    -1.227995178385     0.234104628497    12.000000000000
         C           -2.059711321948     1.219777821615     0.234200628497    12.000000000000
         C           -3.359870321948    -1.216396178385    -0.270389371503    12.000000000000
         C           -3.359860321948     1.208229821615    -0.270294371503    12.000000000000
         C           -4.005117321948    -0.004070178385    -0.528963371503    12.000000000000
         H           -1.549688321948    -2.158029178385     0.466110628497     1.007825032230
         H           -1.549674321948     2.149789821615     0.466285628497     1.007825032230
         H           -3.871958321948    -2.156711178385    -0.456618371503     1.007825032230
         H           -3.871939321948     2.148562821615    -0.456449371503     1.007825032230
         H           -5.018993321948    -0.004051178385    -0.921116371503     1.007825032230

  Basis Set: AUG-CC-PVTZ
    Blend: AUG-CC-PVTZ
  Basis Set: (AUG-CC-PVTZ AUX)
    Blend: AUG-CC-PVTZ-JKFIT
	 Reference Energy          =   -2193.8636196329093764 [Eh]
	 Singles Energy            =      -0.0000000000000000 [Eh]
	 Same-Spin Energy          =      -0.7065105789400129 [Eh]
	 Opposite-Spin Energy      =      -2.0141832061783278 [Eh]
	 Correlation Energy        =      -2.7206937851183408 [Eh]
	 Total Energy              =   -2196.5843134180277048 [Eh]

	 ================> DF-SCS-MP2 Energies <==================
	-----------------------------------------------------------
	 SCS Same-Spin Scale       =       0.3333333333333333 [-]
	 SCS Opposite-Spin Scale   =       1.2000000000000000 [-]
	 SCS Same-Spin Energy      =      -0.2355035263133376 [Eh]
	 SCS Opposite-Spin Energy  =      -2.4170198474139934 [Eh]
	 SCS Correlation Energy    =      -2.6525233737273313 [Eh]
	 SCS Total Energy          =   -2196.5161430066368666 [Eh]
	-----------------------------------------------------------

  Dipole Moment: [D]
     X:    -3.5794      Y:    -0.1004      Z:    -2.6738     Total:     4.4690

*** Psi4 exiting successfully. Buy a developer a beer!
