                               Psi4 1.3.2 release

  ==> Input File <==

--------------------------------------------------------------------------
#psi4
#
memory 32 gb

molecule  {
0 1
 Cl        3.0582810    -0.0000320     0.2153210
 Cl        1.0892650     1.4501210    -1.3457080
 Cl        1.0892300    -1.4499710    -1.3458710
  S        0.2835450    -0.0000560     1.1319340
  O        0.5685659     1.2688407     1.8024034
  O        0.5217120    -1.2850930     1.7898260
  C       -1.3508290    -0.0000210     0.4539040
  C        1.4090800     0.0000190    -0.3971410
  C       -1.9834610    -1.2238950     0.2202880
  C       -1.9834510     1.2238780     0.2203840
  C       -3.2836100    -1.2122960    -0.2842060
  C       -3.2836000     1.2123300    -0.2841110
  C       -3.9288570     0.0000300    -0.5427800
  H       -1.4734280    -2.1539290     0.4522940
  H       -1.4734140     2.1538900     0.4524690
  H       -3.7956980    -2.1526110    -0.4704350
  H       -3.7956790     2.1526630    -0.4702660
  H       -4.9427330     0.0000490    -0.9349330
units angstrom
no_reorient  #important for SAPT in psi4, default
symmetry c1  #important for SAPT in psi4, default
}

set PROPERTIES_ORIGIN ["COM"]
properties('MP2/aug-cc-pvtz', properties = ['dipole'])
--------------------------------------------------------------------------

    Molecular point group: c1
  Charge       = 0
  Multiplicity = 1
  Basis Set: AUG-CC-PVTZ
    Blend: AUG-CC-PVTZ
  Basis Set: (AUG-CC-PVTZ AUX)
    Blend: AUG-CC-PVTZ-JKFIT

    Orbital Energies [Eh]
    ---------------------

    Doubly Occupied:

       1A   -104.880416     2A   -104.880099     3A   -104.875599
       4A    -92.211423     5A    -20.568502     6A    -20.567014
       7A    -11.465871     8A    -11.296984     9A    -11.283809
      10A    -11.283619    11A    -11.279168    12A    -11.268964
      13A    -11.268881    14A    -10.604737    15A    -10.604421
      16A    -10.599700    17A     -9.179800    18A     -8.071525
      19A     -8.071210    20A     -8.069304    21A     -8.069263
      22A     -8.068988    23A     -8.068948    24A     -8.066506
      25A     -8.064198    26A     -8.064169    27A     -6.864509
      28A     -6.863800    29A     -6.863525    30A     -1.462631
      31A     -1.352476    32A     -1.259309    33A     -1.194524
      34A     -1.130289    35A     -1.127764    36A     -1.074271
      37A     -1.054225    38A     -0.958460    39A     -0.871494
      40A     -0.866565    41A     -0.802952    42A     -0.745153
      43A     -0.713226    44A     -0.687095    45A     -0.677271
      46A     -0.654356    47A     -0.651233    48A     -0.638744
      49A     -0.630599    50A     -0.626228    51A     -0.559811
      52A     -0.546652    53A     -0.543147    54A     -0.534500
      55A     -0.521509    56A     -0.517153    57A     -0.516018
      58A     -0.498834    59A     -0.493799    60A     -0.475273
      61A     -0.469181    62A     -0.459920    63A     -0.436876
      64A     -0.382937    65A     -0.370508

  @DF-RHF Final Energy: -2193.86828570728221

   => Energetics <=

    Nuclear Repulsion Energy =           1337.3021559471883393
    One-Electron Energy =               -5686.6810140167926875
    Two-Electron Energy =                2155.5105723623223639
    Total Energy =                      -2193.8682857072822117
  Basis Set: (AUG-CC-PVTZ AUX)
    Blend: AUG-CC-PVTZ-RI
    Molecular point group: c1

    Geometry (in Angstrom), charge = 0, multiplicity = 1:

       Center              X                  Y                   Z               Mass
    ------------   -----------------  -----------------  -----------------  -----------------
         CL           2.976198712731     0.000964542147     0.220309749550    34.968852682000
         CL           1.007182712731     1.451117542147    -1.340719250450    34.968852682000
         CL           1.007147712731    -1.448974457853    -1.340882250450    34.968852682000
         S            0.201462712731     0.000940542147     1.136922749550    31.972071174400
         O            0.486483612731     1.269837242147     1.807392149550    15.994914619570
         O            0.439629712731    -1.284096457853     1.794814749550    15.994914619570
         C           -1.432911287269     0.000975542147     0.458892749550    12.000000000000
         C            1.326997712731     0.001015542147    -0.392152250450    12.000000000000
         C           -2.065543287269    -1.222898457853     0.225276749550    12.000000000000
         C           -2.065533287269     1.224874542147     0.225372749550    12.000000000000
         C           -3.365692287269    -1.211299457853    -0.279217250450    12.000000000000
         C           -3.365682287269     1.213326542147    -0.279122250450    12.000000000000
         C           -4.010939287269     0.001026542147    -0.537791250450    12.000000000000
         H           -1.555510287269    -2.152932457853     0.457282749550     1.007825032230
         H           -1.555496287269     2.154886542147     0.457457749550     1.007825032230
         H           -3.877780287269    -2.151614457853    -0.465446250450     1.007825032230
         H           -3.877761287269     2.153659542147    -0.465277250450     1.007825032230
         H           -5.024815287269     0.001045542147    -0.929944250450     1.007825032230

  Basis Set: AUG-CC-PVTZ
    Blend: AUG-CC-PVTZ
  Basis Set: (AUG-CC-PVTZ AUX)
    Blend: AUG-CC-PVTZ-JKFIT
	 Reference Energy          =   -2193.8682857072822117 [Eh]
	 Singles Energy            =      -0.0000000000000000 [Eh]
	 Same-Spin Energy          =      -0.7057143048197503 [Eh]
	 Opposite-Spin Energy      =      -2.0128036998632273 [Eh]
	 Correlation Energy        =      -2.7185180046829776 [Eh]
	 Total Energy              =   -2196.5868037119653309 [Eh]

	 ================> DF-SCS-MP2 Energies <==================
	-----------------------------------------------------------
	 SCS Same-Spin Scale       =       0.3333333333333333 [-]
	 SCS Opposite-Spin Scale   =       1.2000000000000000 [-]
	 SCS Same-Spin Energy      =      -0.2352381016065834 [Eh]
	 SCS Opposite-Spin Energy  =      -2.4153644398358725 [Eh]
	 SCS Correlation Energy    =      -2.6506025414424559 [Eh]
	 SCS Total Energy          =   -2196.5188882487245792 [Eh]
	-----------------------------------------------------------

  Dipole Moment: [D]
     X:    -3.8572      Y:     0.0308      Z:    -3.0330     Total:     4.9069

*** Psi4 exiting successfully. Buy a developer a beer!
