                               Psi4 1.3.2 release

  ==> Input File <==

--------------------------------------------------------------------------
#psi4
#
memory 32 gb

molecule  {
0 1
 Cl        3.0582810    -0.0000320     0.2153210
 Cl        1.0892650     1.4501210    -1.3457080
 Cl        1.0892300    -1.4499710    -1.3458710
  S        0.2835450    -0.0000560     1.1319340
  O        0.5385241     1.2908969     1.7716927
  O        0.5217120    -1.2850930     1.7898260
  C       -1.3508290    -0.0000210     0.4539040
  C        1.4090800     0.0000190    -0.3971410
  C       -1.9834610    -1.2238950     0.2202880
  C       -1.9834510     1.2238780     0.2203840
  C       -3.2836100    -1.2122960    -0.2842060
  C       -3.2836000     1.2123300    -0.2841110
  C       -3.9288570     0.0000300    -0.5427800
  H       -1.4734280    -2.1539290     0.4522940
  H       -1.4734140     2.1538900     0.4524690
  H       -3.7956980    -2.1526110    -0.4704350
  H       -3.7956790     2.1526630    -0.4702660
  H       -4.9427330     0.0000490    -0.9349330
units angstrom
no_reorient  #important for SAPT in psi4, default
symmetry c1  #important for SAPT in psi4, default
}

set PROPERTIES_ORIGIN ["COM"]
properties('MP2/aug-cc-pvtz', properties = ['dipole'])
--------------------------------------------------------------------------

    Molecular point group: c1
  Charge       = 0
  Multiplicity = 1
  Basis Set: AUG-CC-PVTZ
    Blend: AUG-CC-PVTZ
  Basis Set: (AUG-CC-PVTZ AUX)
    Blend: AUG-CC-PVTZ-JKFIT

    Orbital Energies [Eh]
    ---------------------

    Doubly Occupied:

       1A   -104.880122     2A   -104.880048     3A   -104.875934
       4A    -92.212035     5A    -20.569776     6A    -20.569031
       7A    -11.465871     8A    -11.295457     9A    -11.282628
      10A    -11.282555    11A    -11.278312    12A    -11.268094
      13A    -11.268012    14A    -10.604433    15A    -10.604375
      16A    -10.600049    17A     -9.180334    18A     -8.071221
      19A     -8.071163    20A     -8.068997    21A     -8.068956
      22A     -8.068941    23A     -8.068903    24A     -8.066854
      25A     -8.064550    26A     -8.064520    27A     -6.865046
      28A     -6.864373    29A     -6.864044    30A     -1.463395
      31A     -1.355187    32A     -1.259263    33A     -1.193445
      34A     -1.130101    35A     -1.127964    36A     -1.073018
      37A     -1.053277    38A     -0.957886    39A     -0.871127
      40A     -0.865599    41A     -0.802641    42A     -0.745247
      43A     -0.713423    44A     -0.686790    45A     -0.677309
      46A     -0.654380    47A     -0.650658    48A     -0.638664
      49A     -0.631348    50A     -0.625616    51A     -0.558985
      52A     -0.546879    53A     -0.542268    54A     -0.533752
      55A     -0.522535    56A     -0.517839    57A     -0.516465
      58A     -0.498551    59A     -0.495349    60A     -0.475454
      61A     -0.469548    62A     -0.459986    63A     -0.436796
      64A     -0.381988    65A     -0.369632

  @DF-RHF Final Energy: -2193.86799951207058

   => Energetics <=

    Nuclear Repulsion Energy =           1337.6947481337153931
    One-Electron Energy =               -5687.4714976594596010
    Two-Electron Energy =                2155.9087500136733979
    Total Energy =                      -2193.8679995120705826
  Basis Set: (AUG-CC-PVTZ AUX)
    Blend: AUG-CC-PVTZ-RI
    Molecular point group: c1

    Geometry (in Angstrom), charge = 0, multiplicity = 1:

       Center              X                  Y                   Z               Mass
    ------------   -----------------  -----------------  -----------------  -----------------
         CL           2.978061845328    -0.000403339444     0.222214365993    34.968852682000
         CL           1.009045845328     1.449749660556    -1.338814634007    34.968852682000
         CL           1.009010845328    -1.450342339444    -1.338977634007    34.968852682000
         S            0.203325845328    -0.000427339444     1.138827365993    31.972071174400
         O            0.458304945328     1.290525560556     1.778586065993    15.994914619570
         O            0.441492845328    -1.285464339444     1.796719365993    15.994914619570
         C           -1.431048154672    -0.000392339444     0.460797365993    12.000000000000
         C            1.328860845328    -0.000352339444    -0.390247634007    12.000000000000
         C           -2.063680154672    -1.224266339444     0.227181365993    12.000000000000
         C           -2.063670154672     1.223506660556     0.227277365993    12.000000000000
         C           -3.363829154672    -1.212667339444    -0.277312634007    12.000000000000
         C           -3.363819154672     1.211958660556    -0.277217634007    12.000000000000
         C           -4.009076154672    -0.000341339444    -0.535886634007    12.000000000000
         H           -1.553647154672    -2.154300339444     0.459187365993     1.007825032230
         H           -1.553633154672     2.153518660556     0.459362365993     1.007825032230
         H           -3.875917154672    -2.152982339444    -0.463541634007     1.007825032230
         H           -3.875898154672     2.152291660556    -0.463372634007     1.007825032230
         H           -5.022952154672    -0.000322339444    -0.928039634007     1.007825032230

  Basis Set: AUG-CC-PVTZ
    Blend: AUG-CC-PVTZ
  Basis Set: (AUG-CC-PVTZ AUX)
    Blend: AUG-CC-PVTZ-JKFIT
	 Reference Energy          =   -2193.8679995120705826 [Eh]
	 Singles Energy            =      -0.0000000000000000 [Eh]
	 Same-Spin Energy          =      -0.7058551403083876 [Eh]
	 Opposite-Spin Energy      =      -2.0130510094605825 [Eh]
	 Correlation Energy        =      -2.7189061497689702 [Eh]
	 Total Energy              =   -2196.5869056618394097 [Eh]

	 ================> DF-SCS-MP2 Energies <==================
	-----------------------------------------------------------
	 SCS Same-Spin Scale       =       0.3333333333333333 [-]
	 SCS Opposite-Spin Scale   =       1.2000000000000000 [-]
	 SCS Same-Spin Energy      =      -0.2352850467694625 [Eh]
	 SCS Opposite-Spin Energy  =      -2.4156612113526990 [Eh]
	 SCS Correlation Energy    =      -2.6509462581221617 [Eh]
	 SCS Total Energy          =   -2196.5189457701926585 [Eh]
	-----------------------------------------------------------

  Dipole Moment: [D]
     X:    -3.7660      Y:    -0.0063      Z:    -2.9575     Total:     4.7885

*** Psi4 exiting successfully. Buy a developer a beer!
