                               Psi4 1.3.2 release

  ==> Input File <==

--------------------------------------------------------------------------
#psi4
#
memory 32 gb

molecule  {
0 1
  N       -0.0163110    -1.1135150     0.2687020
  C       -1.4287550    -0.3756918     0.0526750
  C        1.2381220    -0.5006260     0.1304260
  C       -2.4182660    -1.1561390     0.4533410
  C        2.2667570    -1.1558630    -0.5622090
  C       -1.3663670     0.8217430    -0.4624040
  C        1.5092770     0.7278700     0.7556340
  C       -3.6714090    -0.5759060     0.2727570
  C        3.5406120    -0.5923050    -0.6332660
  C       -2.6261210     1.4012190    -0.6198330
  C        2.7778010     1.2960600     0.6560260
  C       -3.7841190     0.7131400    -0.2541910
  C        3.8015860     0.6410890    -0.0341290
  H       -0.0267310    -2.1016380     0.0386100
  H       -2.3298760    -2.1493130     0.8905540
  H        2.0612250    -2.1062600    -1.0527600
  H       -0.4782440     1.3547320    -0.7878460
  H        0.7296610     1.2176160     1.3328820
  H       -4.5621930    -1.1275980     0.5644400
  H        4.3269750    -1.1156860    -1.1722660
  H       -2.6987240     2.4001080    -1.0444480
  H        2.9731640     2.2486720     1.1432600
  H       -4.7609150     1.1715970    -0.3832790
  H        4.7911470     1.0854140    -0.1002240
units angstrom
no_reorient  #important for SAPT in psi4, default
symmetry c1  #important for SAPT in psi4, default
}

set PROPERTIES_ORIGIN ["COM"]
properties('MP2/aug-cc-pvtz', properties = ['dipole'])
--------------------------------------------------------------------------

    Molecular point group: c1
  Charge       = 0
  Multiplicity = 1
  Basis Set: AUG-CC-PVTZ
    Blend: AUG-CC-PVTZ
  Basis Set: (AUG-CC-PVTZ AUX)
    Blend: AUG-CC-PVTZ-JKFIT

    Orbital Energies [Eh]
    ---------------------

    Doubly Occupied:

       1A    -15.560051     2A    -11.280454     3A    -11.272875
       4A    -11.247859     5A    -11.247430     6A    -11.236561
       7A    -11.234702     8A    -11.233607     9A    -11.233429
      10A    -11.229719    11A    -11.223336    12A    -11.221457
      13A    -11.220274    14A     -1.224219    15A     -1.170277
      16A     -1.117291    17A     -1.039440    18A     -1.025339
      19A     -1.007778    20A     -0.968554    21A     -0.853039
      22A     -0.828446    23A     -0.820849    24A     -0.794757
      25A     -0.716706    26A     -0.696807    27A     -0.664862
      28A     -0.647925    29A     -0.639957    30A     -0.622731
      31A     -0.607159    32A     -0.587081    33A     -0.581281
      34A     -0.577244    35A     -0.540977    36A     -0.520343
      37A     -0.513149    38A     -0.508134    39A     -0.492431
      40A     -0.474497    41A     -0.434178    42A     -0.351736
      43A     -0.348018    44A     -0.332926    45A     -0.282714

  @DF-RHF Final Energy:  -515.40080639800453

   => Energetics <=

    Nuclear Repulsion Energy =            695.3608028266933161
    One-Electron Energy =               -2076.6580202288860164
    Two-Electron Energy =                 865.8964110041881668
    Total Energy =                       -515.4008063980045335
  Basis Set: (AUG-CC-PVTZ AUX)
    Blend: AUG-CC-PVTZ-RI
    Molecular point group: c1

    Geometry (in Angstrom), charge = 0, multiplicity = 1:

       Center              X                  Y                   Z               Mass
    ------------   -----------------  -----------------  -----------------  -----------------
         N           -0.003694580224    -1.114857256694     0.267252869195    14.003074004430
         C           -1.416138580224    -0.377034056694     0.051225869195    12.000000000000
         C            1.250738419776    -0.501968256694     0.128976869195    12.000000000000
         C           -2.405649580224    -1.157481256694     0.451891869195    12.000000000000
         C            2.279373419776    -1.157205256694    -0.563658130805    12.000000000000
         C           -1.353750580224     0.820400743306    -0.463853130805    12.000000000000
         C            1.521893419776     0.726527743306     0.754184869195    12.000000000000
         C           -3.658792580224    -0.577248256694     0.271307869195    12.000000000000
         C            3.553228419776    -0.593647256694    -0.634715130805    12.000000000000
         C           -2.613504580224     1.399876743306    -0.621282130805    12.000000000000
         C            2.790417419776     1.294717743306     0.654576869195    12.000000000000
         C           -3.771502580224     0.711797743306    -0.255640130805    12.000000000000
         C            3.814202419776     0.639746743306    -0.035578130805    12.000000000000
         H           -0.014114580224    -2.102980256694     0.037160869195     1.007825032230
         H           -2.317259580224    -2.150655256694     0.889104869195     1.007825032230
         H            2.073841419776    -2.107602256694    -1.054209130805     1.007825032230
         H           -0.465627580224     1.353389743306    -0.789295130805     1.007825032230
         H            0.742277419776     1.216273743306     1.331432869195     1.007825032230
         H           -4.549576580224    -1.128940256694     0.562990869195     1.007825032230
         H            4.339591419776    -1.117028256694    -1.173715130805     1.007825032230
         H           -2.686107580224     2.398765743306    -1.045897130805     1.007825032230
         H            2.985780419776     2.247329743306     1.141810869195     1.007825032230
         H           -4.748298580224     1.170254743306    -0.384728130805     1.007825032230
         H            4.803763419776     1.084071743306    -0.101673130805     1.007825032230

  Basis Set: AUG-CC-PVTZ
    Blend: AUG-CC-PVTZ
  Basis Set: (AUG-CC-PVTZ AUX)
    Blend: AUG-CC-PVTZ-JKFIT
	 Reference Energy          =    -515.4008063980045335 [Eh]
	 Singles Energy            =      -0.0000000000000000 [Eh]
	 Same-Spin Energy          =      -0.5802822042832045 [Eh]
	 Opposite-Spin Energy      =      -1.7974956872344037 [Eh]
	 Correlation Energy        =      -2.3777778915176082 [Eh]
	 Total Energy              =    -517.7785842895220867 [Eh]

	 ================> DF-SCS-MP2 Energies <==================
	-----------------------------------------------------------
	 SCS Same-Spin Scale       =       0.3333333333333333 [-]
	 SCS Opposite-Spin Scale   =       1.2000000000000000 [-]
	 SCS Same-Spin Energy      =      -0.1934274014277348 [Eh]
	 SCS Opposite-Spin Energy  =      -2.1569948246812842 [Eh]
	 SCS Correlation Energy    =      -2.3504222261090191 [Eh]
	 SCS Total Energy          =    -517.7512286241135371 [Eh]
	-----------------------------------------------------------

  Dipole Moment: [D]
     X:    -1.3403      Y:    -0.3772      Z:    -0.4881     Total:     1.4754

*** Psi4 exiting successfully. Buy a developer a beer!
