                               Psi4 1.3.2 release

  ==> Input File <==

--------------------------------------------------------------------------
#psi4
#
memory 32 gb

molecule  {
0 1
  N       -0.0163110    -1.1135150     0.2687020
  C       -1.2530910    -0.4674540     0.0795420
  C        1.2381220    -0.5006260     0.1304260
  C       -2.2523047    -1.0580464     0.4000991
  C        2.2667570    -1.1558630    -0.5622090
  C       -1.3663670     0.8217430    -0.4624040
  C        1.5092770     0.7278700     0.7556340
  C       -3.6714090    -0.5759060     0.2727570
  C        3.5406120    -0.5923050    -0.6332660
  C       -2.6261210     1.4012190    -0.6198330
  C        2.7778010     1.2960600     0.6560260
  C       -3.7841190     0.7131400    -0.2541910
  C        3.8015860     0.6410890    -0.0341290
  H       -0.0267310    -2.1016380     0.0386100
  H       -2.3298760    -2.1493130     0.8905540
  H        2.0612250    -2.1062600    -1.0527600
  H       -0.4782440     1.3547320    -0.7878460
  H        0.7296610     1.2176160     1.3328820
  H       -4.5621930    -1.1275980     0.5644400
  H        4.3269750    -1.1156860    -1.1722660
  H       -2.6987240     2.4001080    -1.0444480
  H        2.9731640     2.2486720     1.1432600
  H       -4.7609150     1.1715970    -0.3832790
  H        4.7911470     1.0854140    -0.1002240
units angstrom
no_reorient  #important for SAPT in psi4, default
symmetry c1  #important for SAPT in psi4, default
}

set PROPERTIES_ORIGIN ["COM"]
properties('MP2/aug-cc-pvtz', properties = ['dipole'])
--------------------------------------------------------------------------

    Molecular point group: c1
  Charge       = 0
  Multiplicity = 1
  Basis Set: AUG-CC-PVTZ
    Blend: AUG-CC-PVTZ
  Basis Set: (AUG-CC-PVTZ AUX)
    Blend: AUG-CC-PVTZ-JKFIT

    Orbital Energies [Eh]
    ---------------------

    Doubly Occupied:

       1A    -15.572279     2A    -11.280950     3A    -11.255143
       4A    -11.250718     5A    -11.239458     6A    -11.239155
       7A    -11.238995     8A    -11.234738     9A    -11.231971
      10A    -11.231312    11A    -11.228921    12A    -11.227157
      13A    -11.224494    14A     -1.265309    15A     -1.161798
      16A     -1.126529    17A     -1.043845    18A     -1.015466
      19A     -0.999185    20A     -0.979549    21A     -0.855345
      22A     -0.836296    23A     -0.816468    24A     -0.793571
      25A     -0.720349    26A     -0.702962    27A     -0.676553
      28A     -0.649255    29A     -0.636656    30A     -0.626112
      31A     -0.605275    32A     -0.593292    33A     -0.585123
      34A     -0.570887    35A     -0.547324    36A     -0.523728
      37A     -0.508088    38A     -0.506214    39A     -0.494664
      40A     -0.466085    41A     -0.446718    42A     -0.357402
      43A     -0.339485    44A     -0.324667    45A     -0.288819

  @DF-RHF Final Energy:  -515.38071086697903

   => Energetics <=

    Nuclear Repulsion Energy =            698.7036337963278356
    One-Electron Energy =               -2083.1320703661449443
    Two-Electron Energy =                 869.0477257028381928
    Total Energy =                       -515.3807108669790296
  Basis Set: (AUG-CC-PVTZ AUX)
    Blend: AUG-CC-PVTZ-RI
    Molecular point group: c1

    Geometry (in Angstrom), charge = 0, multiplicity = 1:

       Center              X                  Y                   Z               Mass
    ------------   -----------------  -----------------  -----------------  -----------------
         N           -0.027939208668    -1.115306515563     0.269124655771    14.003074004430
         C           -1.264719208668    -0.469245515563     0.079964655771    12.000000000000
         C            1.226493791332    -0.502417515563     0.130848655771    12.000000000000
         C           -2.263932908668    -1.059837915563     0.400521755771    12.000000000000
         C            2.255128791332    -1.157654515563    -0.561786344229    12.000000000000
         C           -1.377995208668     0.819951484437    -0.461981344229    12.000000000000
         C            1.497648791332     0.726078484437     0.756056655771    12.000000000000
         C           -3.683037208668    -0.577697515563     0.273179655771    12.000000000000
         C            3.528983791332    -0.594096515563    -0.632843344229    12.000000000000
         C           -2.637749208668     1.399427484437    -0.619410344229    12.000000000000
         C            2.766172791332     1.294268484437     0.656448655771    12.000000000000
         C           -3.795747208668     0.711348484437    -0.253768344229    12.000000000000
         C            3.789957791332     0.639297484437    -0.033706344229    12.000000000000
         H           -0.038359208668    -2.103429515563     0.039032655771     1.007825032230
         H           -2.341504208668    -2.151104515563     0.890976655771     1.007825032230
         H            2.049596791332    -2.108051515563    -1.052337344229     1.007825032230
         H           -0.489872208668     1.352940484437    -0.787423344229     1.007825032230
         H            0.718032791332     1.215824484437     1.333304655771     1.007825032230
         H           -4.573821208668    -1.129389515563     0.564862655771     1.007825032230
         H            4.315346791332    -1.117477515563    -1.171843344229     1.007825032230
         H           -2.710352208668     2.398316484437    -1.044025344229     1.007825032230
         H            2.961535791332     2.246880484437     1.143682655771     1.007825032230
         H           -4.772543208668     1.169805484437    -0.382856344229     1.007825032230
         H            4.779518791332     1.083622484437    -0.099801344229     1.007825032230

  Basis Set: AUG-CC-PVTZ
    Blend: AUG-CC-PVTZ
  Basis Set: (AUG-CC-PVTZ AUX)
    Blend: AUG-CC-PVTZ-JKFIT
	 Reference Energy          =    -515.3807108669790296 [Eh]
	 Singles Energy            =      -0.0000000000000000 [Eh]
	 Same-Spin Energy          =      -0.5794583865670828 [Eh]
	 Opposite-Spin Energy      =      -1.7978226340351533 [Eh]
	 Correlation Energy        =      -2.3772810206022363 [Eh]
	 Total Energy              =    -517.7579918875812837 [Eh]

	 ================> DF-SCS-MP2 Energies <==================
	-----------------------------------------------------------
	 SCS Same-Spin Scale       =       0.3333333333333333 [-]
	 SCS Opposite-Spin Scale   =       1.2000000000000000 [-]
	 SCS Same-Spin Energy      =      -0.1931527955223609 [Eh]
	 SCS Opposite-Spin Energy  =      -2.1573871608421840 [Eh]
	 SCS Correlation Energy    =      -2.3505399563645448 [Eh]
	 SCS Total Energy          =    -517.7312508233435437 [Eh]
	-----------------------------------------------------------

  Dipole Moment: [D]
     X:    -0.3126      Y:    -0.5170      Z:    -0.4194     Total:     0.7355

*** Psi4 exiting successfully. Buy a developer a beer!
