                               Psi4 1.3.2 release

  ==> Input File <==

--------------------------------------------------------------------------
#psi4
#
memory 32 gb

molecule  {
0 1
  N       -0.0163110    -1.1135150     0.2687020
  C       -1.2325329    -0.4254998     0.0948045
  C        1.2381220    -0.5006260     0.1304260
  C       -2.4182660    -1.1561390     0.4533410
  C        2.2667570    -1.1558630    -0.5622090
  C       -1.3663670     0.8217430    -0.4624040
  C        1.5092770     0.7278700     0.7556340
  C       -3.6714090    -0.5759060     0.2727570
  C        3.5406120    -0.5923050    -0.6332660
  C       -2.6261210     1.4012190    -0.6198330
  C        2.7778010     1.2960600     0.6560260
  C       -3.7841190     0.7131400    -0.2541910
  C        3.8015860     0.6410890    -0.0341290
  H       -0.0267310    -2.1016380     0.0386100
  H       -2.3298760    -2.1493130     0.8905540
  H        2.0612250    -2.1062600    -1.0527600
  H       -0.4782440     1.3547320    -0.7878460
  H        0.7296610     1.2176160     1.3328820
  H       -4.5621930    -1.1275980     0.5644400
  H        4.3269750    -1.1156860    -1.1722660
  H       -2.6987240     2.4001080    -1.0444480
  H        2.9731640     2.2486720     1.1432600
  H       -4.7609150     1.1715970    -0.3832790
  H        4.7911470     1.0854140    -0.1002240
units angstrom
no_reorient  #important for SAPT in psi4, default
symmetry c1  #important for SAPT in psi4, default
}

set PROPERTIES_ORIGIN ["COM"]
properties('MP2/aug-cc-pvtz', properties = ['dipole'])
--------------------------------------------------------------------------

    Molecular point group: c1
  Charge       = 0
  Multiplicity = 1
  Basis Set: AUG-CC-PVTZ
    Blend: AUG-CC-PVTZ
  Basis Set: (AUG-CC-PVTZ AUX)
    Blend: AUG-CC-PVTZ-JKFIT

    Orbital Energies [Eh]
    ---------------------

    Doubly Occupied:

       1A    -15.580844     2A    -11.284750     3A    -11.282758
       4A    -11.240926     5A    -11.240269     6A    -11.239260
       7A    -11.239181     8A    -11.234308     9A    -11.233577
      10A    -11.230725    11A    -11.228988    12A    -11.226818
      13A    -11.225074    14A     -1.261831    15A     -1.151292
      16A     -1.126753    17A     -1.023166    18A     -1.018000
      19A     -1.013186    20A     -0.972309    21A     -0.845150
      22A     -0.840819    23A     -0.821850    24A     -0.793182
      25A     -0.715917    26A     -0.709636    27A     -0.678157
      28A     -0.657855    29A     -0.628538    30A     -0.620958
      31A     -0.599874    32A     -0.594333    33A     -0.587130
      34A     -0.583982    35A     -0.542037    36A     -0.520809
      37A     -0.508568    38A     -0.503607    39A     -0.494793
      40A     -0.489726    41A     -0.448756    42A     -0.343812
      43A     -0.339246    44A     -0.335285    45A     -0.280546

  @DF-RHF Final Energy:  -515.43982238859212

   => Energetics <=

    Nuclear Repulsion Energy =            695.4093161667560707
    One-Electron Energy =               -2076.6211120327093340
    Two-Electron Energy =                 865.7719734773611435
    Total Energy =                       -515.4398223885921198
  Basis Set: (AUG-CC-PVTZ AUX)
    Blend: AUG-CC-PVTZ-RI
    Molecular point group: c1

    Geometry (in Angstrom), charge = 0, multiplicity = 1:

       Center              X                  Y                   Z               Mass
    ------------   -----------------  -----------------  -----------------  -----------------
         N           -0.017620164503    -1.111322458617     0.264263002595    14.003074004430
         C           -1.233842064503    -0.423307258617     0.090365502595    12.000000000000
         C            1.236812835497    -0.498433458617     0.125987002595    12.000000000000
         C           -2.419575164503    -1.153946458617     0.448902002595    12.000000000000
         C            2.265447835497    -1.153670458617    -0.566647997405    12.000000000000
         C           -1.367676164503     0.823935541383    -0.466842997405    12.000000000000
         C            1.507967835497     0.730062541383     0.751195002595    12.000000000000
         C           -3.672718164503    -0.573713458617     0.268318002595    12.000000000000
         C            3.539302835497    -0.590112458617    -0.637704997405    12.000000000000
         C           -2.627430164503     1.403411541383    -0.624271997405    12.000000000000
         C            2.776491835497     1.298252541383     0.651587002595    12.000000000000
         C           -3.785428164503     0.715332541383    -0.258629997405    12.000000000000
         C            3.800276835497     0.643281541383    -0.038567997405    12.000000000000
         H           -0.028040164503    -2.099445458617     0.034171002595     1.007825032230
         H           -2.331185164503    -2.147120458617     0.886115002595     1.007825032230
         H            2.059915835497    -2.104067458617    -1.057198997405     1.007825032230
         H           -0.479553164503     1.356924541383    -0.792284997405     1.007825032230
         H            0.728351835497     1.219808541383     1.328443002595     1.007825032230
         H           -4.563502164503    -1.125405458617     0.560001002595     1.007825032230
         H            4.325665835497    -1.113493458617    -1.176704997405     1.007825032230
         H           -2.700033164503     2.402300541383    -1.048886997405     1.007825032230
         H            2.971854835497     2.250864541383     1.138821002595     1.007825032230
         H           -4.762224164503     1.173789541383    -0.387717997405     1.007825032230
         H            4.789837835497     1.087606541383    -0.104662997405     1.007825032230

  Basis Set: AUG-CC-PVTZ
    Blend: AUG-CC-PVTZ
  Basis Set: (AUG-CC-PVTZ AUX)
    Blend: AUG-CC-PVTZ-JKFIT
	 Reference Energy          =    -515.4398223885921198 [Eh]
	 Singles Energy            =      -0.0000000000000000 [Eh]
	 Same-Spin Energy          =      -0.5797791348551202 [Eh]
	 Opposite-Spin Energy      =      -1.7962985583067064 [Eh]
	 Correlation Energy        =      -2.3760776931618266 [Eh]
	 Total Energy              =    -517.8159000817539663 [Eh]

	 ================> DF-SCS-MP2 Energies <==================
	-----------------------------------------------------------
	 SCS Same-Spin Scale       =       0.3333333333333333 [-]
	 SCS Opposite-Spin Scale   =       1.2000000000000000 [-]
	 SCS Same-Spin Energy      =      -0.1932597116183734 [Eh]
	 SCS Opposite-Spin Energy  =      -2.1555582699680476 [Eh]
	 SCS Correlation Energy    =      -2.3488179815864210 [Eh]
	 SCS Total Energy          =    -517.7886403701785412 [Eh]
	-----------------------------------------------------------

  Dipole Moment: [D]
     X:     0.1194      Y:    -0.6975      Z:    -0.3491     Total:     0.7891

*** Psi4 exiting successfully. Buy a developer a beer!
