                               Psi4 1.3.2 release

  ==> Input File <==

--------------------------------------------------------------------------
#psi4
#
memory 32 gb

molecule  {
0 1
  N       -0.0163110    -1.1135150     0.2687020
  C       -1.2721422    -0.5101954     0.0645099
  C        1.2381220    -0.5006260     0.1304260
  C       -2.4182660    -1.1561390     0.4533410
  C        2.2667570    -1.1558630    -0.5622090
  C       -1.3663670     0.8217430    -0.4624040
  C        1.5092770     0.7278700     0.7556340
  C       -3.6714090    -0.5759060     0.2727570
  C        3.5406120    -0.5923050    -0.6332660
  C       -2.6261210     1.4012190    -0.6198330
  C        2.7778010     1.2960600     0.6560260
  C       -3.7841190     0.7131400    -0.2541910
  C        3.8015860     0.6410890    -0.0341290
  H       -0.0267310    -2.1016380     0.0386100
  H       -2.3298760    -2.1493130     0.8905540
  H        2.0612250    -2.1062600    -1.0527600
  H       -0.4782440     1.3547320    -0.7878460
  H        0.7296610     1.2176160     1.3328820
  H       -4.5621930    -1.1275980     0.5644400
  H        4.3269750    -1.1156860    -1.1722660
  H       -2.6987240     2.4001080    -1.0444480
  H        2.9731640     2.2486720     1.1432600
  H       -4.7609150     1.1715970    -0.3832790
  H        4.7911470     1.0854140    -0.1002240
units angstrom
no_reorient  #important for SAPT in psi4, default
symmetry c1  #important for SAPT in psi4, default
}

set PROPERTIES_ORIGIN ["COM"]
properties('MP2/aug-cc-pvtz', properties = ['dipole'])
--------------------------------------------------------------------------

    Molecular point group: c1
  Charge       = 0
  Multiplicity = 1
  Basis Set: AUG-CC-PVTZ
    Blend: AUG-CC-PVTZ
  Basis Set: (AUG-CC-PVTZ AUX)
    Blend: AUG-CC-PVTZ-JKFIT

    Orbital Energies [Eh]
    ---------------------

    Doubly Occupied:

       1A    -15.580081     2A    -11.284524     3A    -11.284399
       4A    -11.241302     5A    -11.240536     6A    -11.239792
       7A    -11.238354     8A    -11.234451     9A    -11.231558
      10A    -11.231346    11A    -11.229716    12A    -11.226971
      13A    -11.226474    14A     -1.261215    15A     -1.152323
      16A     -1.126892    17A     -1.027163    18A     -1.018180
      19A     -1.009641    20A     -0.972904    21A     -0.845863
      22A     -0.841190    23A     -0.819176    24A     -0.795612
      25A     -0.717987    26A     -0.705954    27A     -0.678785
      28A     -0.656462    29A     -0.628783    30A     -0.622898
      31A     -0.600123    32A     -0.591452    33A     -0.587205
      34A     -0.585140    35A     -0.543054    36A     -0.521018
      37A     -0.506634    38A     -0.503890    39A     -0.496784
      40A     -0.490053    41A     -0.448712    42A     -0.342782
      43A     -0.340824    44A     -0.335113    45A     -0.280752

  @DF-RHF Final Energy:  -515.43966828989846

   => Energetics <=

    Nuclear Repulsion Energy =            695.0278943578216513
    One-Electron Energy =               -2075.8469907339822385
    Two-Electron Energy =                 865.3794280862621235
    Total Energy =                       -515.4396682898984636
  Basis Set: (AUG-CC-PVTZ AUX)
    Blend: AUG-CC-PVTZ-RI
    Molecular point group: c1

    Geometry (in Angstrom), charge = 0, multiplicity = 1:

       Center              X                  Y                   Z               Mass
    ------------   -----------------  -----------------  -----------------  -----------------
         N           -0.014809152668    -1.105311740579     0.266412964325    14.003074004430
         C           -1.270640352668    -0.501992140579     0.062220864325    12.000000000000
         C            1.239623847332    -0.492422740579     0.128136964325    12.000000000000
         C           -2.416764152668    -1.147935740579     0.451051964325    12.000000000000
         C            2.268258847332    -1.147659740579    -0.564498035675    12.000000000000
         C           -1.364865152668     0.829946259421    -0.464693035675    12.000000000000
         C            1.510778847332     0.736073259421     0.753344964325    12.000000000000
         C           -3.669907152668    -0.567702740579     0.270467964325    12.000000000000
         C            3.542113847332    -0.584101740579    -0.635555035675    12.000000000000
         C           -2.624619152668     1.409422259421    -0.622122035675    12.000000000000
         C            2.779302847332     1.304263259421     0.653736964325    12.000000000000
         C           -3.782617152668     0.721343259421    -0.256480035675    12.000000000000
         C            3.803087847332     0.649292259421    -0.036418035675    12.000000000000
         H           -0.025229152668    -2.093434740579     0.036320964325     1.007825032230
         H           -2.328374152668    -2.141109740579     0.888264964325     1.007825032230
         H            2.062726847332    -2.098056740579    -1.055049035675     1.007825032230
         H           -0.476742152668     1.362935259421    -0.790135035675     1.007825032230
         H            0.731162847332     1.225819259421     1.330592964325     1.007825032230
         H           -4.560691152668    -1.119394740579     0.562150964325     1.007825032230
         H            4.328476847332    -1.107482740579    -1.174555035675     1.007825032230
         H           -2.697222152668     2.408311259421    -1.046737035675     1.007825032230
         H            2.974665847332     2.256875259421     1.140970964325     1.007825032230
         H           -4.759413152668     1.179800259421    -0.385568035675     1.007825032230
         H            4.792648847332     1.093617259421    -0.102513035675     1.007825032230

  Basis Set: AUG-CC-PVTZ
    Blend: AUG-CC-PVTZ
  Basis Set: (AUG-CC-PVTZ AUX)
    Blend: AUG-CC-PVTZ-JKFIT
	 Reference Energy          =    -515.4396682898984636 [Eh]
	 Singles Energy            =      -0.0000000000000000 [Eh]
	 Same-Spin Energy          =      -0.5797990837087377 [Eh]
	 Opposite-Spin Energy      =      -1.7962661309251082 [Eh]
	 Correlation Energy        =      -2.3760652146338459 [Eh]
	 Total Energy              =    -517.8157335045323180 [Eh]

	 ================> DF-SCS-MP2 Energies <==================
	-----------------------------------------------------------
	 SCS Same-Spin Scale       =       0.3333333333333333 [-]
	 SCS Opposite-Spin Scale   =       1.2000000000000000 [-]
	 SCS Same-Spin Energy      =      -0.1932663612362459 [Eh]
	 SCS Opposite-Spin Energy  =      -2.1555193571101299 [Eh]
	 SCS Correlation Energy    =      -2.3487857183463756 [Eh]
	 SCS Total Energy          =    -517.7884540082447984 [Eh]
	-----------------------------------------------------------

  Dipole Moment: [D]
     X:     0.1795      Y:    -0.6677      Z:    -0.3490     Total:     0.7745

*** Psi4 exiting successfully. Buy a developer a beer!
