                               Psi4 1.3.2 release

  ==> Input File <==

--------------------------------------------------------------------------
#psi4
#
memory 32 gb

molecule  {
0 1
  N       -0.0163110    -1.1135150     0.2687020
  C       -1.2530910    -0.4674540     0.0795420
  C        1.2381220    -0.5006260     0.1304260
  C       -2.5012466    -1.2051853     0.4799620
  C        2.2667570    -1.1558630    -0.5622090
  C       -1.3663670     0.8217430    -0.4624040
  C        1.5092770     0.7278700     0.7556340
  C       -3.6714090    -0.5759060     0.2727570
  C        3.5406120    -0.5923050    -0.6332660
  C       -2.6261210     1.4012190    -0.6198330
  C        2.7778010     1.2960600     0.6560260
  C       -3.7841190     0.7131400    -0.2541910
  C        3.8015860     0.6410890    -0.0341290
  H       -0.0267310    -2.1016380     0.0386100
  H       -2.3298760    -2.1493130     0.8905540
  H        2.0612250    -2.1062600    -1.0527600
  H       -0.4782440     1.3547320    -0.7878460
  H        0.7296610     1.2176160     1.3328820
  H       -4.5621930    -1.1275980     0.5644400
  H        4.3269750    -1.1156860    -1.1722660
  H       -2.6987240     2.4001080    -1.0444480
  H        2.9731640     2.2486720     1.1432600
  H       -4.7609150     1.1715970    -0.3832790
  H        4.7911470     1.0854140    -0.1002240
units angstrom
no_reorient  #important for SAPT in psi4, default
symmetry c1  #important for SAPT in psi4, default
}

set PROPERTIES_ORIGIN ["COM"]
properties('MP2/aug-cc-pvtz', properties = ['dipole'])
--------------------------------------------------------------------------

    Molecular point group: c1
  Charge       = 0
  Multiplicity = 1
  Basis Set: AUG-CC-PVTZ
    Blend: AUG-CC-PVTZ
  Basis Set: (AUG-CC-PVTZ AUX)
    Blend: AUG-CC-PVTZ-JKFIT

    Orbital Energies [Eh]
    ---------------------

    Doubly Occupied:

       1A    -15.583941     2A    -11.294271     3A    -11.284593
       4A    -11.241765     5A    -11.240939     6A    -11.239353
       7A    -11.235121     8A    -11.234330     9A    -11.232101
      10A    -11.231879    11A    -11.230250    12A    -11.225278
      13A    -11.224306    14A     -1.261155    15A     -1.149344
      16A     -1.126999    17A     -1.022873    18A     -1.019856
      19A     -1.014886    20A     -0.968903    21A     -0.845077
      22A     -0.841614    23A     -0.822363    24A     -0.791508
      25A     -0.715168    26A     -0.709472    27A     -0.682233
      28A     -0.661757    29A     -0.631141    30A     -0.618113
      31A     -0.596566    32A     -0.594639    33A     -0.588854
      34A     -0.586551    35A     -0.542079    36A     -0.522210
      37A     -0.513507    38A     -0.501921    39A     -0.495728
      40A     -0.480297    41A     -0.448883    42A     -0.348301
      43A     -0.340578    44A     -0.333887    45A     -0.276368

  @DF-RHF Final Energy:  -515.43063305141845

   => Energetics <=

    Nuclear Repulsion Energy =            693.7470833643802735
    One-Electron Energy =               -2073.2535245105918875
    Two-Electron Energy =                 864.0758080947932740
    Total Energy =                       -515.4306330514184538
  Basis Set: (AUG-CC-PVTZ AUX)
    Blend: AUG-CC-PVTZ-RI
    Molecular point group: c1

    Geometry (in Angstrom), charge = 0, multiplicity = 1:

       Center              X                  Y                   Z               Mass
    ------------   -----------------  -----------------  -----------------  -----------------
         N           -0.010272180290    -1.104864291406     0.263456907109    14.003074004430
         C           -1.247052180290    -0.458803291406     0.074296907109    12.000000000000
         C            1.244160819710    -0.491975291406     0.125180907109    12.000000000000
         C           -2.495207780290    -1.196534591406     0.474716907109    12.000000000000
         C            2.272795819710    -1.147212291406    -0.567454092891    12.000000000000
         C           -1.360328180290     0.830393708594    -0.467649092891    12.000000000000
         C            1.515315819710     0.736520708594     0.750388907109    12.000000000000
         C           -3.665370180290    -0.567255291406     0.267511907109    12.000000000000
         C            3.546650819710    -0.583654291406    -0.638511092891    12.000000000000
         C           -2.620082180290     1.409869708594    -0.625078092891    12.000000000000
         C            2.783839819710     1.304710708594     0.650780907109    12.000000000000
         C           -3.778080180290     0.721790708594    -0.259436092891    12.000000000000
         C            3.807624819710     0.649739708594    -0.039374092891    12.000000000000
         H           -0.020692180290    -2.092987291406     0.033364907109     1.007825032230
         H           -2.323837180290    -2.140662291406     0.885308907109     1.007825032230
         H            2.067263819710    -2.097609291406    -1.058005092891     1.007825032230
         H           -0.472205180290     1.363382708594    -0.793091092891     1.007825032230
         H            0.735699819710     1.226266708594     1.327636907109     1.007825032230
         H           -4.556154180290    -1.118947291406     0.559194907109     1.007825032230
         H            4.333013819710    -1.107035291406    -1.177511092891     1.007825032230
         H           -2.692685180290     2.408758708594    -1.049693092891     1.007825032230
         H            2.979202819710     2.257322708594     1.138014907109     1.007825032230
         H           -4.754876180290     1.180247708594    -0.388524092891     1.007825032230
         H            4.797185819710     1.094064708594    -0.105469092891     1.007825032230

  Basis Set: AUG-CC-PVTZ
    Blend: AUG-CC-PVTZ
  Basis Set: (AUG-CC-PVTZ AUX)
    Blend: AUG-CC-PVTZ-JKFIT
	 Reference Energy          =    -515.4306330514184538 [Eh]
	 Singles Energy            =      -0.0000000000000000 [Eh]
	 Same-Spin Energy          =      -0.5795158610169955 [Eh]
	 Opposite-Spin Energy      =      -1.7966188802631791 [Eh]
	 Correlation Energy        =      -2.3761347412801745 [Eh]
	 Total Energy              =    -517.8067677926986789 [Eh]

	 ================> DF-SCS-MP2 Energies <==================
	-----------------------------------------------------------
	 SCS Same-Spin Scale       =       0.3333333333333333 [-]
	 SCS Opposite-Spin Scale   =       1.2000000000000000 [-]
	 SCS Same-Spin Energy      =      -0.1931719536723318 [Eh]
	 SCS Opposite-Spin Energy  =      -2.1559426563158146 [Eh]
	 SCS Correlation Energy    =      -2.3491146099881464 [Eh]
	 SCS Total Energy          =    -517.7797476614066454 [Eh]
	-----------------------------------------------------------

  Dipole Moment: [D]
     X:     0.3116      Y:    -0.7430      Z:    -0.3205     Total:     0.8671

*** Psi4 exiting successfully. Buy a developer a beer!
