                               Psi4 1.3.2 release

  ==> Input File <==

--------------------------------------------------------------------------
#psi4
#
memory 32 gb

molecule  {
0 1
  N       -0.0928265    -1.2274340     0.3224776
  C       -1.2530910    -0.4674540     0.0795420
  C        1.2381220    -0.5006260     0.1304260
  C       -2.4182660    -1.1561390     0.4533410
  C        2.2667570    -1.1558630    -0.5622090
  C       -1.3663670     0.8217430    -0.4624040
  C        1.5092770     0.7278700     0.7556340
  C       -3.6714090    -0.5759060     0.2727570
  C        3.5406120    -0.5923050    -0.6332660
  C       -2.6261210     1.4012190    -0.6198330
  C        2.7778010     1.2960600     0.6560260
  C       -3.7841190     0.7131400    -0.2541910
  C        3.8015860     0.6410890    -0.0341290
  H       -0.0267310    -2.1016380     0.0386100
  H       -2.3298760    -2.1493130     0.8905540
  H        2.0612250    -2.1062600    -1.0527600
  H       -0.4782440     1.3547320    -0.7878460
  H        0.7296610     1.2176160     1.3328820
  H       -4.5621930    -1.1275980     0.5644400
  H        4.3269750    -1.1156860    -1.1722660
  H       -2.6987240     2.4001080    -1.0444480
  H        2.9731640     2.2486720     1.1432600
  H       -4.7609150     1.1715970    -0.3832790
  H        4.7911470     1.0854140    -0.1002240
units angstrom
no_reorient  #important for SAPT in psi4, default
symmetry c1  #important for SAPT in psi4, default
}

set PROPERTIES_ORIGIN ["COM"]
properties('MP2/aug-cc-pvtz', properties = ['dipole'])
--------------------------------------------------------------------------

    Molecular point group: c1
  Charge       = 0
  Multiplicity = 1
  Basis Set: AUG-CC-PVTZ
    Blend: AUG-CC-PVTZ
  Basis Set: (AUG-CC-PVTZ AUX)
    Blend: AUG-CC-PVTZ-JKFIT

    Orbital Energies [Eh]
    ---------------------

    Doubly Occupied:

       1A    -15.573286     2A    -11.288554     3A    -11.280609
       4A    -11.243805     5A    -11.243597     6A    -11.240061
       7A    -11.238102     8A    -11.237865     9A    -11.235822
      10A    -11.235793    11A    -11.229358    12A    -11.225397
      13A    -11.225035    14A     -1.246751    15A     -1.152202
      16A     -1.127303    17A     -1.021577    18A     -1.019899
      19A     -1.009726    20A     -0.979197    21A     -0.842942
      22A     -0.836169    23A     -0.817318    24A     -0.803552
      25A     -0.719198    26A     -0.706978    27A     -0.677584
      28A     -0.649953    29A     -0.627348    30A     -0.623482
      31A     -0.602933    32A     -0.590954    33A     -0.586923
      34A     -0.583186    35A     -0.535790    36A     -0.519423
      37A     -0.506095    38A     -0.502846    39A     -0.498693
      40A     -0.485162    41A     -0.446107    42A     -0.344116
      43A     -0.339883    44A     -0.336057    45A     -0.289164

  @DF-RHF Final Energy:  -515.42094270978123

   => Energetics <=

    Nuclear Repulsion Energy =            693.0267878478440480
    One-Electron Energy =               -2071.8438679044411401
    Two-Electron Energy =                 863.3961373468159763
    Total Energy =                       -515.4209427097812295
  Basis Set: (AUG-CC-PVTZ AUX)
    Blend: AUG-CC-PVTZ-RI
    Molecular point group: c1

    Geometry (in Angstrom), charge = 0, multiplicity = 1:

       Center              X                  Y                   Z               Mass
    ------------   -----------------  -----------------  -----------------  -----------------
         N           -0.086340076117    -1.212829860383     0.314668346676    14.003074004430
         C           -1.246604576117    -0.452849860383     0.071732746676    12.000000000000
         C            1.244608423883    -0.486021860383     0.122616746676    12.000000000000
         C           -2.411779576117    -1.141534860383     0.445531746676    12.000000000000
         C            2.273243423883    -1.141258860383    -0.570018253324    12.000000000000
         C           -1.359880576117     0.836347139617    -0.470213253324    12.000000000000
         C            1.515763423883     0.742474139617     0.747824746676    12.000000000000
         C           -3.664922576117    -0.561301860383     0.264947746676    12.000000000000
         C            3.547098423883    -0.577700860383    -0.641075253324    12.000000000000
         C           -2.619634576117     1.415823139617    -0.627642253324    12.000000000000
         C            2.784287423883     1.310664139617     0.648216746676    12.000000000000
         C           -3.777632576117     0.727744139617    -0.262000253324    12.000000000000
         C            3.808072423883     0.655693139617    -0.041938253324    12.000000000000
         H           -0.020244576117    -2.087033860383     0.030800746676     1.007825032230
         H           -2.323389576117    -2.134708860383     0.882744746676     1.007825032230
         H            2.067711423883    -2.091655860383    -1.060569253324     1.007825032230
         H           -0.471757576117     1.369336139617    -0.795655253324     1.007825032230
         H            0.736147423883     1.232220139617     1.325072746676     1.007825032230
         H           -4.555706576117    -1.112993860383     0.556630746676     1.007825032230
         H            4.333461423883    -1.101081860383    -1.180075253324     1.007825032230
         H           -2.692237576117     2.414712139617    -1.052257253324     1.007825032230
         H            2.979650423883     2.263276139617     1.135450746676     1.007825032230
         H           -4.754428576117     1.186201139617    -0.391088253324     1.007825032230
         H            4.797633423883     1.100018139617    -0.108033253324     1.007825032230

  Basis Set: AUG-CC-PVTZ
    Blend: AUG-CC-PVTZ
  Basis Set: (AUG-CC-PVTZ AUX)
    Blend: AUG-CC-PVTZ-JKFIT
	 Reference Energy          =    -515.4209427097812295 [Eh]
	 Singles Energy            =      -0.0000000000000000 [Eh]
	 Same-Spin Energy          =      -0.5788699096783696 [Eh]
	 Opposite-Spin Energy      =      -1.7964875033406025 [Eh]
	 Correlation Energy        =      -2.3753574130189721 [Eh]
	 Total Energy              =    -517.7963001228001758 [Eh]

	 ================> DF-SCS-MP2 Energies <==================
	-----------------------------------------------------------
	 SCS Same-Spin Scale       =       0.3333333333333333 [-]
	 SCS Opposite-Spin Scale   =       1.2000000000000000 [-]
	 SCS Same-Spin Energy      =      -0.1929566365594565 [Eh]
	 SCS Opposite-Spin Energy  =      -2.1557850040087230 [Eh]
	 SCS Correlation Energy    =      -2.3487416405681794 [Eh]
	 SCS Total Energy          =    -517.7696843503493938 [Eh]
	-----------------------------------------------------------

  Dipole Moment: [D]
     X:     0.6661      Y:    -0.4325      Z:    -0.5014     Total:     0.9392

*** Psi4 exiting successfully. Buy a developer a beer!
