                               Psi4 1.3.2 release

  ==> Input File <==

--------------------------------------------------------------------------
#psi4
#
memory 32 gb

molecule  {
0 1
  N       -0.0163110    -1.1135150     0.2687020
  C       -1.2970095    -0.5527238     0.1009950
  C        1.2381220    -0.5006260     0.1304260
  C       -2.4182660    -1.1561390     0.4533410
  C        2.2667570    -1.1558630    -0.5622090
  C       -1.3663670     0.8217430    -0.4624040
  C        1.5092770     0.7278700     0.7556340
  C       -3.6714090    -0.5759060     0.2727570
  C        3.5406120    -0.5923050    -0.6332660
  C       -2.6261210     1.4012190    -0.6198330
  C        2.7778010     1.2960600     0.6560260
  C       -3.7841190     0.7131400    -0.2541910
  C        3.8015860     0.6410890    -0.0341290
  H       -0.0267310    -2.1016380     0.0386100
  H       -2.3298760    -2.1493130     0.8905540
  H        2.0612250    -2.1062600    -1.0527600
  H       -0.4782440     1.3547320    -0.7878460
  H        0.7296610     1.2176160     1.3328820
  H       -4.5621930    -1.1275980     0.5644400
  H        4.3269750    -1.1156860    -1.1722660
  H       -2.6987240     2.4001080    -1.0444480
  H        2.9731640     2.2486720     1.1432600
  H       -4.7609150     1.1715970    -0.3832790
  H        4.7911470     1.0854140    -0.1002240
units angstrom
no_reorient  #important for SAPT in psi4, default
symmetry c1  #important for SAPT in psi4, default
}

set PROPERTIES_ORIGIN ["COM"]
properties('MP2/aug-cc-pvtz', properties = ['dipole'])
--------------------------------------------------------------------------

    Molecular point group: c1
  Charge       = 0
  Multiplicity = 1
  Basis Set: AUG-CC-PVTZ
    Blend: AUG-CC-PVTZ
  Basis Set: (AUG-CC-PVTZ AUX)
    Blend: AUG-CC-PVTZ-JKFIT

    Orbital Energies [Eh]
    ---------------------

    Doubly Occupied:

       1A    -15.579787     2A    -11.286044     3A    -11.283679
       4A    -11.241405     5A    -11.240542     6A    -11.240455
       7A    -11.237860     8A    -11.236169     9A    -11.234518
      10A    -11.231168    11A    -11.229452    12A    -11.227036
      13A    -11.220914    14A     -1.260643    15A     -1.153611
      16A     -1.127198    17A     -1.032778    18A     -1.017766
      19A     -1.006756    20A     -0.973025    21A     -0.847623
      22A     -0.840736    23A     -0.817980    24A     -0.795681
      25A     -0.719582    26A     -0.704231    27A     -0.680079
      28A     -0.656929    29A     -0.628332    30A     -0.624213
      31A     -0.602726    32A     -0.589749    33A     -0.587768
      34A     -0.581217    35A     -0.544569    36A     -0.521662
      37A     -0.507266    38A     -0.504792    39A     -0.497639
      40A     -0.484677    41A     -0.448216    42A     -0.348441
      43A     -0.341090    44A     -0.331100    45A     -0.280283

  @DF-RHF Final Energy:  -515.42984904835430

   => Energetics <=

    Nuclear Repulsion Energy =            694.8438689188908484
    One-Electron Energy =               -2075.4526571739743304
    Two-Electron Energy =                 865.1789392067291828
    Total Energy =                       -515.4298490483542992
  Basis Set: (AUG-CC-PVTZ AUX)
    Blend: AUG-CC-PVTZ-RI
    Molecular point group: c1

    Geometry (in Angstrom), charge = 0, multiplicity = 1:

       Center              X                  Y                   Z               Mass
    ------------   -----------------  -----------------  -----------------  -----------------
         N           -0.013044358173    -1.102293564653     0.263823672216    14.003074004430
         C           -1.293742858173    -0.541502364653     0.096116672216    12.000000000000
         C            1.241388641827    -0.489404564653     0.125547672216    12.000000000000
         C           -2.414999358173    -1.144917564653     0.448462672216    12.000000000000
         C            2.270023641827    -1.144641564653    -0.567087327784    12.000000000000
         C           -1.363100358173     0.832964435347    -0.467282327784    12.000000000000
         C            1.512543641827     0.739091435347     0.750755672216    12.000000000000
         C           -3.668142358173    -0.564684564653     0.267878672216    12.000000000000
         C            3.543878641827    -0.581083564653    -0.638144327784    12.000000000000
         C           -2.622854358173     1.412440435347    -0.624711327784    12.000000000000
         C            2.781067641827     1.307281435347     0.651147672216    12.000000000000
         C           -3.780852358173     0.724361435347    -0.259069327784    12.000000000000
         C            3.804852641827     0.652310435347    -0.039007327784    12.000000000000
         H           -0.023464358173    -2.090416564653     0.033731672216     1.007825032230
         H           -2.326609358173    -2.138091564653     0.885675672216     1.007825032230
         H            2.064491641827    -2.095038564653    -1.057638327784     1.007825032230
         H           -0.474977358173     1.365953435347    -0.792724327784     1.007825032230
         H            0.732927641827     1.228837435347     1.328003672216     1.007825032230
         H           -4.558926358173    -1.116376564653     0.559561672216     1.007825032230
         H            4.330241641827    -1.104464564653    -1.177144327784     1.007825032230
         H           -2.695457358173     2.411329435347    -1.049326327784     1.007825032230
         H            2.976430641827     2.259893435347     1.138381672216     1.007825032230
         H           -4.757648358173     1.182818435347    -0.388157327784     1.007825032230
         H            4.794413641827     1.096635435347    -0.105102327784     1.007825032230

  Basis Set: AUG-CC-PVTZ
    Blend: AUG-CC-PVTZ
  Basis Set: (AUG-CC-PVTZ AUX)
    Blend: AUG-CC-PVTZ-JKFIT
	 Reference Energy          =    -515.4298490483542992 [Eh]
	 Singles Energy            =      -0.0000000000000000 [Eh]
	 Same-Spin Energy          =      -0.5795920445963357 [Eh]
	 Opposite-Spin Energy      =      -1.7966188897627600 [Eh]
	 Correlation Energy        =      -2.3762109343590958 [Eh]
	 Total Energy              =    -517.8060599827133501 [Eh]

	 ================> DF-SCS-MP2 Energies <==================
	-----------------------------------------------------------
	 SCS Same-Spin Scale       =       0.3333333333333333 [-]
	 SCS Opposite-Spin Scale   =       1.2000000000000000 [-]
	 SCS Same-Spin Energy      =      -0.1931973481987786 [Eh]
	 SCS Opposite-Spin Energy  =      -2.1559426677153120 [Eh]
	 SCS Correlation Energy    =      -2.3491400159140907 [Eh]
	 SCS Total Energy          =    -517.7789890642684441 [Eh]
	-----------------------------------------------------------

  Dipole Moment: [D]
     X:     0.1470      Y:    -0.6607      Z:    -0.3416     Total:     0.7582

*** Psi4 exiting successfully. Buy a developer a beer!
