                               Psi4 1.4a3.dev225

  ==> Input File <==

--------------------------------------------------------------------------
#psi4
#
memory 32 gb

molecule  {
0 1
  N       -0.0163110    -1.1135150     0.2687020
  C       -1.2530910    -0.4674540     0.0795420
  C        1.2381220    -0.5006260     0.1304260
  C       -2.3767757    -1.1316159     0.4400305
  C        2.2667570    -1.1558630    -0.5622090
  C       -1.3663670     0.8217430    -0.4624040
  C        1.5092770     0.7278700     0.7556340
  C       -3.6714090    -0.5759060     0.2727570
  C        3.5406120    -0.5923050    -0.6332660
  C       -2.6261210     1.4012190    -0.6198330
  C        2.7778010     1.2960600     0.6560260
  C       -3.7841190     0.7131400    -0.2541910
  C        3.8015860     0.6410890    -0.0341290
  H       -0.0267310    -2.1016380     0.0386100
  H       -2.3298760    -2.1493130     0.8905540
  H        2.0612250    -2.1062600    -1.0527600
  H       -0.4782440     1.3547320    -0.7878460
  H        0.7296610     1.2176160     1.3328820
  H       -4.5621930    -1.1275980     0.5644400
  H        4.3269750    -1.1156860    -1.1722660
  H       -2.6987240     2.4001080    -1.0444480
  H        2.9731640     2.2486720     1.1432600
  H       -4.7609150     1.1715970    -0.3832790
  H        4.7911470     1.0854140    -0.1002240
units angstrom
no_reorient  #important for SAPT in psi4, default
symmetry c1  #important for SAPT in psi4, default
}

set PROPERTIES_ORIGIN ["COM"]
properties('MP2/aug-cc-pvtz', properties = ['dipole'])
--------------------------------------------------------------------------

    Molecular point group: c1
  Charge       = 0
  Multiplicity = 1
  Basis Set: AUG-CC-PVTZ
    Blend: AUG-CC-PVTZ
  Basis Set: (AUG-CC-PVTZ AUX)
    Blend: AUG-CC-PVTZ-JKFIT

    Orbital Energies [Eh]
    ---------------------

    Doubly Occupied:

       1A    -15.578506     2A    -11.283036     3A    -11.278428
       4A    -11.242396     5A    -11.240733     6A    -11.240078
       7A    -11.238749     8A    -11.233390     9A    -11.230547
      10A    -11.229880    11A    -11.229624    12A    -11.228841
      13A    -11.227756    14A     -1.261910    15A     -1.153505
      16A     -1.126727    17A     -1.027901    18A     -1.017397
      19A     -1.008645    20A     -0.974647    21A     -0.847095
      22A     -0.840032    23A     -0.819387    24A     -0.795675
      25A     -0.717732    26A     -0.706763    27A     -0.677389
      28A     -0.654679    29A     -0.628289    30A     -0.624903
      31A     -0.601383    32A     -0.593555    33A     -0.586409
      34A     -0.581081    35A     -0.543101    36A     -0.520843
      37A     -0.505126    38A     -0.502966    39A     -0.497121
      40A     -0.491410    41A     -0.448363    42A     -0.342090
      43A     -0.341166    44A     -0.334125    45A     -0.282858

  @DF-RHF Final Energy:  -515.43892132048654

   => Energetics <=

    Nuclear Repulsion Energy =            696.0198496721596939
    One-Electron Energy =               -2077.8450669589396966
    Two-Electron Energy =                 866.3862959662935737
    Total Energy =                       -515.4389213204865428
  Basis Set: (AUG-CC-PVTZ AUX)
    Blend: AUG-CC-PVTZ-RI
    Molecular point group: c1

    Geometry (in Angstrom), charge = 0, multiplicity = 1:

       Center              X                  Y                   Z               Mass
    ------------   -----------------  -----------------  -----------------  -----------------
         N           -0.019105690931    -1.110085399936     0.266290784989    14.003074004430
         C           -1.255885690931    -0.464024399936     0.077130784989    12.000000000000
         C            1.235327309069    -0.497196399936     0.128014784989    12.000000000000
         C           -2.379570390931    -1.128186299936     0.437619284989    12.000000000000
         C            2.263962309069    -1.152433399936    -0.564620215011    12.000000000000
         C           -1.369161690931     0.825172600064    -0.464815215011    12.000000000000
         C            1.506482309069     0.731299600064     0.753222784989    12.000000000000
         C           -3.674203690931    -0.572476399936     0.270345784989    12.000000000000
         C            3.537817309069    -0.588875399936    -0.635677215011    12.000000000000
         C           -2.628915690931     1.404648600064    -0.622244215011    12.000000000000
         C            2.775006309069     1.299489600064     0.653614784989    12.000000000000
         C           -3.786913690931     0.716569600064    -0.256602215011    12.000000000000
         C            3.798791309069     0.644518600064    -0.036540215011    12.000000000000
         H           -0.029525690931    -2.098208399936     0.036198784989     1.007825032230
         H           -2.332670690931    -2.145883399936     0.888142784989     1.007825032230
         H            2.058430309069    -2.102830399936    -1.055171215011     1.007825032230
         H           -0.481038690931     1.358161600064    -0.790257215011     1.007825032230
         H            0.726866309069     1.221045600064     1.330470784989     1.007825032230
         H           -4.564987690931    -1.124168399936     0.562028784989     1.007825032230
         H            4.324180309069    -1.112256399936    -1.174677215011     1.007825032230
         H           -2.701518690931     2.403537600064    -1.046859215011     1.007825032230
         H            2.970369309069     2.252101600064     1.140848784989     1.007825032230
         H           -4.763709690931     1.175026600064    -0.385690215011     1.007825032230
         H            4.788352309069     1.088843600064    -0.102635215011     1.007825032230

  Basis Set: AUG-CC-PVTZ
    Blend: AUG-CC-PVTZ
  Basis Set: (AUG-CC-PVTZ AUX)
    Blend: AUG-CC-PVTZ-JKFIT
	 Reference Energy          =    -515.4389213204865428 [Eh]
	 Singles Energy            =      -0.0000000000000000 [Eh]
	 Same-Spin Energy          =      -0.5798454252378500 [Eh]
	 Opposite-Spin Energy      =      -1.7962388051273210 [Eh]
	 Correlation Energy        =      -2.3760842303651710 [Eh]
	 Total Energy              =    -517.8150055508517653 [Eh]

	 ================> DF-SCS-MP2 Energies <==================
	-----------------------------------------------------------
	 SCS Same-Spin Scale       =       0.3333333333333333 [-]
	 SCS Opposite-Spin Scale   =       1.2000000000000000 [-]
	 SCS Same-Spin Energy      =      -0.1932818084126167 [Eh]
	 SCS Opposite-Spin Energy  =      -2.1554865661527853 [Eh]
	 SCS Correlation Energy    =      -2.3487683745654020 [Eh]
	 SCS Total Energy          =    -517.7876896950519949 [Eh]
	-----------------------------------------------------------

  Dipole Moment: [D]
     X:     0.0531      Y:    -0.6490      Z:    -0.3639     Total:     0.7459

*** Psi4 exiting successfully. Buy a developer a beer!
