                               Psi4 1.3.2 release

  ==> Input File <==

--------------------------------------------------------------------------
#psi4
#
memory 32 gb

molecule  {
0 1
  N       -0.0163110    -1.1135150     0.2687020
  C       -1.2031470    -0.3853317     0.0590106
  C        1.2381220    -0.5006260     0.1304260
  C       -2.4182660    -1.1561390     0.4533410
  C        2.2667570    -1.1558630    -0.5622090
  C       -1.3663670     0.8217430    -0.4624040
  C        1.5092770     0.7278700     0.7556340
  C       -3.6714090    -0.5759060     0.2727570
  C        3.5406120    -0.5923050    -0.6332660
  C       -2.6261210     1.4012190    -0.6198330
  C        2.7778010     1.2960600     0.6560260
  C       -3.7841190     0.7131400    -0.2541910
  C        3.8015860     0.6410890    -0.0341290
  H       -0.0267310    -2.1016380     0.0386100
  H       -2.3298760    -2.1493130     0.8905540
  H        2.0612250    -2.1062600    -1.0527600
  H       -0.4782440     1.3547320    -0.7878460
  H        0.7296610     1.2176160     1.3328820
  H       -4.5621930    -1.1275980     0.5644400
  H        4.3269750    -1.1156860    -1.1722660
  H       -2.6987240     2.4001080    -1.0444480
  H        2.9731640     2.2486720     1.1432600
  H       -4.7609150     1.1715970    -0.3832790
  H        4.7911470     1.0854140    -0.1002240
units angstrom
no_reorient  #important for SAPT in psi4, default
symmetry c1  #important for SAPT in psi4, default
}

set PROPERTIES_ORIGIN ["COM"]
properties('MP2/aug-cc-pvtz', properties = ['dipole'])
--------------------------------------------------------------------------

    Molecular point group: c1
  Charge       = 0
  Multiplicity = 1
  Basis Set: AUG-CC-PVTZ
    Blend: AUG-CC-PVTZ
  Basis Set: (AUG-CC-PVTZ AUX)
    Blend: AUG-CC-PVTZ-JKFIT

    Orbital Energies [Eh]
    ---------------------

    Doubly Occupied:

       1A    -15.581237     2A    -11.283386     3A    -11.281400
       4A    -11.240809     5A    -11.240258     6A    -11.239640
       7A    -11.239236     8A    -11.237794     9A    -11.233438
      10A    -11.230852    11A    -11.229180    12A    -11.227214
      13A    -11.219071    14A     -1.262555    15A     -1.151101
      16A     -1.127058    17A     -1.026427    18A     -1.015433
      19A     -1.014075    20A     -0.971694    21A     -0.846130
      22A     -0.838945    23A     -0.824360    24A     -0.790087
      25A     -0.715197    26A     -0.711159    27A     -0.678165
      28A     -0.659952    29A     -0.628749    30A     -0.619490
      31A     -0.603668    32A     -0.593429    33A     -0.587300
      34A     -0.579933    35A     -0.541442    36A     -0.521038
      37A     -0.510914    38A     -0.503504    39A     -0.495424
      40A     -0.482318    41A     -0.448048    42A     -0.348875
      43A     -0.339884    44A     -0.331077    45A     -0.281345

  @DF-RHF Final Energy:  -515.43018775844553

   => Energetics <=

    Nuclear Repulsion Energy =            695.6827499312089458
    One-Electron Energy =               -2077.1612950575613468
    Two-Electron Energy =                 866.0483573679068741
    Total Energy =                       -515.4301877584455269
  Basis Set: (AUG-CC-PVTZ AUX)
    Blend: AUG-CC-PVTZ-RI
    Molecular point group: c1

    Geometry (in Angstrom), charge = 0, multiplicity = 1:

       Center              X                  Y                   Z               Mass
    ------------   -----------------  -----------------  -----------------  -----------------
         N           -0.019705637174    -1.114173127638     0.266803241289    14.003074004430
         C           -1.206541637174    -0.385989827638     0.057111841289    12.000000000000
         C            1.234727362826    -0.501284127638     0.128527241289    12.000000000000
         C           -2.421660637174    -1.156797127638     0.451442241289    12.000000000000
         C            2.263362362826    -1.156521127638    -0.564107758711    12.000000000000
         C           -1.369761637174     0.821084872362    -0.464302758711    12.000000000000
         C            1.505882362826     0.727211872362     0.753735241289    12.000000000000
         C           -3.674803637174    -0.576564127638     0.270858241289    12.000000000000
         C            3.537217362826    -0.592963127638    -0.635164758711    12.000000000000
         C           -2.629515637174     1.400560872362    -0.621731758711    12.000000000000
         C            2.774406362826     1.295401872362     0.654127241289    12.000000000000
         C           -3.787513637174     0.712481872362    -0.256089758711    12.000000000000
         C            3.798191362826     0.640430872362    -0.036027758711    12.000000000000
         H           -0.030125637174    -2.102296127638     0.036711241289     1.007825032230
         H           -2.333270637174    -2.149971127638     0.888655241289     1.007825032230
         H            2.057830362826    -2.106918127638    -1.054658758711     1.007825032230
         H           -0.481638637174     1.354073872362    -0.789744758711     1.007825032230
         H            0.726266362826     1.216957872362     1.330983241289     1.007825032230
         H           -4.565587637174    -1.128256127638     0.562541241289     1.007825032230
         H            4.323580362826    -1.116344127638    -1.174164758711     1.007825032230
         H           -2.702118637174     2.399449872362    -1.046346758711     1.007825032230
         H            2.969769362826     2.248013872362     1.141361241289     1.007825032230
         H           -4.764309637174     1.170938872362    -0.385177758711     1.007825032230
         H            4.787752362826     1.084755872362    -0.102122758711     1.007825032230

  Basis Set: AUG-CC-PVTZ
    Blend: AUG-CC-PVTZ
  Basis Set: (AUG-CC-PVTZ AUX)
    Blend: AUG-CC-PVTZ-JKFIT
	 Reference Energy          =    -515.4301877584455269 [Eh]
	 Singles Energy            =      -0.0000000000000000 [Eh]
	 Same-Spin Energy          =      -0.5794822953749237 [Eh]
	 Opposite-Spin Energy      =      -1.7967213263284525 [Eh]
	 Correlation Energy        =      -2.3762036217033762 [Eh]
	 Total Energy              =    -517.8063913801488525 [Eh]

	 ================> DF-SCS-MP2 Energies <==================
	-----------------------------------------------------------
	 SCS Same-Spin Scale       =       0.3333333333333333 [-]
	 SCS Opposite-Spin Scale   =       1.2000000000000000 [-]
	 SCS Same-Spin Energy      =      -0.1931607651249745 [Eh]
	 SCS Opposite-Spin Energy  =      -2.1560655915941429 [Eh]
	 SCS Correlation Energy    =      -2.3492263567191176 [Eh]
	 SCS Total Energy          =    -517.7794141151646272 [Eh]
	-----------------------------------------------------------

  Dipole Moment: [D]
     X:     0.1461      Y:    -0.6997      Z:    -0.3580     Total:     0.7994

*** Psi4 exiting successfully. Buy a developer a beer!
