                               Psi4 1.3.2 release

  ==> Input File <==

--------------------------------------------------------------------------
#psi4
#
memory 32 gb

molecule  {
0 1
  N       -0.0163110    -1.1135150     0.2687020
  C       -1.2530910    -0.4674540     0.0795420
  C        1.2381220    -0.5006260     0.1304260
  C       -2.3352854    -1.1070927     0.4267200
  C        2.2667570    -1.1558630    -0.5622090
  C       -1.3663670     0.8217430    -0.4624040
  C        1.5092770     0.7278700     0.7556340
  C       -3.6714090    -0.5759060     0.2727570
  C        3.5406120    -0.5923050    -0.6332660
  C       -2.6261210     1.4012190    -0.6198330
  C        2.7778010     1.2960600     0.6560260
  C       -3.7841190     0.7131400    -0.2541910
  C        3.8015860     0.6410890    -0.0341290
  H       -0.0267310    -2.1016380     0.0386100
  H       -2.3298760    -2.1493130     0.8905540
  H        2.0612250    -2.1062600    -1.0527600
  H       -0.4782440     1.3547320    -0.7878460
  H        0.7296610     1.2176160     1.3328820
  H       -4.5621930    -1.1275980     0.5644400
  H        4.3269750    -1.1156860    -1.1722660
  H       -2.6987240     2.4001080    -1.0444480
  H        2.9731640     2.2486720     1.1432600
  H       -4.7609150     1.1715970    -0.3832790
  H        4.7911470     1.0854140    -0.1002240
units angstrom
no_reorient  #important for SAPT in psi4, default
symmetry c1  #important for SAPT in psi4, default
}

set PROPERTIES_ORIGIN ["COM"]
properties('MP2/aug-cc-pvtz', properties = ['dipole'])
--------------------------------------------------------------------------

    Molecular point group: c1
  Charge       = 0
  Multiplicity = 1
  Basis Set: AUG-CC-PVTZ
    Blend: AUG-CC-PVTZ
  Basis Set: (AUG-CC-PVTZ AUX)
    Blend: AUG-CC-PVTZ-JKFIT

    Orbital Energies [Eh]
    ---------------------

    Doubly Occupied:

       1A    -15.576429     2A    -11.282368     3A    -11.271341
       4A    -11.245272     5A    -11.240312     6A    -11.239721
       7A    -11.238768     8A    -11.232703     9A    -11.231480
      10A    -11.230009    11A    -11.229108    12A    -11.228283
      13A    -11.228267    14A     -1.262569    15A     -1.155716
      16A     -1.126662    17A     -1.032389    18A     -1.016656
      19A     -1.005423    20A     -0.976494    21A     -0.849586
      22A     -0.838658    23A     -0.818303    24A     -0.795917
      25A     -0.718555    26A     -0.705550    27A     -0.676831
      28A     -0.652672    29A     -0.630121    30A     -0.626327
      31A     -0.603121    32A     -0.593399    33A     -0.585965
      34A     -0.576800    35A     -0.544054    36A     -0.521369
      37A     -0.506084    38A     -0.502967    39A     -0.496681
      40A     -0.486472    41A     -0.447824    42A     -0.346308
      43A     -0.340498    44A     -0.330722    45A     -0.285008

  @DF-RHF Final Energy:  -515.42865861581515

   => Energetics <=

    Nuclear Repulsion Energy =            696.8597102702087795
    One-Electron Energy =               -2079.5172163591228127
    Two-Electron Energy =                 867.2288474730988810
    Total Energy =                       -515.4286586158151522
  Basis Set: (AUG-CC-PVTZ AUX)
    Blend: AUG-CC-PVTZ-RI
    Molecular point group: c1

    Geometry (in Angstrom), charge = 0, multiplicity = 1:

       Center              X                  Y                   Z               Mass
    ------------   -----------------  -----------------  -----------------  -----------------
         N           -0.022050194477    -1.111825774177     0.267235410948    14.003074004430
         C           -1.258830194477    -0.465764774177     0.078075410948    12.000000000000
         C            1.232382805523    -0.498936774177     0.128959410948    12.000000000000
         C           -2.341024594477    -1.105403474177     0.425253410948    12.000000000000
         C            2.261017805523    -1.154173774177    -0.563675589052    12.000000000000
         C           -1.372106194477     0.823432225823    -0.463870589052    12.000000000000
         C            1.503537805523     0.729559225823     0.754167410948    12.000000000000
         C           -3.677148194477    -0.574216774177     0.271290410948    12.000000000000
         C            3.534872805523    -0.590615774177    -0.634732589052    12.000000000000
         C           -2.631860194477     1.402908225823    -0.621299589052    12.000000000000
         C            2.772061805523     1.297749225823     0.654559410948    12.000000000000
         C           -3.789858194477     0.714829225823    -0.255657589052    12.000000000000
         C            3.795846805523     0.642778225823    -0.035595589052    12.000000000000
         H           -0.032470194477    -2.099948774177     0.037143410948     1.007825032230
         H           -2.335615194477    -2.147623774177     0.889087410948     1.007825032230
         H            2.055485805523    -2.104570774177    -1.054226589052     1.007825032230
         H           -0.483983194477     1.356421225823    -0.789312589052     1.007825032230
         H            0.723921805523     1.219305225823     1.331415410948     1.007825032230
         H           -4.567932194477    -1.125908774177     0.562973410948     1.007825032230
         H            4.321235805523    -1.113996774177    -1.173732589052     1.007825032230
         H           -2.704463194477     2.401797225823    -1.045914589052     1.007825032230
         H            2.967424805523     2.250361225823     1.141793410948     1.007825032230
         H           -4.766654194477     1.173286225823    -0.384745589052     1.007825032230
         H            4.785407805523     1.087103225823    -0.101690589052     1.007825032230

  Basis Set: AUG-CC-PVTZ
    Blend: AUG-CC-PVTZ
  Basis Set: (AUG-CC-PVTZ AUX)
    Blend: AUG-CC-PVTZ-JKFIT
	 Reference Energy          =    -515.4286586158151522 [Eh]
	 Singles Energy            =      -0.0000000000000000 [Eh]
	 Same-Spin Energy          =      -0.5797873550411186 [Eh]
	 Opposite-Spin Energy      =      -1.7965644729159371 [Eh]
	 Correlation Energy        =      -2.3763518279570555 [Eh]
	 Total Energy              =    -517.8050104437721757 [Eh]

	 ================> DF-SCS-MP2 Energies <==================
	-----------------------------------------------------------
	 SCS Same-Spin Scale       =       0.3333333333333333 [-]
	 SCS Opposite-Spin Scale   =       1.2000000000000000 [-]
	 SCS Same-Spin Energy      =      -0.1932624516803728 [Eh]
	 SCS Opposite-Spin Energy  =      -2.1558773674991243 [Eh]
	 SCS Correlation Energy    =      -2.3491398191794972 [Eh]
	 SCS Total Energy          =    -517.7777984349946792 [Eh]
	-----------------------------------------------------------

  Dipole Moment: [D]
     X:    -0.0584      Y:    -0.6099      Z:    -0.3806     Total:     0.7213

*** Psi4 exiting successfully. Buy a developer a beer!
