                               Psi4 1.3.2 release

  ==> Input File <==

--------------------------------------------------------------------------
#psi4
#
memory 32 gb

molecule  {
0 1
  N       -0.0163110    -1.1135150     0.2687020
  C       -1.2429988    -0.4463753     0.0871456
  C        1.2381220    -0.5006260     0.1304260
  C       -2.4182660    -1.1561390     0.4533410
  C        2.2667570    -1.1558630    -0.5622090
  C       -1.3663670     0.8217430    -0.4624040
  C        1.5092770     0.7278700     0.7556340
  C       -3.6714090    -0.5759060     0.2727570
  C        3.5406120    -0.5923050    -0.6332660
  C       -2.6261210     1.4012190    -0.6198330
  C        2.7778010     1.2960600     0.6560260
  C       -3.7841190     0.7131400    -0.2541910
  C        3.8015860     0.6410890    -0.0341290
  H       -0.0267310    -2.1016380     0.0386100
  H       -2.3298760    -2.1493130     0.8905540
  H        2.0612250    -2.1062600    -1.0527600
  H       -0.4782440     1.3547320    -0.7878460
  H        0.7296610     1.2176160     1.3328820
  H       -4.5621930    -1.1275980     0.5644400
  H        4.3269750    -1.1156860    -1.1722660
  H       -2.6987240     2.4001080    -1.0444480
  H        2.9731640     2.2486720     1.1432600
  H       -4.7609150     1.1715970    -0.3832790
  H        4.7911470     1.0854140    -0.1002240
units angstrom
no_reorient  #important for SAPT in psi4, default
symmetry c1  #important for SAPT in psi4, default
}

set PROPERTIES_ORIGIN ["COM"]
properties('MP2/aug-cc-pvtz', properties = ['dipole'])
--------------------------------------------------------------------------

    Molecular point group: c1
  Charge       = 0
  Multiplicity = 1
  Basis Set: AUG-CC-PVTZ
    Blend: AUG-CC-PVTZ
  Basis Set: (AUG-CC-PVTZ AUX)
    Blend: AUG-CC-PVTZ-JKFIT

    Orbital Energies [Eh]
    ---------------------

    Doubly Occupied:

       1A    -15.580671     2A    -11.284723     3A    -11.283201
       4A    -11.241028     5A    -11.240340     6A    -11.239355
       7A    -11.239055     8A    -11.233812     9A    -11.232511
      10A    -11.230891    11A    -11.229181    12A    -11.226699
      13A    -11.226605    14A     -1.261680    15A     -1.151516
      16A     -1.126767    17A     -1.023421    18A     -1.018396
      19A     -1.012494    20A     -0.972524    21A     -0.845020
      22A     -0.841226    23A     -0.821155    24A     -0.793982
      25A     -0.716378    26A     -0.708772    27A     -0.678218
      28A     -0.657324    29A     -0.628634    30A     -0.621464
      31A     -0.599067    32A     -0.594344    33A     -0.587125
      34A     -0.584798    35A     -0.542267    36A     -0.520791
      37A     -0.507896    38A     -0.503605    39A     -0.494823
      40A     -0.491190    41A     -0.448805    42A     -0.342812
      43A     -0.338754    44A     -0.336726    45A     -0.280595

  @DF-RHF Final Energy:  -515.44145930806360

   => Energetics <=

    Nuclear Repulsion Energy =            695.3190605543417178
    One-Electron Energy =               -2076.4397614759836870
    Two-Electron Energy =                 865.6792416135782560
    Total Energy =                       -515.4414593080635996
  Basis Set: (AUG-CC-PVTZ AUX)
    Blend: AUG-CC-PVTZ-RI
    Molecular point group: c1

    Geometry (in Angstrom), charge = 0, multiplicity = 1:

       Center              X                  Y                   Z               Mass
    ------------   -----------------  -----------------  -----------------  -----------------
         N           -0.016877415483    -1.109840956102     0.264806543090    14.003074004430
         C           -1.243565215483    -0.442701256102     0.083250143090    12.000000000000
         C            1.237555584517    -0.496951956102     0.126530543090    12.000000000000
         C           -2.418832415483    -1.152464956102     0.449445543090    12.000000000000
         C            2.266190584517    -1.152188956102    -0.566104456910    12.000000000000
         C           -1.366933415483     0.825417043898    -0.466299456910    12.000000000000
         C            1.508710584517     0.731544043898     0.751738543090    12.000000000000
         C           -3.671975415483    -0.572231956102     0.268861543090    12.000000000000
         C            3.540045584517    -0.588630956102    -0.637161456910    12.000000000000
         C           -2.626687415483     1.404893043898    -0.623728456910    12.000000000000
         C            2.777234584517     1.299734043898     0.652130543090    12.000000000000
         C           -3.784685415483     0.716814043898    -0.258086456910    12.000000000000
         C            3.801019584517     0.644763043898    -0.038024456910    12.000000000000
         H           -0.027297415483    -2.097963956102     0.034714543090     1.007825032230
         H           -2.330442415483    -2.145638956102     0.886658543090     1.007825032230
         H            2.060658584517    -2.102585956102    -1.056655456910     1.007825032230
         H           -0.478810415483     1.358406043898    -0.791741456910     1.007825032230
         H            0.729094584517     1.221290043898     1.328986543090     1.007825032230
         H           -4.562759415483    -1.123923956102     0.560544543090     1.007825032230
         H            4.326408584517    -1.112011956102    -1.176161456910     1.007825032230
         H           -2.699290415483     2.403782043898    -1.048343456910     1.007825032230
         H            2.972597584517     2.252346043898     1.139364543090     1.007825032230
         H           -4.761481415483     1.175271043898    -0.387174456910     1.007825032230
         H            4.790580584517     1.089088043898    -0.104119456910     1.007825032230

  Basis Set: AUG-CC-PVTZ
    Blend: AUG-CC-PVTZ
  Basis Set: (AUG-CC-PVTZ AUX)
    Blend: AUG-CC-PVTZ-JKFIT
	 Reference Energy          =    -515.4414593080635996 [Eh]
	 Singles Energy            =      -0.0000000000000000 [Eh]
	 Same-Spin Energy          =      -0.5797958794666096 [Eh]
	 Opposite-Spin Energy      =      -1.7961785236361836 [Eh]
	 Correlation Energy        =      -2.3759744031027932 [Eh]
	 Total Energy              =    -517.8174337111663590 [Eh]

	 ================> DF-SCS-MP2 Energies <==================
	-----------------------------------------------------------
	 SCS Same-Spin Scale       =       0.3333333333333333 [-]
	 SCS Opposite-Spin Scale   =       1.2000000000000000 [-]
	 SCS Same-Spin Energy      =      -0.1932652931555365 [Eh]
	 SCS Opposite-Spin Energy  =      -2.1554142283634201 [Eh]
	 SCS Correlation Energy    =      -2.3486795215189566 [Eh]
	 SCS Total Energy          =    -517.7901388295825882 [Eh]
	-----------------------------------------------------------

  Dipole Moment: [D]
     X:     0.1363      Y:    -0.6909      Z:    -0.3487     Total:     0.7858

*** Psi4 exiting successfully. Buy a developer a beer!
